 Gaussian 09, Revision E.01,
 Gaussian 09:  ES64L-G09RevE.01 30-Nov-2015

 --------------------------------
 #P OPT=calcfc Freq B3LYP/6-31G**
 --------------------------------

 --------
 Frag_360
 --------
 Symbolic Z-matrix:
 Charge =  0 Multiplicity = 1

 SCF Done:  E(RB3LYP) =  -231.240548642     A.U. after   14 cycles
 SCF Done:  E(RB3LYP) =  -231.244151226     A.U. after   12 cycles
 SCF Done:  E(RB3LYP) =  -231.244198505     A.U. after    9 cycles
 SCF Done:  E(RB3LYP) =  -231.244199776     A.U. after    7 cycles
 Optimization completed.
    -- Stationary point found.
 Normal termination of Gaussian 09 at Fri Sep 10 17:43:09 2021.

 ----------------------------------------------------------------------
 #P Geom=AllCheck Guess=TCheck SCRF=Check GenChk RB3LYP/6-31G(d,p) Freq
 ----------------------------------------------------------------------

 Structure from the checkpoint file:  "/public/home/users/caep010/.cache/gau_scr/Gau-131431.chk"
 --------
 Frag_360
 --------
 Charge =  0 Multiplicity = 1

                         Standard orientation:
 ---------------------------------------------------------------------
 Center     Atomic      Atomic             Coordinates (Angstroms)
 Number     Number       Type             X           Y           Z
 ---------------------------------------------------------------------
      1          6           0       -2.013632   -0.103706    0.000000
      2          6           0       -0.803252   -0.668348    0.000000
      3          6           0        0.441113    0.162792   -0.000003
      4          6           0        1.755906   -0.593770   -0.000001
      5          8           0        0.400478    1.382582    0.000000
      6          1           0       -2.103259    0.978826   -0.000000
      7          1           0       -2.925472   -0.692196    0.000001
      8          1           0       -0.687435   -1.750251   -0.000001
      9          1           0        2.589052    0.109579   -0.000056
     10          1           0        1.821217   -1.244262   -0.880481
     11          1           0        1.821259   -1.244164    0.880550
 ---------------------------------------------------------------------

 SCF Done:  E(RB3LYP) =  -231.244199776     A.U. after    1 cycles

 The electronic state is 1-A.
 Alpha  occ. eigenvalues --  -19.13384 -10.27527 -10.20522 -10.20017 -10.19021
 Alpha  occ. eigenvalues --   -1.03273  -0.78974  -0.74049  -0.62107  -0.52209
 Alpha  occ. eigenvalues --   -0.48533  -0.45355  -0.44043  -0.41348  -0.39275
 Alpha  occ. eigenvalues --   -0.37269  -0.36180  -0.27971  -0.24738
 Alpha virt. eigenvalues --   -0.05477   0.06122   0.10192   0.12654   0.14374
 Alpha virt. eigenvalues --    0.15907   0.17832   0.18982   0.23651   0.30959
 Alpha virt. eigenvalues --    0.32543   0.33836   0.47874   0.51985   0.55582

 Mulliken charges:
               1
     1  C   -0.200116
     2  C   -0.095412
     3  C    0.410710
     4  C   -0.395533
     5  O   -0.452801
     6  H    0.137676
     7  H    0.111877
     8  H    0.087664
     9  H    0.137439
    10  H    0.129246
    11  H    0.129250
 Sum of Mulliken charges =  -0.00000

 Dipole moment (field-independent basis, Debye):
    X=             -0.4128    Y=             -2.6402    Z=              0.0000  Tot=              2.6723
 Quadrupole moment (field-independent basis, Debye-Ang):
   XX=            -25.7876   YY=            -32.2122   ZZ=            -30.4955
   XY=             -1.3992   XZ=              0.0000   YZ=             -0.0000

  Exact polarizability:  60.959  -2.283  45.751   0.000  -0.000  24.347
 Approx polarizability:  82.833  -4.050  73.831   0.000  -0.000  34.688

                      1                      2                      3
                      A                      A                      A
 Frequencies --    110.4214               123.7382               269.9575
 Red. masses --      2.2070                 1.0867                 2.9051
 Frc consts  --      0.0159                 0.0098                 0.1247
 IR Inten    --      0.9263                 0.2186                 4.0960

                      4                      5                      6
                      A                      A                      A
 Frequencies --    414.3021               466.1826               600.1720
 Red. masses --      2.9472                 1.6317                 3.5613
 Frc consts  --      0.2981                 0.2089                 0.7558
 IR Inten    --      3.9606                 0.0007                12.8745

                      7                      8                      9
                      A                      A                      A
 Frequencies --    687.0265               784.1544               962.5321
 Red. masses --      1.6404                 2.6843                 1.6426
 Frc consts  --      0.4562                 0.9725                 0.8966
 IR Inten    --      6.8093                 3.0713                22.7875

                     10                     11                     12
                      A                      A                      A
 Frequencies --   1001.2106              1031.4382              1047.6816
 Red. masses --      1.3762                 1.1208                 1.7649
 Frc consts  --      0.8128                 0.7025                 1.1414
 IR Inten    --     15.0517                29.8992                 0.5443

                     13                     14                     15
                      A                      A                      A
 Frequencies --   1084.9431              1204.3016              1332.0484
 Red. masses --      1.6406                 2.4819                 1.3838
 Frc consts  --      1.1378                 2.1208                 1.4467
 IR Inten    --     11.6924                96.7933                 3.6878

                     16                     17                     18
                      A                      A                      A
 Frequencies --   1393.8775              1442.1058              1476.7927
 Red. masses --      1.2977                 1.2652                 1.0563
 Frc consts  --      1.4855                 1.5503                 1.3573
 IR Inten    --     23.2453                68.3483                11.6714

                     19                     20                     21
                      A                      A                      A
 Frequencies --   1487.3295              1688.6581              1797.1484
 Red. masses --      1.0485                 4.9714                 8.8369
 Frc consts  --      1.3665                 8.3525                16.8158
 IR Inten    --      8.0650                57.4519                99.5112

                     22                     23                     24
                      A                      A                      A
 Frequencies --   3040.4572              3100.1537              3160.1856
 Red. masses --      1.0384                 1.0993                 1.0597
 Frc consts  --      5.6557                 6.2251                 6.2356
 IR Inten    --      2.5551                10.6387                 7.8529

                     25                     26                     27
                      A                      A                      A
 Frequencies --   3168.0986              3175.3458              3258.5361
 Red. masses --      1.1011                 1.0914                 1.1177
 Frc consts  --      6.5117                 6.4834                 6.9922
 IR Inten    --      7.6872                12.5292                 3.3625

 - Thermochemistry -
 -------------------
 Temperature   298.150 Kelvin.  Pressure   1.00000 Atm.
 Atom     1 has atomic number  6 and mass  12.00000

 Molecular mass:    70.04186 amu.
 Principal axes and moments of inertia in atomic units:
                           1         2         3
     Eigenvalues --   176.81970 453.45677 619.11511
           X            0.99921  -0.03979   0.00000
           Y            0.03979   0.99921  -0.00000
           Z           -0.00000   0.00000   1.00000
 This molecule is an asymmetric top.
 Rotational symmetry number  1.
 Rotational temperatures (Kelvin)      0.48984     0.19101     0.13990
 Rotational constants (GHZ):          10.20668     3.97996     2.91503
 Zero-point vibrational energy     235118.8 (Joules/Mol)
                                   56.19475 (Kcal/Mol)
 Warning -- explicit consideration of   6 degrees of freedom as
           vibrations may cause significant error
 Vibrational temperatures:    158.87   178.03   388.41   596.09   670.73
          (Kelvin)            863.51   988.48  1128.22  1384.87  1440.52
                             1484.01  1507.38  1560.99  1732.72  1916.52
                             2005.48  2074.87  2124.77  2139.93  2429.60
                             2585.69  4374.53  4460.42  4546.80  4558.18
                             4568.61  4688.30

 Zero-point correction=                           0.089552 (Hartree/Particle)
 Thermal correction to Energy=                    0.095379
 Thermal correction to Enthalpy=                  0.096323
 Thermal correction to Gibbs Free Energy=         0.060604
 Sum of electronic and zero-point Energies=           -231.154648
 Sum of electronic and thermal Energies=              -231.148821
 Sum of electronic and thermal Enthalpies=            -231.147877
 Sum of electronic and thermal Free Energies=         -231.183596

                     E (Thermal)             CV                S
                      KCal/Mol        Cal/Mol-Kelvin    Cal/Mol-Kelvin
 Total                   59.851             19.407             75.177
 Electronic               0.000              0.000              0.000
 Translational            0.889              2.981             38.657
 Rotational               0.889              2.981             25.410
 Vibrational             58.074             13.445             11.110
 Vibration     1          0.606              1.941              3.261
 Vibration     2          0.610              1.929              3.041
 Vibration     3          0.674              1.728              1.596
 Vibration     4          0.778              1.439              0.912
 Vibration     5          0.824              1.325              0.748
 Vibration     6          0.958              1.031              0.449

 Optimization completed.
    -- Stationary point found.
 Normal termination of Gaussian 09 at Fri Sep 10 17:43:17 2021.
