 Gaussian 09, Revision E.01,
 Gaussian 09:  ES64L-G09RevE.01 30-Nov-2015

 ----------------------------
 #P OPT Freq B3LYP/6-31G(d,p)
 ----------------------------

 ---------
 Frag_1017
 ---------
 Symbolic Z-matrix:
 Charge =  0 Multiplicity = 1

 SCF Done:  E(RB3LYP) =  -225.170653453     A.U. after   14 cycles
 SCF Done:  E(RB3LYP) =  -225.170723901     A.U. after   11 cycles
 SCF Done:  E(RB3LYP) =  -225.170737379     A.U. after    9 cycles
 SCF Done:  E(RB3LYP) =  -225.170744463     A.U. after    9 cycles
 SCF Done:  E(RB3LYP) =  -225.170752203     A.U. after   11 cycles
 SCF Done:  E(RB3LYP) =  -225.170761078     A.U. after   10 cycles
 SCF Done:  E(RB3LYP) =  -225.170767256     A.U. after   11 cycles
 SCF Done:  E(RB3LYP) =  -225.170769278     A.U. after   11 cycles
 SCF Done:  E(RB3LYP) =  -225.170769674     A.U. after    9 cycles
 SCF Done:  E(RB3LYP) =  -225.170769743     A.U. after    8 cycles
 SCF Done:  E(RB3LYP) =  -225.170769735     A.U. after    7 cycles
 SCF Done:  E(RB3LYP) =  -225.170769727     A.U. after    8 cycles
 SCF Done:  E(RB3LYP) =  -225.170769721     A.U. after    8 cycles
 SCF Done:  E(RB3LYP) =  -225.169970324     A.U. after   12 cycles
 SCF Done:  E(RB3LYP) =  -225.169954289     A.U. after   12 cycles
 SCF Done:  E(RB3LYP) =  -225.170769747     A.U. after    7 cycles
 SCF Done:  E(RB3LYP) =  -225.170769541     A.U. after   11 cycles
 SCF Done:  E(RB3LYP) =  -225.170769729     A.U. after   10 cycles
 SCF Done:  E(RB3LYP) =  -225.170769745     A.U. after    8 cycles
 Optimization completed.
    -- Stationary point found.
 Normal termination of Gaussian 09 at Thu Sep  8 14:47:44 2022.

 ----------------------------------------------------------------------
 #P Geom=AllCheck Guess=TCheck SCRF=Check GenChk RB3LYP/6-31G(d,p) Freq
 ----------------------------------------------------------------------

 Structure from the checkpoint file:  "B3LYP6-31Gdp.Frag_1017.chk"
 ---------
 Frag_1017
 ---------
 Charge =  0 Multiplicity = 1

                         Standard orientation:
 ---------------------------------------------------------------------
 Center     Atomic      Atomic             Coordinates (Angstroms)
 Number     Number       Type             X           Y           Z
 ---------------------------------------------------------------------
      1          7           0       -1.254549   -0.660603    0.012134
      2          6           0       -0.748024    0.502514    0.014678
      3          8           0        0.580114    0.731345   -0.021411
      4          7           0        1.403936   -0.462444   -0.083400
      5          1           0       -2.271168   -0.615857    0.019309
      6          1           0       -1.264182    1.466880    0.024631
      7          1           0        1.592015   -0.658171    0.903693
      8          1           0        0.744854   -1.197369   -0.365547
 ---------------------------------------------------------------------

 SCF Done:  E(RB3LYP) =  -225.170769745     A.U. after    1 cycles

 The electronic state is 1-A.
 Alpha  occ. eigenvalues --  -19.21425 -14.37789 -14.32389 -10.28966  -1.10463
 Alpha  occ. eigenvalues --   -0.90409  -0.83266  -0.61744  -0.54684  -0.50455
 Alpha  occ. eigenvalues --   -0.49202  -0.40533  -0.38158  -0.30525  -0.29088
 Alpha  occ. eigenvalues --   -0.25676
 Alpha virt. eigenvalues --    0.01491   0.06549   0.09684   0.10682   0.14471
 Alpha virt. eigenvalues --    0.18840   0.25619   0.36138   0.52331   0.53502
 Alpha virt. eigenvalues --    0.58695   0.63811   0.69176   0.69868   0.72178

 Mulliken charges:
               1
     1  N   -0.554703
     2  C    0.353989
     3  O   -0.360518
     4  N   -0.341718
     5  H    0.244724
     6  H    0.109533
     7  H    0.266051
     8  H    0.282642
 Sum of Mulliken charges =  -0.00000

 Dipole moment (field-independent basis, Debye):
    X=             -1.9307    Y=              0.1551    Z=              1.0995  Tot=              2.2272
 Quadrupole moment (field-independent basis, Debye-Ang):
   XX=            -21.9635   YY=            -23.3604   ZZ=            -23.4613
   XY=             -3.4443   XZ=              2.4662   YZ=             -0.2964

  Exact polarizability:  37.443  -0.219  30.829   1.240   0.036  16.625
 Approx polarizability:  51.604   5.745  51.515   0.972   0.258  22.883

                      1                      2                      3
                      A                      A                      A
 Frequencies --     28.7575               337.2833               362.7502
 Red. masses --      1.0912                 2.6228                 4.1261
 Frc consts  --      0.0005                 0.1758                 0.3199
 IR Inten    --     63.9770                55.9494                22.5653

                      4                      5                      6
                      A                      A                      A
 Frequencies --    768.0925               810.0333               863.1114
 Red. masses --      3.9258                 1.3303                 6.3551
 Frc consts  --      1.3646                 0.5143                 2.7894
 IR Inten    --     20.7682                45.7457                17.0141

                      7                      8                      9
                      A                      A                      A
 Frequencies --   1025.2896              1058.1181              1215.8522
 Red. masses --      1.3701                 1.9411                 1.3341
 Frc consts  --      0.8486                 1.2805                 1.1620
 IR Inten    --      6.5890               133.1994                16.5479

                     10                     11                     12
                      A                      A                      A
 Frequencies --   1309.1971              1381.6921              1398.5235
 Red. masses --      1.6021                 1.1410                 1.4824
 Frc consts  --      1.6178                 1.2834                 1.7083
 IR Inten    --    130.3006                10.1909                38.4908

                     13                     14                     15
                      A                      A                      A
 Frequencies --   1660.9188              1726.5348              3118.8726
 Red. masses --      1.1080                 5.0980                 1.0927
 Frc consts  --      1.8009                 8.9537                 6.2626
 IR Inten    --     68.7410               182.9569                30.4028

                     16                     17                     18
                      A                      A                      A
 Frequencies --   3386.1954              3483.1609              3547.5530
 Red. masses --      1.0492                 1.0921                 1.0770
 Frc consts  --      7.0880                 7.8065                 7.9857
 IR Inten    --     13.7100                 5.4097                 5.6222

 - Thermochemistry -
 -------------------
 Temperature   298.150 Kelvin.  Pressure   1.00000 Atm.
 Atom     1 has atomic number  7 and mass  14.00307

 Molecular mass:    60.03236 amu.
 Principal axes and moments of inertia in atomic units:
                           1         2         3
     Eigenvalues --    92.97089 260.03193 345.53967
           X            0.99862  -0.05024   0.01543
           Y            0.05036   0.99870  -0.00739
           Z           -0.01504   0.00816   0.99985
 This molecule is an asymmetric top.
 Rotational symmetry number  1.
 Rotational temperatures (Kelvin)      0.93162     0.33309     0.25066
 Rotational constants (GHZ):          19.41190     6.94046     5.22296
 Zero-point vibrational energy     164378.5 (Joules/Mol)
                                   39.28740 (Kcal/Mol)
 Warning -- explicit consideration of   3 degrees of freedom as
           vibrations may cause significant error
 Vibrational temperatures:     41.38   485.27   521.92  1105.11  1165.46
          (Kelvin)           1241.82  1475.16  1522.39  1749.34  1883.64
                             1987.94  2012.16  2389.69  2484.10  4487.36
                             4871.97  5011.49  5104.13

 Zero-point correction=                           0.062608 (Hartree/Particle)
 Thermal correction to Energy=                    0.067379
 Thermal correction to Enthalpy=                  0.068323
 Thermal correction to Gibbs Free Energy=         0.034612
 Sum of electronic and zero-point Energies=           -225.108161
 Sum of electronic and thermal Energies=              -225.103391
 Sum of electronic and thermal Enthalpies=            -225.102446
 Sum of electronic and thermal Free Energies=         -225.136158

                     E (Thermal)             CV                S
                      KCal/Mol        Cal/Mol-Kelvin    Cal/Mol-Kelvin
 Total                   42.281             14.288             70.952
 Electronic               0.000              0.000              0.000
 Translational            0.889              2.981             38.197
 Rotational               0.889              2.981             23.639
 Vibrational             40.504              8.327              9.116
 Vibration     1          0.593              1.984              5.913
 Vibration     2          0.718              1.601              1.225
 Vibration     3          0.737              1.549              1.110

 Normal termination of Gaussian 09 at Thu Sep  8 14:47:50 2022.
