 Gaussian 09, Revision E.01,
 Gaussian 09:  ES64L-G09RevE.01 30-Nov-2015

 --------------------------------
 #P OPT=calcfc Freq B3LYP/6-31G**
 --------------------------------

 --------
 Frag_371
 --------
 Symbolic Z-matrix:
 Charge =  0 Multiplicity = 1

 SCF Done:  E(RB3LYP) =  -280.506328601     A.U. after   14 cycles
 SCF Done:  E(RB3LYP) =  -280.535032098     A.U. after   14 cycles
 SCF Done:  E(RB3LYP) =  -280.538546721     A.U. after   14 cycles
 SCF Done:  E(RB3LYP) =  -280.535907302     A.U. after   12 cycles
 SCF Done:  E(RB3LYP) =  -280.538823533     A.U. after   10 cycles
 SCF Done:  E(RB3LYP) =  -280.538474378     A.U. after   14 cycles
 SCF Done:  E(RB3LYP) =  -280.539728768     A.U. after   11 cycles
 SCF Done:  E(RB3LYP) =  -280.540304757     A.U. after   12 cycles
 SCF Done:  E(RB3LYP) =  -280.540619641     A.U. after   11 cycles
 SCF Done:  E(RB3LYP) =  -280.540963310     A.U. after   12 cycles
 SCF Done:  E(RB3LYP) =  -280.541147643     A.U. after   11 cycles
 SCF Done:  E(RB3LYP) =  -280.541233158     A.U. after   12 cycles
 SCF Done:  E(RB3LYP) =  -280.541330966     A.U. after   11 cycles
 SCF Done:  E(RB3LYP) =  -280.541350789     A.U. after    9 cycles
 SCF Done:  E(RB3LYP) =  -280.541353718     A.U. after    8 cycles
 Optimization completed.
    -- Stationary point found.
 Normal termination of Gaussian 09 at Fri Sep 10 21:04:10 2021.

 ----------------------------------------------------------------------
 #P Geom=AllCheck Guess=TCheck SCRF=Check GenChk RB3LYP/6-31G(d,p) Freq
 ----------------------------------------------------------------------

 Structure from the checkpoint file:  "/public/home/users/caep010/.cache/gau_scr/Gau-20343.chk"
 --------
 Frag_371
 --------
 Charge =  0 Multiplicity = 1

                         Standard orientation:
 ---------------------------------------------------------------------
 Center     Atomic      Atomic             Coordinates (Angstroms)
 Number     Number       Type             X           Y           Z
 ---------------------------------------------------------------------
      1          7           0        0.515772    1.416788   -0.016444
      2          6           0        0.516275    0.151194    0.006599
      3          7           0        1.657550   -0.622940    0.079241
      4          8           0       -0.574260   -0.719847    0.013775
      5          7           0       -1.819794   -0.005711   -0.010819
      6          1           0       -0.448115    1.750863    0.002949
      7          1           0        2.490380   -0.110036   -0.171166
      8          1           0        1.585442   -1.539886   -0.338846
      9          1           0       -2.306267   -0.362765    0.812150
     10          1           0       -2.299705   -0.403514   -0.818727
 ---------------------------------------------------------------------

 SCF Done:  E(RB3LYP) =  -280.541353718     A.U. after    1 cycles

 The electronic state is 1-A.
 Alpha  occ. eigenvalues --  -19.20478 -14.39464 -14.34002 -14.27578 -10.29046
 Alpha  occ. eigenvalues --   -1.09766  -0.93233  -0.84357  -0.82635  -0.59246
 Alpha  occ. eigenvalues --   -0.54230  -0.52776  -0.47715  -0.45855  -0.43620
 Alpha  occ. eigenvalues --   -0.39687  -0.29043  -0.28344  -0.25824  -0.23048
 Alpha virt. eigenvalues --    0.05993   0.06756   0.08351   0.11690   0.13583
 Alpha virt. eigenvalues --    0.15087   0.18061   0.23153   0.33784   0.44277
 Alpha virt. eigenvalues --    0.55534   0.57294   0.59259   0.63072   0.66051

 Mulliken charges:
               1
     1  N   -0.585837
     2  C    0.656308
     3  N   -0.615733
     4  O   -0.441296
     5  N   -0.352883
     6  H    0.247380
     7  H    0.277844
     8  H    0.265644
     9  H    0.275576
    10  H    0.272996
 Sum of Mulliken charges =   0.00000

 Dipole moment (field-independent basis, Debye):
    X=             -1.8804    Y=             -2.7038    Z=             -0.9866  Tot=              3.4380
 Quadrupole moment (field-independent basis, Debye-Ang):
   XX=            -19.8086   YY=            -32.2365   ZZ=            -29.1382
   XY=             -1.7602   XZ=             -2.2393   YZ=              1.4536

  Exact polarizability:  45.078  -1.790  38.514  -0.309   0.487  20.978
 Approx polarizability:  56.195  -3.421  63.636   0.217  -0.074  29.157

                      1                      2                      3
                      A                      A                      A
 Frequencies --    146.5920               207.0657               329.2113
 Red. masses --      3.7100                 1.1575                 2.3371
 Frc consts  --      0.0470                 0.0292                 0.1492
 IR Inten    --      8.5812                32.4517                15.8229

                      4                      5                      6
                      A                      A                      A
 Frequencies --    364.9179               478.7704               561.5213
 Red. masses --      1.3661                 3.0586                 1.3826
 Frc consts  --      0.1072                 0.4131                 0.2569
 IR Inten    --     22.6281                 5.7633               221.3636

                      7                      8                      9
                      A                      A                      A
 Frequencies --    633.3971               724.7963               851.5058
 Red. masses --      3.6315                 5.3372                 2.7899
 Frc consts  --      0.8584                 1.6519                 1.1918
 IR Inten    --     48.7700                71.9554                57.9308

                     10                     11                     12
                      A                      A                      A
 Frequencies --    853.9375               967.7815              1090.2920
 Red. masses --      1.3370                 4.2288                 1.7527
 Frc consts  --      0.5744                 2.3336                 1.2276
 IR Inten    --     87.0452                19.2816                46.0769

                     13                     14                     15
                      A                      A                      A
 Frequencies --   1158.8859              1238.6139              1335.8347
 Red. masses --      1.4692                 1.5382                 1.1128
 Frc consts  --      1.1625                 1.3904                 1.1699
 IR Inten    --     28.4400               121.8779                 1.0663

                     16                     17                     18
                      A                      A                      A
 Frequencies --   1403.3501              1623.1830              1661.5260
 Red. masses --      2.5211                 1.2011                 1.0848
 Frc consts  --      2.9253                 1.8645                 1.7644
 IR Inten    --    234.6648                76.1058                33.1056

                     19                     20                     21
                      A                      A                      A
 Frequencies --   1797.8909              3448.3515              3517.5923
 Red. masses --      6.9803                 1.0477                 1.0721
 Frc consts  --     13.2938                 7.3404                 7.8161
 IR Inten    --    302.2769                 0.3453                18.2868

                     22                     23                     24
                      A                      A                      A
 Frequencies --   3541.5462              3586.5814              3707.8881
 Red. masses --      1.0964                 1.0469                 1.0999
 Frc consts  --      8.1026                 7.9341                 8.9098
 IR Inten    --      1.0269                25.2775                30.6829

 - Thermochemistry -
 -------------------
 Temperature   298.150 Kelvin.  Pressure   1.00000 Atm.
 Atom     1 has atomic number  7 and mass  14.00307

 Molecular mass:    75.04326 amu.
 Principal axes and moments of inertia in atomic units:
                           1         2         3
     Eigenvalues --   176.46979 422.53634 587.83835
           X            0.99966  -0.02465  -0.00837
           Y            0.02476   0.99961   0.01286
           Z            0.00805  -0.01307   0.99988
 This molecule is an asymmetric top.
 Rotational symmetry number  1.
 Rotational temperatures (Kelvin)      0.49081     0.20499     0.14734
 Rotational constants (GHZ):          10.22691     4.27121     3.07013
 Zero-point vibrational energy     210728.4 (Joules/Mol)
                                   50.36529 (Kcal/Mol)
 Warning -- explicit consideration of   6 degrees of freedom as
           vibrations may cause significant error
 Vibrational temperatures:    210.91   297.92   473.66   525.03   688.84
          (Kelvin)            807.90   911.32  1042.82  1225.13  1228.62
                             1392.42  1568.69  1667.38  1782.09  1921.97
                             2019.11  2335.40  2390.56  2586.76  4961.40
                             5061.02  5095.49  5160.28  5334.82

 Zero-point correction=                           0.080262 (Hartree/Particle)
 Thermal correction to Energy=                    0.085947
 Thermal correction to Enthalpy=                  0.086891
 Thermal correction to Gibbs Free Energy=         0.051799
 Sum of electronic and zero-point Energies=           -280.461092
 Sum of electronic and thermal Energies=              -280.455407
 Sum of electronic and thermal Enthalpies=            -280.454463
 Sum of electronic and thermal Free Energies=         -280.489555

                     E (Thermal)             CV                S
                      KCal/Mol        Cal/Mol-Kelvin    Cal/Mol-Kelvin
 Total                   53.932             19.620             73.857
 Electronic               0.000              0.000              0.000
 Translational            0.889              2.981             38.862
 Rotational               0.889              2.981             25.286
 Vibrational             52.155             13.658              9.708
 Vibration     1          0.617              1.906              2.716
 Vibration     2          0.641              1.830              2.069
 Vibration     3          0.712              1.617              1.264
 Vibration     4          0.738              1.544              1.101
 Vibration     5          0.835              1.297              0.713
 Vibration     6          0.917              1.115              0.521

 Optimization completed.
    -- Stationary point found.
 Normal termination of Gaussian 09 at Fri Sep 10 21:04:17 2021.
