 Gaussian 09, Revision D.01,
 Gaussian 09:  ES64L-G09RevD.01 24-Apr-2013

 -------------------------
 #P OPT Freq B3LYP/6-31G**
 -------------------------

 -------
 Frag_78
 -------
 Symbolic Z-matrix:
 Charge =  0 Multiplicity = 1

 SCF Done:  E(RB3LYP) =  -149.958126629     A.U. after   13 cycles
 Optimization completed.
    -- Stationary point found.

 1\1\GINC-FN10\FOpt\RB3LYP\6-31G(d,p)\C1H4N2\LIUJ201281\23-Jul-2021\0\\
 #P OPT Freq B3LYP/6-31G**\\Frag_78\\0,1\C,1.1032,0.1428,0.\N,-0.1918,-
 0.5452,0.\N,-1.2272,0.1316,0.\H,1.6636,-0.1826,-0.8823\H,0.999,1.2401,
 0.\H,1.6636,-0.1825,0.8824\H,-1.0125,1.1635,0.\\Version=ES64L-G09RevD.
 01\State=1-A\HF=-149.9581266\RMSD=3.222e-09\RMSF=2.161e-05\Dipole=0.89
 60969,0.752774,0.0000085\Quadrupole=-0.7472455,-0.0172266,0.7644721,-1
 .1953158,0.0000157,0.0000719\PG=C01 [X(C1H4N2)]\\@

 Normal termination of Gaussian 09 at Fri Jul 23 05:32:40 2021.

 ----------------------------------------------------------------------
 #P Geom=AllCheck Guess=TCheck SCRF=Check GenChk RB3LYP/6-31G(d,p) Freq
 ----------------------------------------------------------------------

 Structure from the checkpoint file:  "/vol2/users/liuj201281/HOFBenchmark/IsodesmicSplit/Sample60/Ring26/Running/Gau-240588.chk"
 -------
 Frag_78
 -------
 Charge =  0 Multiplicity = 1

                         Standard orientation:
 ---------------------------------------------------------------------
 Center     Atomic      Atomic             Coordinates (Angstroms)
 Number     Number       Type             X           Y           Z
 ---------------------------------------------------------------------
      1          6           0        1.103205    0.142788   -0.000004
      2          7           0       -0.191800   -0.545203   -0.000004
      3          7           0       -1.227195    0.131605   -0.000004
      4          1           0        1.663603   -0.182616   -0.882304
      5          1           0        0.999013    1.240089   -0.000004
      6          1           0        1.663603   -0.182516    0.882396
      7          1           0       -1.012487    1.163503   -0.000004
 ---------------------------------------------------------------------

 SCF Done:  E(RB3LYP) =  -149.958126629     A.U. after    1 cycles

 The electronic state is 1-A.
 Alpha  occ. eigenvalues --  -14.39556 -14.38339 -10.22536  -1.03427  -0.76715
 Alpha  occ. eigenvalues --   -0.62758  -0.51300  -0.46190  -0.45644  -0.35856
 Alpha  occ. eigenvalues --   -0.34678  -0.23827
 Alpha virt. eigenvalues --   -0.04238   0.07659   0.12226   0.15146   0.15175
 Alpha virt. eigenvalues --    0.19362   0.41153   0.51444   0.52058   0.54374
 Alpha virt. eigenvalues --    0.68302   0.69372   0.70693   0.75103   0.75193

 Mulliken charges:
               1
     1  C   -0.204806
     2  N   -0.145426
     3  N   -0.232124
     4  H    0.145679
     5  H    0.092446
     6  H    0.145670
     7  H    0.198561
 Sum of Mulliken charges =   0.00000

 Dipole moment (field-independent basis, Debye):
    X=              2.2777    Y=              1.9133    Z=              0.0000  Tot=              2.9747
 Quadrupole moment (field-independent basis, Debye-Ang):
   XX=            -20.0436   YY=            -19.0616   ZZ=            -18.0102
   XY=             -1.6077   XZ=              0.0000   YZ=              0.0001

  Exact polarizability:  32.656  -3.420  25.987   0.001   0.000  17.215
 Approx polarizability:  48.398  -8.352  39.942   0.001   0.000  23.682

                      1                      2                      3
                      A                      A                      A
 Frequencies --    218.1581               581.6486               870.5073
 Red. masses --      1.2796                 2.4109                 1.1335
 Frc consts  --      0.0359                 0.4806                 0.5061
 IR Inten    --      7.0605                 0.7020                41.1593

                      4                      5                      6
                      A                      A                      A
 Frequencies --    911.0280              1151.3564              1161.2415
 Red. masses --      4.5510                 1.4809                 1.4850
 Frc consts  --      2.2255                 1.1566                 1.1799
 IR Inten    --      7.7023                 2.3408                10.4991

                      7                      8                      9
                      A                      A                      A
 Frequencies --   1418.2036              1470.3471              1475.5053
 Red. masses --      1.1995                 1.0441                 1.1300
 Frc consts  --      1.4214                 1.3300                 1.4495
 IR Inten    --      7.9860                 4.4891                 5.1378

                     10                     11                     12
                      A                      A                      A
 Frequencies --   1507.2331              1696.1266              2981.1492
 Red. masses --      1.1586                10.0556                 1.0453
 Frc consts  --      1.5508                17.0441                 5.4734
 IR Inten    --     82.5340                22.9450                39.7131

                     13                     14                     15
                      A                      A                      A
 Frequencies --   3002.0990              3101.2326              3125.3813
 Red. masses --      1.0696                 1.0891                 1.1024
 Frc consts  --      5.6796                 6.1713                 6.3446
 IR Inten    --    102.3213                13.1996                 8.1127

 - Thermochemistry -
 -------------------
 Temperature   298.150 Kelvin.  Pressure   1.00000 Atm.
 Atom     1 has atomic number  6 and mass  12.00000

 Molecular mass:    44.03745 amu.
 Principal axes and moments of inertia in atomic units:
                           1         2         3
     Eigenvalues --    32.50720 161.24588 182.54517
           X            0.99994  -0.01084   0.00000
           Y            0.01084   0.99994  -0.00001
           Z            0.00000   0.00001   1.00000
 This molecule is an asymmetric top.
 Rotational symmetry number  1.
 Rotational temperatures (Kelvin)      2.66445     0.53715     0.47448
 Rotational constants (GHZ):          55.51820    11.19248     9.88655
 Zero-point vibrational energy     147566.7 (Joules/Mol)
                                   35.26928 (Kcal/Mol)
 Warning -- explicit consideration of   2 degrees of freedom as
           vibrations may cause significant error
 Vibrational temperatures:    313.88   836.86  1252.46  1310.76  1656.54
          (Kelvin)           1670.77  2040.48  2115.50  2122.92  2168.57
                             2440.34  4289.20  4319.35  4461.98  4496.72

 Zero-point correction=                           0.056205 (Hartree/Particle)
 Thermal correction to Energy=                    0.059918
 Thermal correction to Enthalpy=                  0.060862
 Thermal correction to Gibbs Free Energy=         0.031563
 Sum of electronic and zero-point Energies=           -149.901921
 Sum of electronic and thermal Energies=              -149.898209
 Sum of electronic and thermal Enthalpies=            -149.897265
 Sum of electronic and thermal Free Energies=         -149.926564

                     E (Thermal)             CV                S
                      KCal/Mol        Cal/Mol-Kelvin    Cal/Mol-Kelvin
 Total                   37.599             10.718             61.666
 Electronic               0.000              0.000              0.000
 Translational            0.889              2.981             37.273
 Rotational               0.889              2.981             21.486
 Vibrational             35.822              4.757              2.906
 Vibration     1          0.646              1.813              1.974
 Vibration     2          0.938              1.071              0.482

 Optimization completed.
    -- Stationary point found.

 1\1\GINC-FN10\Freq\RB3LYP\6-31G(d,p)\C1H4N2\LIUJ201281\23-Jul-2021\0\\
 #P Geom=AllCheck Guess=TCheck SCRF=Check GenChk RB3LYP/6-31G(d,p) Freq
 \\Frag_78\\0,1\C,1.1032,0.1428,0.\N,-0.1918,-0.5452,0.\N,-1.2272,0.131
 6,0.\H,1.6636,-0.1826,-0.8823\H,0.999,1.2401,0.\H,1.6636,-0.1825,0.882
 4\H,-1.0125,1.1635,0.\\Version=ES64L-G09RevD.01\State=1-A\HF=-149.9581
 266\RMSD=2.656e-09\RMSF=2.160e-05\ZeroPoint=0.0562052\Thermal=0.059917
 8\Dipole=0.8960971,0.7527744,0.0000085\DipoleDeriv=-0.0700301,-0.01046
 01,0.0000125,-0.101828,0.3511761,-0.0000099,-0.000004,-0.0000073,0.268

 Normal termination of Gaussian 09 at Fri Jul 23 05:33:07 2021.
