 Gaussian 09, Revision D.01,
 Gaussian 09:  ES64L-G09RevD.01 24-Apr-2013

 -------------------------
 #P OPT Freq B3LYP/6-31G**
 -------------------------

 --------
 Frag_114
 --------
 Symbolic Z-matrix:
 Charge =  0 Multiplicity = 1

 SCF Done:  E(RB3LYP) =  -196.544382607     A.U. after   12 cycles
 Optimization completed.
    -- Stationary point found.
 Normal termination of Gaussian 09 at Fri Jul 23 18:31:26 2021.

 ----------------------------------------------------------------------
 #P Geom=AllCheck Guess=TCheck SCRF=Check GenChk RB3LYP/6-31G(d,p) Freq
 ----------------------------------------------------------------------

 Structure from the checkpoint file:  "/vol2/users/liuj201281/HOFBenchmark/IsodesmicSplit/Sample60/Ring26/Running/Gau-476085.chk"
 --------
 Frag_114
 --------
 Charge =  0 Multiplicity = 1

                         Standard orientation:
 ---------------------------------------------------------------------
 Center     Atomic      Atomic             Coordinates (Angstroms)
 Number     Number       Type             X           Y           Z
 ---------------------------------------------------------------------
      1          6           0        0.114881    1.925829    0.000000
      2          6           0       -0.420231    0.501135    0.000000
      3          6           0        0.078801   -0.499784    1.081900
      4          6           0        0.078801   -1.612286    0.000000
      5          6           0        0.078801   -0.499784   -1.081900
      6          1           0       -0.221262    2.479318    0.884600
      7          1           0        1.211296    1.932211    0.000000
      8          1           0       -0.221262    2.479318   -0.884600
      9          1           0       -1.517752    0.517340    0.000000
     10          1           0        1.097061   -0.254141    1.404800
     11          1           0       -0.540884   -0.645108    1.972200
     12          1           0       -0.859325   -2.176672    0.000000
     13          1           0        0.909633   -2.323675    0.000000
     14          1           0       -0.540884   -0.645108   -1.972200
     15          1           0        1.097061   -0.254141   -1.404800
 ---------------------------------------------------------------------

 SCF Done:  E(RB3LYP) =  -196.544382607     A.U. after    1 cycles

 The electronic state is 1-A'.
 Alpha  occ. eigenvalues --  -10.18194 -10.17558 -10.17359 -10.17357 -10.16963
 Alpha  occ. eigenvalues --   -0.83623  -0.71702  -0.64854  -0.60861  -0.53704
 Alpha  occ. eigenvalues --   -0.47337  -0.44737  -0.40760  -0.40261  -0.37714
 Alpha  occ. eigenvalues --   -0.35299  -0.32658  -0.30871  -0.29251  -0.29016
 Alpha virt. eigenvalues --    0.09400   0.10935   0.11843   0.14200   0.16734
 Alpha virt. eigenvalues --    0.17213   0.17546   0.19149   0.19447   0.19635
 Alpha virt. eigenvalues --    0.21353   0.23086   0.23821   0.28441   0.35329

 Mulliken charges:
               1
     1  C   -0.316555
     2  C   -0.051030
     3  C   -0.183879
     4  C   -0.197265
     5  C   -0.183879
     6  H    0.101025
     7  H    0.096215
     8  H    0.101025
     9  H    0.084307
    10  H    0.092126
    11  H    0.089046
    12  H    0.097570
    13  H    0.090123
    14  H    0.089046
    15  H    0.092126
 Sum of Mulliken charges =   0.00000

 Dipole moment (field-independent basis, Debye):
    X=             -0.0711    Y=              0.0515    Z=              0.0000  Tot=              0.0878
 Quadrupole moment (field-independent basis, Debye-Ang):
   XX=            -32.3884   YY=            -33.6699   ZZ=            -33.4323
   XY=              0.0463   XZ=              0.0000   YZ=              0.0000

  Exact polarizability:  48.011  -0.194  56.440   0.000   0.000  51.305
 Approx polarizability:  70.129  -0.040  69.261   0.000   0.000  69.400

                      1                      2                      3
                     A'                     A"                     A"
 Frequencies --    151.9395               234.0302               311.4996
 Red. masses --      1.8389                 1.0531                 2.1237
 Frc consts  --      0.0250                 0.0340                 0.1214
 IR Inten    --      0.0254                 0.0269                 0.0568

                      4                      5                      6
                     A'                     A'                     A'
 Frequencies --    408.2662               607.6267               755.3069
 Red. masses --      1.8769                 2.2469                 1.5486
 Frc consts  --      0.1843                 0.4888                 0.5205
 IR Inten    --      0.0299                 2.1918                 0.0873

                      7                      8                      9
                     A"                     A'                     A"
 Frequencies --    782.1748               894.6249               896.8468
 Red. masses --      1.2106                 1.9841                 1.9802
 Frc consts  --      0.4364                 0.9356                 0.9384
 IR Inten    --      1.1265                 1.0919                 0.0242

                     10                     11                     12
                     A"                     A'                     A"
 Frequencies --    936.4857               936.7301               981.6683
 Red. masses --      2.3592                 1.3642                 1.0351
 Frc consts  --      1.2190                 0.7053                 0.5877
 IR Inten    --      1.1844                 0.8396                 0.5628

                     13                     14                     15
                     A'                     A'                     A"
 Frequencies --    982.0823              1119.8574              1137.4335
 Red. masses --      2.2707                 2.6062                 1.6353
 Frc consts  --      1.2904                 1.9257                 1.2465
 IR Inten    --      0.8114                 0.4649                 1.5212

                     16                     17                     18
                     A'                     A"                     A'
 Frequencies --   1192.6417              1217.0782              1258.9680
 Red. masses --      2.1042                 1.3700                 1.3330
 Frc consts  --      1.7635                 1.1957                 1.2448
 IR Inten    --      0.3011                 0.0219                 0.1346

                     19                     20                     21
                     A"                     A"                     A'
 Frequencies --   1262.5738              1269.9465              1288.7158
 Red. masses --      1.2481                 1.2596                 1.4620
 Frc consts  --      1.1722                 1.1969                 1.4306
 IR Inten    --      0.0928                 0.5428                 0.5301

                     22                     23                     24
                     A"                     A'                     A'
 Frequencies --   1306.7846              1383.4770              1422.4201
 Red. masses --      1.4423                 1.4518                 1.3010
 Frc consts  --      1.4511                 1.6372                 1.5509
 IR Inten    --      0.1451                 6.8661                 2.4129

                     25                     26                     27
                     A"                     A'                     A'
 Frequencies --   1492.8164              1499.7895              1509.6407
 Red. masses --      1.0894                 1.0811                 1.0481
 Frc consts  --      1.4304                 1.4328                 1.4073
 IR Inten    --      0.2877                 1.1514                 6.2629

                     28                     29                     30
                     A"                     A'                     A'
 Frequencies --   1510.1054              1527.0948              3028.6753
 Red. masses --      1.0508                 1.1383                 1.0357
 Frc consts  --      1.4119                 1.5641                 5.5972
 IR Inten    --      1.9581                 1.4939                29.4458

                     31                     32                     33
                     A'                     A"                     A'
 Frequencies --   3037.4552              3049.1332              3054.3633
 Red. masses --      1.0845                 1.0585                 1.0597
 Frc consts  --      5.8952                 5.7980                 5.8250
 IR Inten    --     12.1953                66.0325                21.0845

                     34                     35                     36
                     A'                     A'                     A"
 Frequencies --   3063.2313              3096.4737              3098.3349
 Red. masses --      1.0622                 1.1036                 1.1018
 Frc consts  --      5.8725                 6.2343                 6.2320
 IR Inten    --     33.3679                24.8861                35.8889

                     37                     38                     39
                     A'                     A"                     A'
 Frequencies --   3102.9766              3104.6696              3121.5402
 Red. masses --      1.1043                 1.1075                 1.1077
 Frc consts  --      6.2647                 6.2897                 6.3591
 IR Inten    --     24.5749                23.3862                91.2479

 - Thermochemistry -
 -------------------
 Temperature   298.150 Kelvin.  Pressure   1.00000 Atm.
 Atom     1 has atomic number  6 and mass  12.00000

 Molecular mass:    70.07825 amu.
 Principal axes and moments of inertia in atomic units:
                           1         2         3
     Eigenvalues --   187.26508 440.27766 549.32020
           X           -0.01964   0.00000   0.99981
           Y            0.99981   0.00000   0.01964
           Z            0.00000   1.00000   0.00000
 This molecule is an asymmetric top.
 Rotational symmetry number  1.
 Rotational temperatures (Kelvin)      0.46252     0.19673     0.15767
 Rotational constants (GHZ):           9.63736     4.09910     3.28541
 Zero-point vibrational energy     365073.2 (Joules/Mol)
                                   87.25460 (Kcal/Mol)
 Warning -- explicit consideration of   5 degrees of freedom as
           vibrations may cause significant error
 Vibrational temperatures:    218.61   336.72   448.18   587.40   874.24
          (Kelvin)           1086.72  1125.37  1287.16  1290.36  1347.39
                             1347.74  1412.40  1413.00  1611.22  1636.51
                             1715.94  1751.10  1811.37  1816.56  1827.17
                             1854.17  1880.17  1990.51  2046.54  2147.83
                             2157.86  2172.03  2172.70  2197.15  4357.58
                             4370.22  4387.02  4394.54  4407.30  4455.13
                             4457.81  4464.49  4466.92  4491.19

 Zero-point correction=                           0.139049 (Hartree/Particle)
 Thermal correction to Energy=                    0.144530
 Thermal correction to Enthalpy=                  0.145475
 Thermal correction to Gibbs Free Energy=         0.110872
 Sum of electronic and zero-point Energies=           -196.405334
 Sum of electronic and thermal Energies=              -196.399852
 Sum of electronic and thermal Enthalpies=            -196.398908
 Sum of electronic and thermal Free Energies=         -196.433511

                     E (Thermal)             CV                S
                      KCal/Mol        Cal/Mol-Kelvin    Cal/Mol-Kelvin
 Total                   90.694             20.180             72.828
 Electronic               0.000              0.000              0.000
 Translational            0.889              2.981             38.658
 Rotational               0.889              2.981             25.319
 Vibrational             88.917             14.219              8.851
 Vibration     1          0.619              1.901              2.648
 Vibration     2          0.654              1.789              1.848
 Vibration     3          0.700              1.652              1.354
 Vibration     4          0.773              1.452              0.933
 Vibration     5          0.966              1.016              0.437

 Optimization completed.
    -- Stationary point found.
 Normal termination of Gaussian 09 at Fri Jul 23 18:31:37 2021.
