 Gaussian 09, Revision E.01,
 Gaussian 09:  ES64L-G09RevE.01 30-Nov-2015

 ----------------------------
 #P OPT Freq B3LYP/6-31G(d,p)
 ----------------------------

 --------
 Frag_567
 --------
 Symbolic Z-matrix:
 Charge =  0 Multiplicity = 1

 SCF Done:  E(RB3LYP) =  -318.719171527     A.U. after   15 cycles
 SCF Done:  E(RB3LYP) =  -318.719283913     A.U. after   12 cycles
 SCF Done:  E(RB3LYP) =  -318.719255865     A.U. after   12 cycles
 SCF Done:  E(RB3LYP) =  -318.719307097     A.U. after   11 cycles
 SCF Done:  E(RB3LYP) =  -318.719307799     A.U. after    9 cycles
 SCF Done:  E(RB3LYP) =  -318.719309389     A.U. after    9 cycles
 Optimization completed.
    -- Stationary point found.
 Normal termination of Gaussian 09 at Thu Sep  8 15:21:21 2022.

 ----------------------------------------------------------------------
 #P Geom=AllCheck Guess=TCheck SCRF=Check GenChk RB3LYP/6-31G(d,p) Freq
 ----------------------------------------------------------------------

 Structure from the checkpoint file:  "B3LYP6-31Gdp.Frag_567.chk"
 --------
 Frag_567
 --------
 Charge =  0 Multiplicity = 1

                         Standard orientation:
 ---------------------------------------------------------------------
 Center     Atomic      Atomic             Coordinates (Angstroms)
 Number     Number       Type             X           Y           Z
 ---------------------------------------------------------------------
      1          7           0       -1.433964   -1.192223   -0.190144
      2          6           0       -0.760962   -0.127450   -0.001625
      3          7           0       -1.370720    1.122661    0.098694
      4          6           0        0.766707   -0.130141    0.030247
      5          7           0        1.353627    1.091981   -0.149635
      6          8           0        1.387898   -1.165206    0.213159
      7          1           0       -0.776529   -1.969408   -0.301440
      8          1           0       -1.003378    1.715257    0.833986
      9          1           0       -2.380772    1.042452    0.140477
     10          1           0        2.357136    1.095317   -0.267236
     11          1           0        0.823289    1.826630   -0.595189
 ---------------------------------------------------------------------

 SCF Done:  E(RB3LYP) =  -318.719309389     A.U. after    1 cycles

 The electronic state is 1-A.
 Alpha  occ. eigenvalues --  -19.13038 -14.37228 -14.35817 -14.30921 -10.30375
 Alpha  occ. eigenvalues --  -10.26591  -1.04907  -0.95298  -0.91724  -0.85842
 Alpha  occ. eigenvalues --   -0.66852  -0.57558  -0.56846  -0.51748  -0.49271
 Alpha  occ. eigenvalues --   -0.45899  -0.42799  -0.42019  -0.36011  -0.28991
 Alpha  occ. eigenvalues --   -0.28216  -0.26206  -0.25586
 Alpha virt. eigenvalues --   -0.03434   0.05780   0.09595   0.09997   0.12592
 Alpha virt. eigenvalues --    0.13353   0.15501   0.25863   0.27901   0.31246
 Alpha virt. eigenvalues --    0.38313   0.41694   0.53763   0.54574   0.58810

 Mulliken charges:
               1
     1  N   -0.546447
     2  C    0.395436
     3  N   -0.637866
     4  C    0.544315
     5  N   -0.620614
     6  O   -0.496585
     7  H    0.252303
     8  H    0.266560
     9  H    0.277251
    10  H    0.282336
    11  H    0.283311
 Sum of Mulliken charges =   0.00000

 Dipole moment (field-independent basis, Debye):
    X=              0.5110    Y=              4.2695    Z=              0.0099  Tot=              4.3000
 Quadrupole moment (field-independent basis, Debye-Ang):
   XX=            -34.8145   YY=            -32.9215   ZZ=            -34.5197
   XY=              0.8791   XZ=             -3.6987   YZ=              1.2922

  Exact polarizability:  48.330   2.786  56.451   0.705   1.179  22.004
 Approx polarizability:  66.497   5.200  98.027   3.411   1.343  31.933

                      1                      2                      3
                      A                      A                      A
 Frequencies --    102.1562               278.0574               327.6466
 Red. masses --      5.8014                 4.1659                 1.6157
 Frc consts  --      0.0357                 0.1898                 0.1022
 IR Inten    --      0.7147                 8.5269                39.9191

                      4                      5                      6
                      A                      A                      A
 Frequencies --    414.0021               432.0524               524.4880
 Red. masses --      3.6690                 1.6614                 2.1995
 Frc consts  --      0.3705                 0.1827                 0.3565
 IR Inten    --      6.7353                39.8435                39.9114

                      7                      8                      9
                      A                      A                      A
 Frequencies --    558.6327               607.4298               620.1099
 Red. masses --      1.6480                 1.9006                 1.5641
 Frc consts  --      0.3030                 0.4132                 0.3544
 IR Inten    --    209.1918                 9.6578                32.6606

                     10                     11                     12
                      A                      A                      A
 Frequencies --    747.0517               761.3973               815.3896
 Red. masses --      1.5465                 3.1254                 4.6055
 Frc consts  --      0.5085                 1.0675                 1.8041
 IR Inten    --    225.4622                 9.4306                55.8487

                     13                     14                     15
                      A                      A                      A
 Frequencies --    927.7635              1103.9727              1123.8968
 Red. masses --      1.1937                 1.7637                 1.9454
 Frc consts  --      0.6054                 1.2664                 1.4478
 IR Inten    --     30.9725                14.9687                38.9658

                     16                     17                     18
                      A                      A                      A
 Frequencies --   1177.8866              1320.7834              1451.1131
 Red. masses --      1.3134                 2.6550                 2.7862
 Frc consts  --      1.0737                 2.7289                 3.4568
 IR Inten    --     51.0196               193.4870                26.5882

                     19                     20                     21
                      A                      A                      A
 Frequencies --   1612.2048              1633.8204              1743.5455
 Red. masses --      1.2744                 1.1840                 6.6364
 Frc consts  --      1.9517                 1.8622                11.8864
 IR Inten    --    146.9340                35.3594               177.2245

                     22                     23                     24
                      A                      A                      A
 Frequencies --   1811.2441              3469.2816              3539.1087
 Red. masses --      9.3810                 1.0731                 1.0473
 Frc consts  --     18.1323                 7.6099                 7.7288
 IR Inten    --    179.9184                 8.2985                13.9365

                     25                     26                     27
                      A                      A                      A
 Frequencies --   3579.0072              3648.3372              3712.6042
 Red. masses --      1.0452                 1.0982                 1.1041
 Frc consts  --      7.8883                 8.6120                 8.9662
 IR Inten    --     31.6791                19.2281                46.8358

 - Thermochemistry -
 -------------------
 Temperature   298.150 Kelvin.  Pressure   1.00000 Atm.
 Atom     1 has atomic number  7 and mass  14.00307

 Molecular mass:    87.04326 amu.
 Principal axes and moments of inertia in atomic units:
                           1         2         3
     Eigenvalues --   327.17802 507.61556 814.09621
           X            0.99952   0.02703  -0.01486
           Y           -0.02690   0.99960   0.00879
           Z            0.01509  -0.00839   0.99985
 This molecule is an asymmetric top.
 Rotational symmetry number  1.
 Rotational temperatures (Kelvin)      0.26473     0.17063     0.10639
 Rotational constants (GHZ):           5.51608     3.55533     2.21686
 Zero-point vibrational energy     227547.6 (Joules/Mol)
                                   54.38517 (Kcal/Mol)
 Warning -- explicit consideration of   9 degrees of freedom as
           vibrations may cause significant error
 Vibrational temperatures:    146.98   400.06   471.41   595.66   621.63
          (Kelvin)            754.62   803.75   873.95   892.20  1074.84
                             1095.48  1173.16  1334.84  1588.37  1617.03
                             1694.71  1900.31  2087.83  2319.60  2350.70
                             2508.57  2605.97  4991.52  5091.98  5149.39
                             5249.14  5341.60

 Zero-point correction=                           0.086668 (Hartree/Particle)
 Thermal correction to Energy=                    0.092737
 Thermal correction to Enthalpy=                  0.093681
 Thermal correction to Gibbs Free Energy=         0.057227
 Sum of electronic and zero-point Energies=           -318.632641
 Sum of electronic and thermal Energies=              -318.626573
 Sum of electronic and thermal Enthalpies=            -318.625628
 Sum of electronic and thermal Free Energies=         -318.662083

                     E (Thermal)             CV                S
                      KCal/Mol        Cal/Mol-Kelvin    Cal/Mol-Kelvin
 Total                   58.193             22.089             76.724
 Electronic               0.000              0.000              0.000
 Translational            0.889              2.981             39.304
 Rotational               0.889              2.981             26.405
 Vibrational             56.416             16.127             11.014
 Vibration     1          0.604              1.947              3.413
 Vibration     2          0.679              1.714              1.546
 Vibration     3          0.711              1.620              1.272
 Vibration     4          0.778              1.440              0.913
 Vibration     5          0.793              1.400              0.852
 Vibration     6          0.879              1.196              0.600
 Vibration     7          0.914              1.121              0.527
 Vibration     8          0.966              1.016              0.437
 Vibration     9          0.980              0.989              0.416

 Normal termination of Gaussian 09 at Thu Sep  8 15:21:30 2022.
