 Gaussian 09, Revision E.01,
 Gaussian 09:  ES64L-G09RevE.01 30-Nov-2015

 ----------------------------
 #P OPT Freq B3LYP/6-31G(d,p)
 ----------------------------

 --------
 Frag_943
 --------
 Symbolic Z-matrix:
 Charge =  0 Multiplicity = 1

 SCF Done:  E(RB3LYP) =  -319.861935674     A.U. after   14 cycles
 SCF Done:  E(RB3LYP) =  -319.861998269     A.U. after   11 cycles
 SCF Done:  E(RB3LYP) =  -319.861726747     A.U. after   12 cycles
 SCF Done:  E(RB3LYP) =  -319.862006013     A.U. after    7 cycles
 SCF Done:  E(RB3LYP) =  -319.862009729     A.U. after    9 cycles
 SCF Done:  E(RB3LYP) =  -319.862013518     A.U. after    9 cycles
 SCF Done:  E(RB3LYP) =  -319.862014797     A.U. after    9 cycles
 SCF Done:  E(RB3LYP) =  -319.862015335     A.U. after    9 cycles
 SCF Done:  E(RB3LYP) =  -319.862015280     A.U. after    8 cycles
 Optimization completed.
    -- Stationary point found.
 Normal termination of Gaussian 09 at Thu Sep  8 15:17:15 2022.

 ----------------------------------------------------------------------
 #P Geom=AllCheck Guess=TCheck SCRF=Check GenChk RB3LYP/6-31G(d,p) Freq
 ----------------------------------------------------------------------

 Structure from the checkpoint file:  "B3LYP6-31Gdp.Frag_943.chk"
 --------
 Frag_943
 --------
 Charge =  0 Multiplicity = 1

                         Standard orientation:
 ---------------------------------------------------------------------
 Center     Atomic      Atomic             Coordinates (Angstroms)
 Number     Number       Type             X           Y           Z
 ---------------------------------------------------------------------
      1          6           0        1.068243   -1.049788   -0.747825
      2          6           0        0.341349    0.045919    0.028617
      3          7           0        0.125264    1.216352   -0.767918
      4          8           0        1.012305    0.383683    1.226182
      5          7           0       -0.981483   -0.558601    0.507146
      6          7           0       -2.020785   -0.193312   -0.045646
      7          1           0        0.579621   -1.243603   -1.707446
      8          1           0        1.066109   -1.974556   -0.166289
      9          1           0        2.106237   -0.749493   -0.919097
     10          1           0        0.131195    2.041473   -0.175654
     11          1           0        0.818435    1.327154   -1.498366
     12          1           0        0.662570   -0.214308    1.906532
     13          1           0       -1.781128    0.516010   -0.788969
 ---------------------------------------------------------------------

 SCF Done:  E(RB3LYP) =  -319.862015280     A.U. after    1 cycles

 The electronic state is 1-A.
 Alpha  occ. eigenvalues --  -19.15677 -14.38256 -14.37099 -14.34461 -10.29848
 Alpha  occ. eigenvalues --  -10.19185  -1.05883  -1.01153  -0.90123  -0.75541
 Alpha  occ. eigenvalues --   -0.67031  -0.60035  -0.55248  -0.52316  -0.49433
 Alpha  occ. eigenvalues --   -0.43214  -0.42144  -0.39701  -0.39426  -0.36025
 Alpha  occ. eigenvalues --   -0.34963  -0.30622  -0.27687  -0.22909
 Alpha virt. eigenvalues --   -0.03716   0.07000   0.09993   0.12497   0.14276
 Alpha virt. eigenvalues --    0.14926   0.15624   0.17468   0.21796   0.22432
 Alpha virt. eigenvalues --    0.24525   0.28617   0.40677   0.53506   0.54844

 Mulliken charges:
               1
     1  C   -0.318999
     2  C    0.470142
     3  N   -0.612296
     4  O   -0.544724
     5  N   -0.211151
     6  N   -0.233323
     7  H    0.117004
     8  H    0.128059
     9  H    0.120729
    10  H    0.267944
    11  H    0.261723
    12  H    0.317001
    13  H    0.237890
 Sum of Mulliken charges =  -0.00000

 Dipole moment (field-independent basis, Debye):
    X=              2.2794    Y=              0.9975    Z=             -1.4191  Tot=              2.8644
 Quadrupole moment (field-independent basis, Debye-Ang):
   XX=            -42.4719   YY=            -33.7163   ZZ=            -33.4079
   XY=             -2.5850   XZ=             -0.8583   YZ=             -1.1788

  Exact polarizability:  50.988  -1.062  41.500   1.615  -3.738  43.175
 Approx polarizability:  75.917  -1.214  57.892   7.070  -7.666  63.785

                      1                      2                      3
                      A                      A                      A
 Frequencies --    138.1924               240.2096               283.0411
 Red. masses --      3.6929                 1.0336                 1.3294
 Frc consts  --      0.0416                 0.0351                 0.0627
 IR Inten    --      2.1657                 0.6436                 7.9053

                      4                      5                      6
                      A                      A                      A
 Frequencies --    315.3608               344.0996               396.9321
 Red. masses --      1.4325                 3.5623                 3.1222
 Frc consts  --      0.0839                 0.2485                 0.2898
 IR Inten    --     60.8548                 3.3758                 3.0299

                      7                      8                      9
                      A                      A                      A
 Frequencies --    397.7592               487.7674               511.8523
 Red. masses --      1.8242                 2.3329                 3.4713
 Frc consts  --      0.1700                 0.3270                 0.5358
 IR Inten    --     52.7231                38.5897                43.0202

                     10                     11                     12
                      A                      A                      A
 Frequencies --    634.7928               733.5834               804.5078
 Red. masses --      2.9799                 3.6378                 2.7891
 Frc consts  --      0.7075                 1.1534                 1.0636
 IR Inten    --     35.9236                13.5574                65.8987

                     13                     14                     15
                      A                      A                      A
 Frequencies --    893.8999               991.1563              1019.3720
 Red. masses --      1.7335                 1.6136                 1.8432
 Frc consts  --      0.8161                 0.9340                 1.1285
 IR Inten    --     34.3672                13.0591                55.7988

                     16                     17                     18
                      A                      A                      A
 Frequencies --   1067.8397              1150.2141              1220.0095
 Red. masses --      1.3491                 1.6002                 2.2737
 Frc consts  --      0.9064                 1.2473                 1.9939
 IR Inten    --     39.4620                 9.9405               174.1351

                     19                     20                     21
                      A                      A                      A
 Frequencies --   1339.6934              1383.1123              1418.2578
 Red. masses --      2.0043                 1.7962                 1.3587
 Frc consts  --      2.1195                 2.0245                 1.6102
 IR Inten    --     36.0803                56.4514                20.0018

                     22                     23                     24
                      A                      A                      A
 Frequencies --   1499.3243              1505.6870              1510.8272
 Red. masses --      1.0848                 1.0501                 1.2176
 Frc consts  --      1.4368                 1.4026                 1.6376
 IR Inten    --      4.0868                 3.6204               107.4686

                     25                     26                     27
                      A                      A                      A
 Frequencies --   1659.9184              1706.6521              3009.7829
 Red. masses --      1.1188                10.4227                 1.0665
 Frc consts  --      1.8162                17.8863                 5.6922
 IR Inten    --     42.6979                17.0034                25.0759

                     28                     29                     30
                      A                      A                      A
 Frequencies --   3055.1482              3134.1018              3146.2102
 Red. masses --      1.0351                 1.1042                 1.1023
 Frc consts  --      5.6924                 6.3901                 6.4288
 IR Inten    --      9.8661                15.4202                11.1881

                     31                     32                     33
                      A                      A                      A
 Frequencies --   3535.2351              3631.3167              3750.9338
 Red. masses --      1.0496                 1.0948                 1.0648
 Frc consts  --      7.7286                 8.5061                 8.8271
 IR Inten    --      8.4113                12.0586                29.7389

 - Thermochemistry -
 -------------------
 Temperature   298.150 Kelvin.  Pressure   1.00000 Atm.
 Atom     1 has atomic number  6 and mass  12.00000

 Molecular mass:    89.05891 amu.
 Principal axes and moments of inertia in atomic units:
                           1         2         3
     Eigenvalues --   379.09735 591.74107 593.38054
           X            0.99718  -0.05833  -0.04720
           Y            0.06883   0.96159   0.26573
           Z            0.02989  -0.26823   0.96289
 This molecule is an asymmetric top.
 Rotational symmetry number  1.
 Rotational temperatures (Kelvin)      0.22847     0.14637     0.14597
 Rotational constants (GHZ):           4.76063     3.04988     3.04146
 Zero-point vibrational energy     280624.7 (Joules/Mol)
                                   67.07092 (Kcal/Mol)
 Warning -- explicit consideration of   9 degrees of freedom as
           vibrations may cause significant error
 Vibrational temperatures:    198.83   345.61   407.23   453.73   495.08
          (Kelvin)            571.10   572.29   701.79   736.44   913.32
                             1055.46  1157.51  1286.12  1426.05  1466.65
                             1536.38  1654.90  1755.32  1927.52  1989.99
                             2040.55  2157.19  2166.35  2173.74  2388.25
                             2455.49  4330.40  4395.67  4509.27  4526.69
                             5086.41  5224.65  5396.75

 Zero-point correction=                           0.106884 (Hartree/Particle)
 Thermal correction to Energy=                    0.113719
 Thermal correction to Enthalpy=                  0.114663
 Thermal correction to Gibbs Free Energy=         0.077054
 Sum of electronic and zero-point Energies=           -319.755131
 Sum of electronic and thermal Energies=              -319.748296
 Sum of electronic and thermal Enthalpies=            -319.747352
 Sum of electronic and thermal Free Energies=         -319.784961

                     E (Thermal)             CV                S
                      KCal/Mol        Cal/Mol-Kelvin    Cal/Mol-Kelvin
 Total                   71.360             25.047             79.155
 Electronic               0.000              0.000              0.000
 Translational            0.889              2.981             39.373
 Rotational               0.889              2.981             26.390
 Vibrational             69.582             19.085             13.393
 Vibration     1          0.614              1.915              2.829
 Vibration     2          0.657              1.779              1.801
 Vibration     3          0.682              1.705              1.515
 Vibration     4          0.703              1.644              1.334
 Vibration     5          0.723              1.587              1.193
 Vibration     6          0.763              1.477              0.974
 Vibration     7          0.764              1.475              0.971
 Vibration     8          0.844              1.277              0.689
 Vibration     9          0.867              1.224              0.629

 Optimization completed.
    -- Stationary point found.
 Normal termination of Gaussian 09 at Thu Sep  8 15:17:26 2022.
