 Gaussian 09, Revision E.01,
 Gaussian 09:  ES64L-G09RevE.01 30-Nov-2015

 ----------------------------
 #P OPT Freq B3LYP/6-31G(d,p)
 ----------------------------

 --------
 Frag_784
 --------
 Symbolic Z-matrix:
 Charge =  0 Multiplicity = 1

 SCF Done:  E(RB3LYP) =  -344.727180561     A.U. after   13 cycles
 SCF Done:  E(RB3LYP) =  -344.727261236     A.U. after   11 cycles
 SCF Done:  E(RB3LYP) =  -344.727284942     A.U. after   10 cycles
 SCF Done:  E(RB3LYP) =  -344.727306790     A.U. after   10 cycles
 SCF Done:  E(RB3LYP) =  -344.727313627     A.U. after    9 cycles
 SCF Done:  E(RB3LYP) =  -344.727322636     A.U. after   10 cycles
 SCF Done:  E(RB3LYP) =  -344.727324195     A.U. after    8 cycles
 SCF Done:  E(RB3LYP) =  -344.727324311     A.U. after    7 cycles
 Optimization completed.
    -- Stationary point found.
 Normal termination of Gaussian 09 at Thu Sep  8 15:02:53 2022.

 ----------------------------------------------------------------------
 #P Geom=AllCheck Guess=TCheck SCRF=Check GenChk RB3LYP/6-31G(d,p) Freq
 ----------------------------------------------------------------------

 Structure from the checkpoint file:  "B3LYP6-31Gdp.Frag_784.chk"
 --------
 Frag_784
 --------
 Charge =  0 Multiplicity = 1

                         Standard orientation:
 ---------------------------------------------------------------------
 Center     Atomic      Atomic             Coordinates (Angstroms)
 Number     Number       Type             X           Y           Z
 ---------------------------------------------------------------------
      1          6           0        0.450059    1.497924   -0.335911
      2          6           0        0.389930    0.018847    0.046984
      3          6           0        1.618794   -0.772292   -0.381818
      4          8           0        0.237091   -0.149847    1.434167
      5          8           0       -0.686978   -0.632299   -0.662928
      6          8           0       -1.936850   -0.058976   -0.176863
      7          1           0        1.273732    1.987007    0.190980
      8          1           0       -0.485807    1.996865   -0.069644
      9          1           0        0.599313    1.609335   -1.412923
     10          1           0        1.525085   -1.805787   -0.042080
     11          1           0        2.510455   -0.330728    0.069121
     12          1           0        1.723102   -0.757822   -1.468879
     13          1           0       -0.527236    0.387086    1.688082
     14          1           0       -2.277453   -0.823858    0.314810
 ---------------------------------------------------------------------

 SCF Done:  E(RB3LYP) =  -344.727324311     A.U. after    1 cycles

 The electronic state is 1-A.
 Alpha  occ. eigenvalues --  -19.20591 -19.19918 -19.15134 -10.29046 -10.18052
 Alpha  occ. eigenvalues --  -10.17777  -1.11917  -1.02915  -0.90681  -0.75588
 Alpha  occ. eigenvalues --   -0.70132  -0.58623  -0.53522  -0.50766  -0.46765
 Alpha  occ. eigenvalues --   -0.45003  -0.41220  -0.39881  -0.39231  -0.38181
 Alpha  occ. eigenvalues --   -0.36232  -0.34903  -0.30995  -0.28502  -0.26784
 Alpha virt. eigenvalues --    0.02022   0.07230   0.10632   0.12520   0.14094
 Alpha virt. eigenvalues --    0.15069   0.16576   0.19263   0.19669   0.22250
 Alpha virt. eigenvalues --    0.22756   0.25048   0.28011   0.50348   0.55293

 Mulliken charges:
               1
     1  C   -0.322176
     2  C    0.478043
     3  C   -0.324847
     4  O   -0.535792
     5  O   -0.311543
     6  O   -0.339128
     7  H    0.112195
     8  H    0.118003
     9  H    0.115387
    10  H    0.128161
    11  H    0.120724
    12  H    0.119900
    13  H    0.304927
    14  H    0.336147
 Sum of Mulliken charges =  -0.00000

 Dipole moment (field-independent basis, Debye):
    X=             -0.1553    Y=              0.3883    Z=              0.7257  Tot=              0.8376
 Quadrupole moment (field-independent basis, Debye-Ang):
   XX=            -33.1339   YY=            -35.1300   ZZ=            -37.7124
   XY=              1.9178   XZ=             -5.2744   YZ=              0.5184

  Exact polarizability:  52.443  -0.979  42.401  -3.219   0.052  40.759
 Approx polarizability:  70.778  -3.286  56.173  -3.957   1.411  58.936

                      1                      2                      3
                      A                      A                      A
 Frequencies --    141.0000               175.3225               201.4618
 Red. masses --      3.3592                 1.2529                 1.0314
 Frc consts  --      0.0393                 0.0227                 0.0247
 IR Inten    --     22.1055               145.9745                40.0122

                      4                      5                      6
                      A                      A                      A
 Frequencies --    255.1894               274.2586               342.6248
 Red. masses --      1.1441                 2.6086                 2.4868
 Frc consts  --      0.0439                 0.1156                 0.1720
 IR Inten    --      0.2608                11.1686                 2.7410

                      7                      8                      9
                      A                      A                      A
 Frequencies --    378.5689               428.0095               467.8485
 Red. masses --      3.3026                 2.6094                 1.2221
 Frc consts  --      0.2789                 0.2816                 0.1576
 IR Inten    --      4.9020                 0.2102                16.2412

                     10                     11                     12
                      A                      A                      A
 Frequencies --    521.1291               593.6675               782.3244
 Red. masses --      3.4694                 4.2155                 5.2295
 Frc consts  --      0.5551                 0.8754                 1.8857
 IR Inten    --     16.8846                21.4882                 3.9477

                     13                     14                     15
                      A                      A                      A
 Frequencies --    858.7249               928.2831               946.8449
 Red. masses --      2.7702                 2.8617                 2.3122
 Frc consts  --      1.2036                 1.4529                 1.2213
 IR Inten    --     40.9819                 5.4867                 3.6774

                     16                     17                     18
                      A                      A                      A
 Frequencies --    998.2482              1019.0844              1143.5005
 Red. masses --      2.0158                 1.3285                 1.5890
 Frc consts  --      1.1835                 0.8129                 1.2242
 IR Inten    --     37.0284                 0.6215                47.7013

                     19                     20                     21
                      A                      A                      A
 Frequencies --   1209.5093              1259.2637              1357.7794
 Red. masses --      2.3155                 3.0930                 1.1479
 Frc consts  --      1.9958                 2.8898                 1.2469
 IR Inten    --    104.0293               108.5386                65.6876

                     22                     23                     24
                      A                      A                      A
 Frequencies --   1389.2006              1422.8607              1437.3425
 Red. masses --      1.2768                 1.3610                 1.5605
 Frc consts  --      1.4517                 1.6234                 1.8995
 IR Inten    --     19.6339                31.9519                23.0339

                     25                     26                     27
                      A                      A                      A
 Frequencies --   1494.2463              1496.6608              1510.8537
 Red. masses --      1.0735                 1.0473                 1.0955
 Frc consts  --      1.4122                 1.3822                 1.4734
 IR Inten    --      0.8873                 0.3680                 3.9711

                     28                     29                     30
                      A                      A                      A
 Frequencies --   1520.1390              3060.2502              3072.0600
 Red. masses --      1.0531                 1.0347                 1.0345
 Frc consts  --      1.4338                 5.7093                 5.7521
 IR Inten    --      1.7145                 9.7847                 6.6704

                     31                     32                     33
                      A                      A                      A
 Frequencies --   3139.7941              3141.6297              3154.3491
 Red. masses --      1.1031                 1.1036                 1.1034
 Frc consts  --      6.4070                 6.4176                 6.4684
 IR Inten    --     15.0311                11.8847                17.6853

                     34                     35                     36
                      A                      A                      A
 Frequencies --   3158.5612              3761.5830              3794.9970
 Red. masses --      1.1040                 1.0685                 1.0649
 Frc consts  --      6.4894                 8.9074                 9.0365
 IR Inten    --     15.0115                33.6547                17.1000

 - Thermochemistry -
 -------------------
 Temperature   298.150 Kelvin.  Pressure   1.00000 Atm.
 Atom     1 has atomic number  6 and mass  12.00000

 Molecular mass:    92.04734 amu.
 Principal axes and moments of inertia in atomic units:
                           1         2         3
     Eigenvalues --   381.12254 621.76668 642.67023
           X            0.99798  -0.01383  -0.06201
           Y            0.00904   0.99700  -0.07684
           Z            0.06288   0.07612   0.99511
 This molecule is an asymmetric top.
 Rotational symmetry number  1.
 Rotational temperatures (Kelvin)      0.22726     0.13930     0.13477
 Rotational constants (GHZ):           4.73533     2.90260     2.80819
 Zero-point vibrational energy     304073.8 (Joules/Mol)
                                   72.67538 (Kcal/Mol)
 Warning -- explicit consideration of  11 degrees of freedom as
           vibrations may cause significant error
 Vibrational temperatures:    202.87   252.25   289.86   367.16   394.60
          (Kelvin)            492.96   544.68   615.81   673.13   749.79
                              854.15  1125.59  1235.51  1335.59  1362.30
                             1436.25  1466.23  1645.24  1740.21  1811.80
                             1953.54  1998.75  2047.18  2068.01  2149.88
                             2153.36  2173.78  2187.14  4403.01  4420.00
                             4517.46  4520.10  4538.40  4544.46  5412.07
                             5460.15

 Zero-point correction=                           0.115816 (Hartree/Particle)
 Thermal correction to Energy=                    0.123415
 Thermal correction to Enthalpy=                  0.124359
 Thermal correction to Gibbs Free Energy=         0.085152
 Sum of electronic and zero-point Energies=           -344.611509
 Sum of electronic and thermal Energies=              -344.603910
 Sum of electronic and thermal Enthalpies=            -344.602966
 Sum of electronic and thermal Free Energies=         -344.642172

                     E (Thermal)             CV                S
                      KCal/Mol        Cal/Mol-Kelvin    Cal/Mol-Kelvin
 Total                   77.444             27.352             82.518
 Electronic               0.000              0.000              0.000
 Translational            0.889              2.981             39.471
 Rotational               0.889              2.981             26.524
 Vibrational             75.666             21.390             16.523
 Vibration     1          0.615              1.912              2.790
 Vibration     2          0.627              1.873              2.378
 Vibration     3          0.638              1.838              2.120
 Vibration     4          0.666              1.754              1.694
 Vibration     5          0.677              1.721              1.569
 Vibration     6          0.722              1.590              1.200
 Vibration     7          0.749              1.516              1.045
 Vibration     8          0.790              1.409              0.865
 Vibration     9          0.825              1.321              0.744
 Vibration    10          0.876              1.203              0.607
 Vibration    11          0.951              1.045              0.461

 Optimization completed.
    -- Stationary point found.
 Normal termination of Gaussian 09 at Thu Sep  8 15:03:04 2022.
