 Gaussian 09, Revision E.01,
 Gaussian 09:  ES64L-G09RevE.01 30-Nov-2015

 -------------------------
 #P OPT Freq B3LYP/6-31G**
 -------------------------

 --------
 Frag_152
 --------
 Symbolic Z-matrix:
 Charge =  0 Multiplicity = 1

 SCF Done:  E(RB3LYP) =  -289.027054158     A.U. after   13 cycles
 SCF Done:  E(RB3LYP) =  -289.031907734     A.U. after   11 cycles
 SCF Done:  E(RB3LYP) =  -289.032334824     A.U. after   11 cycles
 SCF Done:  E(RB3LYP) =  -289.032503215     A.U. after   10 cycles
 SCF Done:  E(RB3LYP) =  -289.032661208     A.U. after   10 cycles
 SCF Done:  E(RB3LYP) =  -289.032880619     A.U. after   11 cycles
 SCF Done:  E(RB3LYP) =  -289.033025522     A.U. after   10 cycles
 SCF Done:  E(RB3LYP) =  -289.033077724     A.U. after   10 cycles
 SCF Done:  E(RB3LYP) =  -289.033086646     A.U. after    9 cycles
 SCF Done:  E(RB3LYP) =  -289.033096553     A.U. after    9 cycles
 SCF Done:  E(RB3LYP) =  -289.033099810     A.U. after    9 cycles
 SCF Done:  E(RB3LYP) =  -289.033101009     A.U. after    8 cycles
 SCF Done:  E(RB3LYP) =  -289.033101467     A.U. after    9 cycles
 SCF Done:  E(RB3LYP) =  -289.033101451     A.U. after    7 cycles
 SCF Done:  E(RB3LYP) =  -289.033101456     A.U. after    7 cycles
 SCF Done:  E(RB3LYP) =  -289.032983580     A.U. after   12 cycles
 SCF Done:  E(RB3LYP) =  -289.033101498     A.U. after    7 cycles
 SCF Done:  E(RB3LYP) =  -289.033089638     A.U. after    8 cycles
 SCF Done:  E(RB3LYP) =  -289.033101417     A.U. after    8 cycles
 Optimization completed.
    -- Stationary point found.
 Normal termination of Gaussian 09 at Sat Aug 21 01:36:45 2021.

 ----------------------------------------------------------------------
 #P Geom=AllCheck Guess=TCheck SCRF=Check GenChk RB3LYP/6-31G(d,p) Freq
 ----------------------------------------------------------------------

 Structure from the checkpoint file:  "/public/home/users/caep010/.cache/gau_scr/Gau-38941.chk"
 --------
 Frag_152
 --------
 Charge =  0 Multiplicity = 1

                         Standard orientation:
 ---------------------------------------------------------------------
 Center     Atomic      Atomic             Coordinates (Angstroms)
 Number     Number       Type             X           Y           Z
 ---------------------------------------------------------------------
      1          6           0        0.610826   -1.384840   -0.645348
      2          6           0        0.399023   -0.005876    0.001355
      3          6           0        1.599083    0.910794   -0.256007
      4          7           0        0.183295   -0.118242    1.467607
      5          6           0       -0.880377    0.654284   -0.565076
      6          8           0       -2.055157    0.024655   -0.081202
      7          1           0       -0.288514   -1.997260   -0.521449
      8          1           0        1.457708   -1.906778   -0.186162
      9          1           0        0.809026   -1.297617   -1.719568
     10          1           0        2.533673    0.435513    0.063876
     11          1           0        1.692841    1.141935   -1.322033
     12          1           0        1.489203    1.854681    0.288304
     13          1           0       -0.186203   -1.040758    1.685668
     14          1           0        1.070708   -0.050577    1.959465
     15          1           0       -0.903909    0.572174   -1.657160
     16          1           0       -0.872333    1.724188   -0.303883
     17          1           0       -2.015341    0.148785    0.879766
 ---------------------------------------------------------------------

 SCF Done:  E(RB3LYP) =  -289.033101417     A.U. after    1 cycles

 The electronic state is 1-A.
 Alpha  occ. eigenvalues --  -19.13018 -14.31779 -10.21910 -10.21591 -10.17996
 Alpha  occ. eigenvalues --  -10.17280  -1.00572  -0.88788  -0.76141  -0.69025
 Alpha  occ. eigenvalues --   -0.66449  -0.56036  -0.49252  -0.48504  -0.46256
 Alpha  occ. eigenvalues --   -0.43681  -0.40385  -0.39560  -0.38303  -0.36859
 Alpha  occ. eigenvalues --   -0.36276  -0.34117  -0.30990  -0.26165  -0.23940
 Alpha virt. eigenvalues --    0.06793   0.10699   0.12535   0.13473   0.14346
 Alpha virt. eigenvalues --    0.15345   0.16370   0.17496   0.18241   0.18940
 Alpha virt. eigenvalues --    0.21069   0.22281   0.22864   0.24813   0.27848

 Mulliken charges:
               1
     1  C   -0.314596
     2  C    0.132985
     3  C   -0.324979
     4  N   -0.620003
     5  C    0.101682
     6  O   -0.554431
     7  H    0.115638
     8  H    0.090765
     9  H    0.099493
    10  H    0.097170
    11  H    0.108362
    12  H    0.112417
    13  H    0.241775
    14  H    0.238923
    15  H    0.091578
    16  H    0.075579
    17  H    0.307640
 Sum of Mulliken charges =  -0.00000

 Dipole moment (field-independent basis, Debye):
    X=              2.1786    Y=             -0.3509    Z=              0.7687  Tot=              2.3367
 Quadrupole moment (field-independent basis, Debye-Ang):
   XX=            -42.1000   YY=            -38.2118   ZZ=            -36.7104
   XY=             -0.2697   XZ=             -0.9362   YZ=             -2.2480

  Exact polarizability:  55.659   1.205  52.383  -0.163  -0.935  54.534
 Approx polarizability:  74.526   2.861  69.856   0.075  -1.163  76.990

                      1                      2                      3
                      A                      A                      A
 Frequencies --     40.2241               131.9731               245.5191
 Red. masses --      1.0806                 2.9058                 2.3003
 Frc consts  --      0.0010                 0.0298                 0.0817
 IR Inten    --     71.8514                 6.0680                 2.2527

                      4                      5                      6
                      A                      A                      A
 Frequencies --    254.3953               292.4295               333.3931
 Red. masses --      1.0313                 1.2349                 2.1876
 Frc consts  --      0.0393                 0.0622                 0.1433
 IR Inten    --      0.0741                 0.7063                 0.9082

                      7                      8                      9
                      A                      A                      A
 Frequencies --    364.4296               413.8650               446.4994
 Red. masses --      2.5334                 2.1776                 2.4169
 Frc consts  --      0.1982                 0.2198                 0.2839
 IR Inten    --      0.3447                 0.7602                 4.7998

                     10                     11                     12
                      A                      A                      A
 Frequencies --    550.9448               586.7329               762.2294
 Red. masses --      2.1254                 1.3240                 3.9449
 Frc consts  --      0.3801                 0.2686                 1.3504
 IR Inten    --     22.4693               115.9866                12.5725

                     13                     14                     15
                      A                      A                      A
 Frequencies --    872.9260               909.6237               944.9181
 Red. masses --      1.8020                 1.7471                 1.4669
 Frc consts  --      0.8090                 0.8517                 0.7717
 IR Inten    --     83.3444                21.8231                17.6316

                     16                     17                     18
                      A                      A                      A
 Frequencies --    967.8102               985.5600              1024.4885
 Red. masses --      1.3730                 1.5835                 1.3259
 Frc consts  --      0.7577                 0.9062                 0.8199
 IR Inten    --     12.8602                 1.9057                 7.2312

                     19                     20                     21
                      A                      A                      A
 Frequencies --   1077.3702              1115.6750              1187.0340
 Red. masses --      2.5576                 1.8868                 1.4243
 Frc consts  --      1.7491                 1.3837                 1.1824
 IR Inten    --    109.7586                 6.5277                 6.2971

                     22                     23                     24
                      A                      A                      A
 Frequencies --   1271.3252              1277.8749              1329.8000
 Red. masses --      2.6470                 1.9209                 1.6694
 Frc consts  --      2.5207                 1.8481                 1.7393
 IR Inten    --     17.1430                19.9528                 2.2575

                     25                     26                     27
                      A                      A                      A
 Frequencies --   1399.2231              1416.0946              1422.5894
 Red. masses --      1.2271                 1.3560                 1.2867
 Frc consts  --      1.4155                 1.6021                 1.5343
 IR Inten    --      2.3621                23.1372                 7.5295

                     28                     29                     30
                      A                      A                      A
 Frequencies --   1437.0693              1498.6515              1502.8165
 Red. masses --      1.2554                 1.0710                 1.0485
 Frc consts  --      1.5276                 1.4172                 1.3952
 IR Inten    --     44.8372                 1.0510                 0.3281

                     31                     32                     33
                      A                      A                      A
 Frequencies --   1514.2920              1516.0935              1526.2028
 Red. masses --      1.0645                 1.0676                 1.0608
 Frc consts  --      1.4381                 1.4458                 1.4558
 IR Inten    --      3.6298                 1.0937                 6.5697

                     34                     35                     36
                      A                      A                      A
 Frequencies --   1664.4219              2993.1782              3033.3877
 Red. masses --      1.0926                 1.0684                 1.0348
 Frc consts  --      1.7834                 5.6396                 5.6102
 IR Inten    --     27.0032                65.1961                21.4995

                     37                     38                     39
                      A                      A                      A
 Frequencies --   3039.2305              3086.7742              3104.3447
 Red. masses --      1.0364                 1.0960                 1.1022
 Frc consts  --      5.6402                 6.1526                 6.2581
 IR Inten    --     19.7803                25.8292                 9.6597

                     40                     41                     42
                      A                      A                      A
 Frequencies --   3108.3752              3115.4139              3119.6288
 Red. masses --      1.1017                 1.1028                 1.1022
 Frc consts  --      6.2716                 6.3061                 6.3200
 IR Inten    --     50.4127                23.7931                35.1712

                     43                     44                     45
                      A                      A                      A
 Frequencies --   3495.6880              3578.2335              3761.3357
 Red. masses --      1.0500                 1.0926                 1.0649
 Frc consts  --      7.5596                 8.2423                 8.8768
 IR Inten    --      0.1389                 0.5415                26.3358

 - Thermochemistry -
 -------------------
 Temperature   298.150 Kelvin.  Pressure   1.00000 Atm.
 Atom     1 has atomic number  6 and mass  12.00000

 Molecular mass:    89.08406 amu.
 Principal axes and moments of inertia in atomic units:
                           1         2         3
     Eigenvalues --   401.62166 681.18167 688.39645
           X            0.99984  -0.00058  -0.01815
           Y           -0.00421   0.96494  -0.26242
           Z            0.01767   0.26245   0.96478
 This molecule is an asymmetric top.
 Rotational symmetry number  1.
 Rotational temperatures (Kelvin)      0.21566     0.12715     0.12582
 Rotational constants (GHZ):           4.49364     2.64943     2.62166
 Zero-point vibrational energy     405056.1 (Joules/Mol)
                                   96.81072 (Kcal/Mol)
 Warning -- explicit consideration of  11 degrees of freedom as
           vibrations may cause significant error
 Vibrational temperatures:     57.87   189.88   353.25   366.02   420.74
          (Kelvin)            479.68   524.33   595.46   642.41   792.69
                              844.18  1096.68  1255.94  1308.74  1359.52
                             1392.46  1418.00  1474.01  1550.09  1605.21
                             1707.87  1829.15  1838.57  1913.28  2013.17
                             2037.44  2046.79  2067.62  2156.22  2162.22
                             2178.73  2181.32  2195.86  2394.73  4306.51
                             4364.36  4372.77  4441.17  4466.45  4472.25
                             4482.38  4488.44  5029.51  5148.27  5411.72

 Zero-point correction=                           0.154278 (Hartree/Particle)
 Thermal correction to Energy=                    0.162207
 Thermal correction to Enthalpy=                  0.163151
 Thermal correction to Gibbs Free Energy=         0.122481
 Sum of electronic and zero-point Energies=           -288.878824
 Sum of electronic and thermal Energies=              -288.870894
 Sum of electronic and thermal Enthalpies=            -288.869950
 Sum of electronic and thermal Free Energies=         -288.910621

                     E (Thermal)             CV                S
                      KCal/Mol        Cal/Mol-Kelvin    Cal/Mol-Kelvin
 Total                  101.786             28.615             85.598
 Electronic               0.000              0.000              0.000
 Translational            0.889              2.981             39.374
 Rotational               0.889              2.981             26.735
 Vibrational            100.009             22.653             19.490
 Vibration     1          0.594              1.981              5.248
 Vibration     2          0.612              1.921              2.917
 Vibration     3          0.660              1.770              1.763
 Vibration     4          0.665              1.755              1.700
 Vibration     5          0.688              1.688              1.460
 Vibration     6          0.715              1.609              1.244
 Vibration     7          0.738              1.545              1.103
 Vibration     8          0.777              1.440              0.913
 Vibration     9          0.806              1.369              0.806
 Vibration    10          0.906              1.138              0.542
 Vibration    11          0.944              1.060              0.473

 Normal termination of Gaussian 09 at Sat Aug 21 01:36:59 2021.
