 Gaussian 09, Revision E.01,
 Gaussian 09:  ES64L-G09RevE.01 30-Nov-2015

 -------------------------
 #P OPT Freq B3LYP/6-31G**
 -------------------------

 --------
 Frag_196
 --------
 Symbolic Z-matrix:
 Charge =  0 Multiplicity = 1

 SCF Done:  E(RB3LYP) =  -361.688223967     A.U. after   17 cycles
 SCF Done:  E(RB3LYP) =  -361.715410228     A.U. after   14 cycles
 SCF Done:  E(RB3LYP) =  -361.709028683     A.U. after   16 cycles
 SCF Done:  E(RB3LYP) =  -361.717228746     A.U. after   12 cycles
 SCF Done:  E(RB3LYP) =  -361.718506637     A.U. after   14 cycles
 SCF Done:  E(RB3LYP) =  -361.719483085     A.U. after   13 cycles
 SCF Done:  E(RB3LYP) =  -361.719539608     A.U. after   12 cycles
 SCF Done:  E(RB3LYP) =  -361.719551808     A.U. after   10 cycles
 SCF Done:  E(RB3LYP) =  -361.719559511     A.U. after   12 cycles
 SCF Done:  E(RB3LYP) =  -361.719563099     A.U. after   13 cycles
 SCF Done:  E(RB3LYP) =  -361.723809178     A.U. after   16 cycles
 SCF Done:  E(RB3LYP) =  -361.725535967     A.U. after   14 cycles
 SCF Done:  E(RB3LYP) =  -361.726985474     A.U. after   15 cycles
 SCF Done:  E(RB3LYP) =  -361.726595123     A.U. after   14 cycles
 SCF Done:  E(RB3LYP) =  -361.727385113     A.U. after   10 cycles
 SCF Done:  E(RB3LYP) =  -361.727585480     A.U. after   13 cycles
 SCF Done:  E(RB3LYP) =  -361.727617155     A.U. after   12 cycles
 SCF Done:  E(RB3LYP) =  -361.727620864     A.U. after    9 cycles
 SCF Done:  E(RB3LYP) =  -361.727621199     A.U. after    8 cycles
 Optimization completed.
    -- Stationary point found.
 Normal termination of Gaussian 09 at Sat Aug 21 01:40:54 2021.

 ----------------------------------------------------------------------
 #P Geom=AllCheck Guess=TCheck SCRF=Check GenChk RB3LYP/6-31G(d,p) Freq
 ----------------------------------------------------------------------

 Structure from the checkpoint file:  "/public/home/users/caep010/.cache/gau_scr/Gau-140006.chk"
 --------
 Frag_196
 --------
 Charge =  0 Multiplicity = 1

                         Standard orientation:
 ---------------------------------------------------------------------
 Center     Atomic      Atomic             Coordinates (Angstroms)
 Number     Number       Type             X           Y           Z
 ---------------------------------------------------------------------
      1          6           0       -0.706402    1.718390   -0.000069
      2          6           0       -0.456520    0.232095   -0.000018
      3          7           0        0.986322   -0.139284   -0.000062
      4          8           0        1.801408    0.780431    0.000054
      5          8           0        1.278508   -1.335541   -0.000031
      6          6           0       -1.346671   -0.737053   -0.749248
      7          6           0       -1.346532   -0.736969    0.749378
      8          1           0       -1.784468    1.899920   -0.000571
      9          1           0       -0.273174    2.192542   -0.883993
     10          1           0       -0.274244    2.192307    0.884545
     11          1           0       -0.851048   -1.563389   -1.245323
     12          1           0       -2.186551   -0.300496   -1.280358
     13          1           0       -2.186343   -0.300272    1.280495
     14          1           0       -0.851000   -1.563524    1.245196
 ---------------------------------------------------------------------

 SCF Done:  E(RB3LYP) =  -361.727621199     A.U. after    1 cycles

 The electronic state is 1-A.
 Alpha  occ. eigenvalues --  -19.18001 -19.17792 -14.56651 -10.26300 -10.21745
 Alpha  occ. eigenvalues --  -10.21718 -10.20132  -1.22092  -1.04906  -0.90559
 Alpha  occ. eigenvalues --   -0.75503  -0.71169  -0.63165  -0.56590  -0.54044
 Alpha  occ. eigenvalues --   -0.52458  -0.51252  -0.48587  -0.43020  -0.42896
 Alpha  occ. eigenvalues --   -0.41769  -0.38973  -0.33873  -0.31272  -0.30534
 Alpha  occ. eigenvalues --   -0.29970  -0.28616
 Alpha virt. eigenvalues --   -0.06277   0.07490   0.09599   0.11827   0.13270
 Alpha virt. eigenvalues --    0.13662   0.14972   0.17816   0.18292   0.21072
 Alpha virt. eigenvalues --    0.23136   0.24228   0.25396   0.28188   0.35679

 Mulliken charges:
               1
     1  C   -0.321053
     2  C    0.160856
     3  N    0.454786
     4  O   -0.400829
     5  O   -0.394809
     6  C   -0.220667
     7  C   -0.220651
     8  H    0.104968
     9  H    0.135777
    10  H    0.135738
    11  H    0.153997
    12  H    0.128933
    13  H    0.128944
    14  H    0.154009
 Sum of Mulliken charges =   0.00000

 Dipole moment (field-independent basis, Debye):
    X=             -3.8056    Y=              0.7521    Z=             -0.0001  Tot=              3.8792
 Quadrupole moment (field-independent basis, Debye-Ang):
   XX=            -44.5675   YY=            -42.2628   ZZ=            -39.0122
   XY=             -0.2255   XZ=             -0.0006   YZ=             -0.0003

  Exact polarizability:  58.946   3.012  59.455   0.001   0.002  43.351
 Approx polarizability:  86.091  10.480 104.051   0.002   0.004  63.053

                      1                      2                      3
                      A                      A                      A
 Frequencies --     78.9151               223.4455               294.0792
 Red. masses --      6.9903                 1.0375                 4.3750
 Frc consts  --      0.0256                 0.0305                 0.2229
 IR Inten    --      0.0086                 0.0352                 2.5831

                      4                      5                      6
                      A                      A                      A
 Frequencies --    314.8079               343.5237               353.4637
 Red. masses --      2.1390                 2.8152                 2.7013
 Frc consts  --      0.1249                 0.1957                 0.1988
 IR Inten    --      2.2540                 1.0735                 0.4241

                      7                      8                      9
                      A                      A                      A
 Frequencies --    508.1661               559.9229               742.4455
 Red. masses --      6.5437                 4.4291                 6.1147
 Frc consts  --      0.9956                 0.8181                 1.9859
 IR Inten    --      5.7789                 7.7100                 7.8132

                     10                     11                     12
                      A                      A                      A
 Frequencies --    784.5917               794.5712               868.6929
 Red. masses --      1.4807                 1.8140                 2.4789
 Frc consts  --      0.5370                 0.6748                 1.1021
 IR Inten    --      2.9801                 2.0455                 0.4615

                     13                     14                     15
                      A                      A                      A
 Frequencies --    894.3018               956.8416               974.9070
 Red. masses --      5.1462                 1.5053                 1.4867
 Frc consts  --      2.4250                 0.8120                 0.8325
 IR Inten    --     53.2891                 5.7204                 0.3207

                     16                     17                     18
                      A                      A                      A
 Frequencies --   1058.6597              1077.2275              1091.3871
 Red. masses --      1.3864                 1.7003                 1.3593
 Frc consts  --      0.9155                 1.1625                 0.9539
 IR Inten    --      5.3344                 5.5830                 0.8674

                     19                     20                     21
                      A                      A                      A
 Frequencies --   1133.7111              1204.8189              1261.0753
 Red. masses --      1.6359                 1.2892                 2.4558
 Frc consts  --      1.2388                 1.1026                 2.3010
 IR Inten    --      4.6506                 0.1901                 3.2999

                     22                     23                     24
                      A                      A                      A
 Frequencies --   1356.3767              1409.9235              1439.7131
 Red. masses --      2.4995                 6.0170                 1.4332
 Frc consts  --      2.7093                 7.0473                 1.7503
 IR Inten    --     18.3857               111.0822                26.4387

                     25                     26                     27
                      A                      A                      A
 Frequencies --   1459.0981              1495.1029              1505.1319
 Red. masses --      1.0889                 1.0434                 1.4302
 Frc consts  --      1.3658                 1.3742                 1.9090
 IR Inten    --      5.9889                 2.9340                24.7272

                     28                     29                     30
                      A                      A                      A
 Frequencies --   1510.3437              1647.0206              3064.0658
 Red. masses --      1.1125                12.2704                 1.0353
 Frc consts  --      1.4953                19.6114                 5.7267
 IR Inten    --      8.1660               213.1889                12.3100

                     31                     32                     33
                      A                      A                      A
 Frequencies --   3139.7482              3143.7912              3157.0142
 Red. masses --      1.1022                 1.1036                 1.0511
 Frc consts  --      6.4018                 6.4261                 6.1720
 IR Inten    --     10.7341                10.7370                 6.5899

                     34                     35                     36
                      A                      A                      A
 Frequencies --   3157.5822              3248.9510              3258.8215
 Red. masses --      1.0590                 1.1196                 1.1168
 Frc consts  --      6.2212                 6.9630                 6.9881
 IR Inten    --      6.5211                 0.4276                 0.9129

 - Thermochemistry -
 -------------------
 Temperature   298.150 Kelvin.  Pressure   1.00000 Atm.
 Atom     1 has atomic number  6 and mass  12.00000

 Molecular mass:   101.04768 amu.
 Principal axes and moments of inertia in atomic units:
                           1         2         3
     Eigenvalues --   455.31457 639.02620 940.91621
           X            0.99987  -0.01596   0.00000
           Y            0.01596   0.99987   0.00000
           Z           -0.00000  -0.00000   1.00000
 This molecule is an asymmetric top.
 Rotational symmetry number  1.
 Warning -- assumption of classical behavior for rotation
           may cause significant error
 Rotational temperatures (Kelvin)      0.19023     0.13554     0.09205
 Rotational constants (GHZ):           3.96372     2.82421     1.91807
 Zero-point vibrational energy     296149.0 (Joules/Mol)
                                   70.78130 (Kcal/Mol)
 Warning -- explicit consideration of   8 degrees of freedom as
           vibrations may cause significant error
 Vibrational temperatures:    113.54   321.49   423.11   452.94   494.25
          (Kelvin)            508.55   731.14   805.60  1068.21  1128.85
                             1143.21  1249.85  1286.70  1376.68  1402.67
                             1523.17  1549.89  1570.26  1631.16  1733.46
                             1814.40  1951.52  2028.56  2071.42  2099.31
                             2151.12  2165.55  2173.05  2369.69  4408.50
                             4517.39  4523.21  4542.23  4543.05  4674.51
                             4688.71

 Zero-point correction=                           0.112797 (Hartree/Particle)
 Thermal correction to Energy=                    0.119526
 Thermal correction to Enthalpy=                  0.120471
 Thermal correction to Gibbs Free Energy=         0.082151
 Sum of electronic and zero-point Energies=           -361.614824
 Sum of electronic and thermal Energies=              -361.608095
 Sum of electronic and thermal Enthalpies=            -361.607151
 Sum of electronic and thermal Free Energies=         -361.645470

                     E (Thermal)             CV                S
                      KCal/Mol        Cal/Mol-Kelvin    Cal/Mol-Kelvin
 Total                   75.004             24.736             80.650
 Electronic               0.000              0.000              0.000
 Translational            0.889              2.981             39.749
 Rotational               0.889              2.981             27.106
 Vibrational             73.226             18.774             13.795
 Vibration     1          0.600              1.963              3.918
 Vibration     2          0.649              1.805              1.931
 Vibration     3          0.689              1.685              1.450
 Vibration     4          0.702              1.645              1.337
 Vibration     5          0.722              1.588              1.196
 Vibration     6          0.730              1.568              1.151
 Vibration     7          0.863              1.232              0.638
 Vibration     8          0.916              1.118              0.524

 Optimization completed.
    -- Stationary point found.
 Normal termination of Gaussian 09 at Sat Aug 21 01:41:07 2021.
