 Gaussian 09, Revision E.01,
 Gaussian 09:  ES64L-G09RevE.01 30-Nov-2015

 --------------------------------
 #P OPT=calcfc Freq B3LYP/6-31G**
 --------------------------------

 --------
 Frag_331
 --------
 Symbolic Z-matrix:
 Charge =  0 Multiplicity = 1

 SCF Done:  E(RB3LYP) =  -248.425123840     A.U. after   16 cycles
 SCF Done:  E(RB3LYP) =  -248.436670054     A.U. after   13 cycles
 SCF Done:  E(RB3LYP) =  -248.437386241     A.U. after   13 cycles
 SCF Done:  E(RB3LYP) =  -248.396228390     A.U. after   15 cycles
 SCF Done:  E(RB3LYP) =  -248.405631793     A.U. after   12 cycles
 SCF Done:  E(RB3LYP) =  -248.413619574     A.U. after   12 cycles
 SCF Done:  E(RB3LYP) =  -248.420400691     A.U. after   12 cycles
 SCF Done:  E(RB3LYP) =  -248.426066567     A.U. after   12 cycles
 SCF Done:  E(RB3LYP) =  -248.437387881     A.U. after    8 cycles
 SCF Done:  E(RB3LYP) =  -248.437804865     A.U. after   12 cycles
 SCF Done:  E(RB3LYP) =  -248.437970795     A.U. after   11 cycles
 SCF Done:  E(RB3LYP) =  -248.438058750     A.U. after   12 cycles
 SCF Done:  E(RB3LYP) =  -248.438116370     A.U. after   12 cycles
 SCF Done:  E(RB3LYP) =  -248.438136308     A.U. after   12 cycles
 SCF Done:  E(RB3LYP) =  -248.438158546     A.U. after   11 cycles
 SCF Done:  E(RB3LYP) =  -248.438161894     A.U. after   10 cycles
 SCF Done:  E(RB3LYP) =  -248.438162611     A.U. after    9 cycles
 SCF Done:  E(RB3LYP) =  -248.438162637     A.U. after    7 cycles
 Optimization completed.
    -- Stationary point found.
 Normal termination of Gaussian 09 at Fri Sep 10 18:57:24 2021.

 ----------------------------------------------------------------------
 #P Geom=AllCheck Guess=TCheck SCRF=Check GenChk RB3LYP/6-31G(d,p) Freq
 ----------------------------------------------------------------------

 Structure from the checkpoint file:  "/public/home/users/caep010/.cache/gau_scr/Gau-107443.chk"
 --------
 Frag_331
 --------
 Charge =  0 Multiplicity = 1

                         Standard orientation:
 ---------------------------------------------------------------------
 Center     Atomic      Atomic             Coordinates (Angstroms)
 Number     Number       Type             X           Y           Z
 ---------------------------------------------------------------------
      1          6           0       -1.963381    0.068718   -0.000008
      2          6           0       -0.673549   -0.695814    0.000018
      3          7           0        0.526993   -0.169228   -0.000004
      4          6           0        0.738214    1.297140    0.000006
      5          8           0        1.609794   -0.843116   -0.000009
      6          1           0       -2.792075   -0.643000    0.000151
      7          1           0       -2.087333    0.705910    0.884928
      8          1           0       -2.087444    0.705647   -0.885121
      9          1           0       -0.665307   -1.779277    0.000025
     10          1           0       -0.196964    1.855202   -0.000015
     11          1           0        1.327043    1.532376    0.887345
     12          1           0        1.327075    1.532400   -0.887309
 ---------------------------------------------------------------------

 SCF Done:  E(RB3LYP) =  -248.438162637     A.U. after    1 cycles

 The electronic state is 1-A.
 Alpha  occ. eigenvalues --  -19.10246 -14.46598 -10.22904 -10.22180 -10.20575
 Alpha  occ. eigenvalues --   -1.08738  -0.85464  -0.76009  -0.71339  -0.56966
 Alpha  occ. eigenvalues --   -0.50298  -0.48483  -0.47538  -0.42642  -0.41553
 Alpha  occ. eigenvalues --   -0.40697  -0.38100  -0.37241  -0.23041  -0.20400
 Alpha virt. eigenvalues --   -0.01419   0.08596   0.11465   0.13145   0.14062
 Alpha virt. eigenvalues --    0.15594   0.15860   0.17019   0.19445   0.23155
 Alpha virt. eigenvalues --    0.30063   0.32305   0.48009   0.49476   0.52958

 Mulliken charges:
               1
     1  C   -0.372600
     2  C    0.067411
     3  N    0.067274
     4  C   -0.183720
     5  O   -0.514937
     6  H    0.129544
     7  H    0.129640
     8  H    0.129643
     9  H    0.124432
    10  H    0.114721
    11  H    0.154297
    12  H    0.154296
 Sum of Mulliken charges =  -0.00000

 Dipole moment (field-independent basis, Debye):
    X=             -3.1036    Y=              2.4721    Z=              0.0000  Tot=              3.9678
 Quadrupole moment (field-independent basis, Debye-Ang):
   XX=            -33.4768   YY=            -29.3760   ZZ=            -30.6961
   XY=              4.5621   XZ=              0.0000   YZ=             -0.0000

  Exact polarizability:  64.083   1.379  43.995  -0.000  -0.000  29.515
 Approx polarizability: 116.729  -2.519  59.394  -0.000  -0.000  41.307

                      1                      2                      3
                      A                      A                      A
 Frequencies --     83.8673               122.3020               233.1233
 Red. masses --      1.0379                 1.0551                 3.0210
 Frc consts  --      0.0043                 0.0093                 0.0967
 IR Inten    --      0.1352                 0.2475                 1.2163

                      4                      5                      6
                      A                      A                      A
 Frequencies --    308.6168               506.4897               517.8203
 Red. masses --      2.7751                 3.4120                 2.5329
 Frc consts  --      0.1557                 0.5157                 0.4002
 IR Inten    --      2.2763                12.7582                 0.7374

                      7                      8                      9
                      A                      A                      A
 Frequencies --    573.4874               804.9040               821.0208
 Red. masses --      4.0529                 1.3599                 3.7471
 Frc consts  --      0.7853                 0.5191                 1.4882
 IR Inten    --     10.5626                31.8757                 1.6452

                     10                     11                     12
                      A                      A                      A
 Frequencies --    995.5951              1044.1091              1118.8031
 Red. masses --      1.5246                 1.3757                 1.5624
 Frc consts  --      0.8903                 0.8836                 1.1522
 IR Inten    --      5.7988                 0.0013                38.1052

                     13                     14                     15
                      A                      A                      A
 Frequencies --   1142.6628              1147.2394              1336.1124
 Red. masses --      2.1414                 1.4172                 3.1364
 Frc consts  --      1.6473                 1.0990                 3.2988
 IR Inten    --     15.8844                 0.0292               102.4659

                     16                     17                     18
                      A                      A                      A
 Frequencies --   1387.1349              1434.1545              1444.0991
 Red. masses --      1.8674                 1.2638                 1.2304
 Frc consts  --      2.1170                 1.5316                 1.5118
 IR Inten    --      4.9379                 3.9567                 2.8682

                     19                     20                     21
                      A                      A                      A
 Frequencies --   1484.7657              1490.5522              1507.0115
 Red. masses --      1.0431                 1.0883                 1.0425
 Frc consts  --      1.3549                 1.4246                 1.3950
 IR Inten    --     11.6938                 5.7543                 1.8579

                     22                     23                     24
                      A                      A                      A
 Frequencies --   1511.3255              1676.1285              3024.0784
 Red. masses --      1.0494                 6.1560                 1.0409
 Frc consts  --      1.4122                10.1898                 5.6084
 IR Inten    --      9.4521                91.7378                26.3245

                     25                     26                     27
                      A                      A                      A
 Frequencies --   3071.5201              3086.0548              3132.5983
 Red. masses --      1.1018                 1.0305                 1.0960
 Frc consts  --      6.1242                 5.7825                 6.3369
 IR Inten    --     21.6693                10.8136                13.2324

                     28                     29                     30
                      A                      A                      A
 Frequencies --   3172.2500              3189.5342              3231.9336
 Red. masses --      1.1055                 1.1066                 1.0892
 Frc consts  --      6.5543                 6.6326                 6.7031
 IR Inten    --      4.2166                10.9028                 6.1626

 - Thermochemistry -
 -------------------
 Temperature   298.150 Kelvin.  Pressure   1.00000 Atm.
 Atom     1 has atomic number  6 and mass  12.00000

 Molecular mass:    73.05276 amu.
 Principal axes and moments of inertia in atomic units:
                           1         2         3
     Eigenvalues --   190.84605 454.31154 622.54693
           X            0.99892   0.04649   0.00000
           Y           -0.04649   0.99892  -0.00000
           Z           -0.00000   0.00000   1.00000
 This molecule is an asymmetric top.
 Rotational symmetry number  1.
 Rotational temperatures (Kelvin)      0.45384     0.19065     0.13913
 Rotational constants (GHZ):           9.45653     3.97247     2.89896
 Zero-point vibrational energy     266763.0 (Joules/Mol)
                                   63.75789 (Kcal/Mol)
 Warning -- explicit consideration of   7 degrees of freedom as
           vibrations may cause significant error
 Vibrational temperatures:    120.67   175.97   335.41   444.03   728.72
          (Kelvin)            745.03   825.12  1158.08  1181.26  1432.44
                             1502.24  1609.71  1644.03  1650.62  1922.37
                             1995.78  2063.43  2077.73  2136.24  2144.57
                             2168.25  2174.46  2411.57  4350.97  4419.23
                             4440.14  4507.10  4564.15  4589.02  4650.03

 Zero-point correction=                           0.101605 (Hartree/Particle)
 Thermal correction to Energy=                    0.107757
 Thermal correction to Enthalpy=                  0.108701
 Thermal correction to Gibbs Free Energy=         0.072130
 Sum of electronic and zero-point Energies=           -248.336558
 Sum of electronic and thermal Energies=              -248.330405
 Sum of electronic and thermal Enthalpies=            -248.329461
 Sum of electronic and thermal Free Energies=         -248.366033

                     E (Thermal)             CV                S
                      KCal/Mol        Cal/Mol-Kelvin    Cal/Mol-Kelvin
 Total                   67.619             20.329             76.972
 Electronic               0.000              0.000              0.000
 Translational            0.889              2.981             38.782
 Rotational               0.889              2.981             25.493
 Vibrational             65.841             14.367             12.696
 Vibration     1          0.601              1.960              3.798
 Vibration     2          0.610              1.931              3.064
 Vibration     3          0.654              1.790              1.855
 Vibration     4          0.698              1.657              1.370
 Vibration     5          0.862              1.236              0.642
 Vibration     6          0.873              1.211              0.615
 Vibration     7          0.930              1.089              0.498

 Optimization completed.
    -- Stationary point found.
 Normal termination of Gaussian 09 at Fri Sep 10 18:57:33 2021.
