 Gaussian 09, Revision E.01,
 Gaussian 09:  ES64L-G09RevE.01 30-Nov-2015

 ----------------------------
 #P OPT Freq B3LYP/6-31G(d,p)
 ----------------------------

 ---------
 Frag_1007
 ---------
 Symbolic Z-matrix:
 Charge =  0 Multiplicity = 1

 SCF Done:  E(RB3LYP) =  -439.495638799     A.U. after   13 cycles
 SCF Done:  E(RB3LYP) =  -439.495676193     A.U. after   10 cycles
 SCF Done:  E(RB3LYP) =  -439.495488943     A.U. after   10 cycles
 SCF Done:  E(RB3LYP) =  -439.495709984     A.U. after    7 cycles
 SCF Done:  E(RB3LYP) =  -439.495719792     A.U. after    8 cycles
 SCF Done:  E(RB3LYP) =  -439.495720484     A.U. after    7 cycles
 SCF Done:  E(RB3LYP) =  -439.495720664     A.U. after    7 cycles
 SCF Done:  E(RB3LYP) =  -439.495720778     A.U. after    7 cycles
 SCF Done:  E(RB3LYP) =  -439.495720829     A.U. after    7 cycles
 SCF Done:  E(RB3LYP) =  -439.495720792     A.U. after    7 cycles
 Optimization completed.
    -- Stationary point found.
 Normal termination of Gaussian 09 at Thu Sep  8 14:54:25 2022.

 ----------------------------------------------------------------------
 #P Geom=AllCheck Guess=TCheck SCRF=Check GenChk RB3LYP/6-31G(d,p) Freq
 ----------------------------------------------------------------------

 Structure from the checkpoint file:  "B3LYP6-31Gdp.Frag_1007.chk"
 ---------
 Frag_1007
 ---------
 Charge =  0 Multiplicity = 1

                         Standard orientation:
 ---------------------------------------------------------------------
 Center     Atomic      Atomic             Coordinates (Angstroms)
 Number     Number       Type             X           Y           Z
 ---------------------------------------------------------------------
      1          6           0        1.289012    1.378512   -0.475375
      2          6           0        0.762173    0.015302    0.003949
      3          6           0        1.340009   -1.112535   -0.860619
      4          7           0        1.087087   -0.271447    1.417917
      5          6           0       -0.798983   -0.030791   -0.023465
      6          8           0       -1.240755    0.066507   -1.343172
      7          8           0       -1.256504   -1.211442    0.536701
      8          8           0       -1.341060    1.035935    0.753761
      9          1           0        0.961041    1.593254   -1.497225
     10          1           0        0.944512    2.186795    0.177785
     11          1           0        2.384083    1.385401   -0.464139
     12          1           0        1.074004   -0.964590   -1.908784
     13          1           0        0.951929   -2.081367   -0.539648
     14          1           0        2.433279   -1.129218   -0.780663
     15          1           0        0.825509    0.526959    1.992614
     16          1           0        2.085875   -0.421820    1.530796
     17          1           0       -2.151011   -0.264837   -1.343974
     18          1           0       -0.638916   -1.380547    1.275497
     19          1           0       -1.326628    1.819176    0.187068
 ---------------------------------------------------------------------

 SCF Done:  E(RB3LYP) =  -439.495720792     A.U. after    1 cycles

 The electronic state is 1-A.
 Alpha  occ. eigenvalues --  -19.15585 -19.14372 -19.13877 -14.32504 -10.32502
 Alpha  occ. eigenvalues --  -10.22517 -10.17897 -10.17142  -1.09280  -0.99849
 Alpha  occ. eigenvalues --   -0.99031  -0.89488  -0.75914  -0.68880  -0.65515
 Alpha  occ. eigenvalues --   -0.57623  -0.55121  -0.52006  -0.49397  -0.45721
 Alpha  occ. eigenvalues --   -0.44775  -0.42153  -0.40377  -0.39160  -0.38765
 Alpha  occ. eigenvalues --   -0.37027  -0.36309  -0.35069  -0.33813  -0.29200
 Alpha  occ. eigenvalues --   -0.28477  -0.27914  -0.25276
 Alpha virt. eigenvalues --    0.06375   0.09499   0.10704   0.12673   0.14249
 Alpha virt. eigenvalues --    0.14873   0.15762   0.16778   0.17344   0.18454
 Alpha virt. eigenvalues --    0.21342   0.22173   0.23415   0.24147   0.27074

 Mulliken charges:
               1
     1  C   -0.329181
     2  C    0.103261
     3  C   -0.296655
     4  N   -0.623645
     5  C    0.714139
     6  O   -0.551816
     7  O   -0.556170
     8  O   -0.550335
     9  H    0.122953
    10  H    0.092752
    11  H    0.098116
    12  H    0.125438
    13  H    0.116417
    14  H    0.085389
    15  H    0.256313
    16  H    0.242071
    17  H    0.318038
    18  H    0.328579
    19  H    0.304337
 Sum of Mulliken charges =   0.00000

 Dipole moment (field-independent basis, Debye):
    X=              1.7774    Y=              1.3505    Z=             -0.1559  Tot=              2.2378
 Quadrupole moment (field-independent basis, Debye-Ang):
   XX=            -45.4252   YY=            -47.5957   ZZ=            -49.3981
   XY=             -1.1159   XZ=              5.0200   YZ=              0.1891

  Exact polarizability:  62.351  -0.147  59.355   1.712  -0.419  58.264
 Approx polarizability:  83.344   0.084  81.785   2.326  -1.681  83.984

                      1                      2                      3
                      A                      A                      A
 Frequencies --    103.0726               205.0931               223.6193
 Red. masses --      4.0618                 1.2584                 1.1788
 Frc consts  --      0.0254                 0.0312                 0.0347
 IR Inten    --      4.8915                57.7667                 7.8035

                      4                      5                      6
                      A                      A                      A
 Frequencies --    246.1058               258.6254               289.5275
 Red. masses --      1.9293                 1.9148                 1.4323
 Frc consts  --      0.0688                 0.0755                 0.0707
 IR Inten    --     10.4417                20.6474                 2.7858

                      7                      8                      9
                      A                      A                      A
 Frequencies --    319.7860               346.4319               354.0536
 Red. masses --      1.4161                 2.1090                 2.6234
 Frc consts  --      0.0853                 0.1491                 0.1938
 IR Inten    --      9.0438                10.5657                10.5908

                     10                     11                     12
                      A                      A                      A
 Frequencies --    370.4117               398.0530               453.5378
 Red. masses --      2.0674                 1.5108                 2.9968
 Frc consts  --      0.1671                 0.1410                 0.3632
 IR Inten    --     13.6978                53.0666                12.7672

                     13                     14                     15
                      A                      A                      A
 Frequencies --    490.9581               545.8170               578.5160
 Red. masses --      2.5708                 2.3031                 5.4581
 Frc consts  --      0.3651                 0.4043                 1.0763
 IR Inten    --     50.6216                28.8447                 6.4830

                     16                     17                     18
                      A                      A                      A
 Frequencies --    588.2722               627.6687               733.7126
 Red. masses --      3.8814                 1.3339                 4.7552
 Frc consts  --      0.7914                 0.3096                 1.5082
 IR Inten    --     33.0587                87.5043                15.9590

                     19                     20                     21
                      A                      A                      A
 Frequencies --    848.3399               928.5931               945.9389
 Red. masses --      2.6329                 1.2849                 1.4988
 Frc consts  --      1.1164                 0.6528                 0.7901
 IR Inten    --     31.0918               100.7314                 2.1001

                     22                     23                     24
                      A                      A                      A
 Frequencies --    975.6224              1018.0482              1030.0193
 Red. masses --      1.8174                 1.5309                 2.3638
 Frc consts  --      1.0192                 0.9349                 1.4776
 IR Inten    --      1.8431                32.3163               103.5395

                     25                     26                     27
                      A                      A                      A
 Frequencies --   1074.3172              1099.5967              1119.0531
 Red. masses --      1.9069                 3.1583                 2.1389
 Frc consts  --      1.2967                 2.2499                 1.5781
 IR Inten    --    117.2143               103.8147               181.2440

                     28                     29                     30
                      A                      A                      A
 Frequencies --   1228.7888              1258.5224              1275.4947
 Red. masses --      2.5589                 2.0295                 1.4110
 Frc consts  --      2.2765                 1.8939                 1.3525
 IR Inten    --     48.5550                 4.4497                94.0214

                     31                     32                     33
                      A                      A                      A
 Frequencies --   1340.7600              1395.8371              1409.0083
 Red. masses --      1.8783                 1.9704                 1.3259
 Frc consts  --      1.9894                 2.2619                 1.5510
 IR Inten    --     30.4145               110.4825                15.7321

                     34                     35                     36
                      A                      A                      A
 Frequencies --   1423.6059              1472.4363              1495.2852
 Red. masses --      1.2742                 1.6597                 1.0507
 Frc consts  --      1.5215                 2.1201                 1.3842
 IR Inten    --      9.6183               138.9447                 1.2180

                     37                     38                     39
                      A                      A                      A
 Frequencies --   1506.9104              1515.0105              1533.7639
 Red. masses --      1.0493                 1.0596                 1.0941
 Frc consts  --      1.4038                 1.4329                 1.5165
 IR Inten    --      3.0113                 4.6612                23.6277

                     40                     41                     42
                      A                      A                      A
 Frequencies --   1643.6795              3041.7186              3049.2003
 Red. masses --      1.1012                 1.0360                 1.0426
 Frc consts  --      1.7529                 5.6473                 5.7114
 IR Inten    --     43.5090                20.5419                25.0085

                     43                     44                     45
                      A                      A                      A
 Frequencies --   3112.0120              3122.8158              3128.6834
 Red. masses --      1.1021                 1.1016                 1.0943
 Frc consts  --      6.2884                 6.3295                 6.3110
 IR Inten    --     28.0658                11.7790                28.2161

                     46                     47                     48
                      A                      A                      A
 Frequencies --   3159.4892              3496.0831              3588.2041
 Red. masses --      1.1031                 1.0490                 1.0936
 Frc consts  --      6.4879                 7.5541                 8.2957
 IR Inten    --     13.2148                 0.3989                 1.5376

                     49                     50                     51
                      A                      A                      A
 Frequencies --   3631.3654              3795.7479              3818.0928
 Red. masses --      1.0641                 1.0652                 1.0654
 Frc consts  --      8.2678                 9.0419                 9.1504
 IR Inten    --    122.6575                42.2772                22.1897

 - Thermochemistry -
 -------------------
 Temperature   298.150 Kelvin.  Pressure   1.00000 Atm.
 Atom     1 has atomic number  6 and mass  12.00000

 Molecular mass:   121.07389 amu.
 Principal axes and moments of inertia in atomic units:
                           1         2         3
     Eigenvalues --   715.37997 990.86628 998.46108
           X            0.99999  -0.00152  -0.00382
           Y            0.00245   0.96624   0.25765
           Z            0.00330  -0.25766   0.96623
 This molecule is an asymmetric top.
 Rotational symmetry number  1.
 Warning -- assumption of classical behavior for rotation
           may cause significant error
 Rotational temperatures (Kelvin)      0.12107     0.08741     0.08675
 Rotational constants (GHZ):           2.52277     1.82138     1.80752
 Zero-point vibrational energy     428354.7 (Joules/Mol)
                                  102.37922 (Kcal/Mol)
 Warning -- explicit consideration of  16 degrees of freedom as
           vibrations may cause significant error
 Vibrational temperatures:    148.30   295.08   321.74   354.09   372.10
          (Kelvin)            416.56   460.10   498.44   509.40   532.94
                              572.71   652.54   706.38   785.31   832.35
                              846.39   903.07  1055.65  1220.57  1336.04
                             1360.99  1403.70  1464.74  1481.97  1545.70
                             1582.07  1610.07  1767.95  1810.73  1835.15
                             1929.05  2008.30  2027.25  2048.25  2118.50
                             2151.38  2168.11  2179.76  2206.74  2364.89
                             4376.35  4387.11  4477.49  4493.03  4501.47
                             4545.79  5030.08  5162.62  5224.72  5461.23
                             5493.38

 Zero-point correction=                           0.163152 (Hartree/Particle)
 Thermal correction to Energy=                    0.172668
 Thermal correction to Enthalpy=                  0.173612
 Thermal correction to Gibbs Free Energy=         0.130323
 Sum of electronic and zero-point Energies=           -439.332569
 Sum of electronic and thermal Energies=              -439.323053
 Sum of electronic and thermal Enthalpies=            -439.322109
 Sum of electronic and thermal Free Energies=         -439.365398

                     E (Thermal)             CV                S
                      KCal/Mol        Cal/Mol-Kelvin    Cal/Mol-Kelvin
 Total                  108.351             36.996             91.110
 Electronic               0.000              0.000              0.000
 Translational            0.889              2.981             40.288
 Rotational               0.889              2.981             28.050
 Vibrational            106.573             31.035             22.771
 Vibration     1          0.605              1.947              3.395
 Vibration     2          0.640              1.833              2.087
 Vibration     3          0.649              1.805              1.930
 Vibration     4          0.661              1.769              1.758
 Vibration     5          0.667              1.748              1.671
 Vibration     6          0.686              1.693              1.477
 Vibration     7          0.706              1.636              1.311
 Vibration     8          0.724              1.583              1.182
 Vibration     9          0.730              1.567              1.148
 Vibration    10          0.742              1.533              1.078
 Vibration    11          0.764              1.474              0.970
 Vibration    12          0.812              1.353              0.785
 Vibration    13          0.847              1.270              0.681
 Vibration    14          0.901              1.149              0.553
 Vibration    15          0.935              1.078              0.488
 Vibration    16          0.945              1.057              0.470

 Normal termination of Gaussian 09 at Thu Sep  8 14:54:46 2022.
