 Gaussian 09, Revision E.01,
 Gaussian 09:  ES64L-G09RevE.01 30-Nov-2015

 --------------------------------
 #P OPT=calcfc Freq B3LYP/6-31G**
 --------------------------------

 --------
 Frag_350
 --------
 Symbolic Z-matrix:
 Charge =  0 Multiplicity = 1

 SCF Done:  E(RB3LYP) =  -303.787455601     A.U. after   14 cycles
 SCF Done:  E(RB3LYP) =  -303.801106728     A.U. after   13 cycles
 SCF Done:  E(RB3LYP) =  -303.800763490     A.U. after   13 cycles
 SCF Done:  E(RB3LYP) =  -303.802686305     A.U. after   11 cycles
 SCF Done:  E(RB3LYP) =  -303.804047009     A.U. after   12 cycles
 SCF Done:  E(RB3LYP) =  -303.804162512     A.U. after   11 cycles
 SCF Done:  E(RB3LYP) =  -303.803732383     A.U. after   12 cycles
 SCF Done:  E(RB3LYP) =  -303.804343236     A.U. after   10 cycles
 SCF Done:  E(RB3LYP) =  -303.804382653     A.U. after   11 cycles
 SCF Done:  E(RB3LYP) =  -303.804386593     A.U. after   11 cycles
 SCF Done:  E(RB3LYP) =  -303.804387892     A.U. after    9 cycles
 Optimization completed.
    -- Stationary point found.
 Normal termination of Gaussian 09 at Fri Sep 10 20:42:52 2021.

 ----------------------------------------------------------------------
 #P Geom=AllCheck Guess=TCheck SCRF=Check GenChk RB3LYP/6-31G(d,p) Freq
 ----------------------------------------------------------------------

 Structure from the checkpoint file:  "/public/home/users/caep010/.cache/gau_scr/Gau-183324.chk"
 --------
 Frag_350
 --------
 Charge =  0 Multiplicity = 1

                         Standard orientation:
 ---------------------------------------------------------------------
 Center     Atomic      Atomic             Coordinates (Angstroms)
 Number     Number       Type             X           Y           Z
 ---------------------------------------------------------------------
      1          6           0        1.779724   -0.715852    0.019823
      2          6           0        0.697331    0.333242    0.039433
      3          7           0        1.012022    1.566510   -0.095386
      4          7           0       -0.601702   -0.151859    0.301257
      5          6           0       -1.748931    0.689032   -0.015491
      6          8           0       -0.808831   -1.460198   -0.244484
      7          1           0        1.730505   -1.353786    0.908221
      8          1           0        1.675392   -1.365037   -0.853539
      9          1           0        2.743709   -0.209341   -0.013356
     10          1           0        0.193506    2.177650   -0.097156
     11          1           0       -1.721450    1.588271    0.605130
     12          1           0       -2.652094    0.132561    0.236625
     13          1           0       -1.787719    0.978288   -1.075036
     14          1           0       -0.952189   -2.008121    0.541302
 ---------------------------------------------------------------------

 SCF Done:  E(RB3LYP) =  -303.804387892     A.U. after    1 cycles

 The electronic state is 1-A.
 Alpha  occ. eigenvalues --  -19.19237 -14.40026 -14.29609 -10.25395 -10.22370
 Alpha  occ. eigenvalues --  -10.17801  -1.08130  -0.91760  -0.83129  -0.73815
 Alpha  occ. eigenvalues --   -0.68087  -0.56203  -0.52530  -0.51150  -0.47077
 Alpha  occ. eigenvalues --   -0.42418  -0.41337  -0.40970  -0.38727  -0.38054
 Alpha  occ. eigenvalues --   -0.31850  -0.31709  -0.25664  -0.23112
 Alpha virt. eigenvalues --    0.02125   0.06595   0.09379   0.11190   0.13898
 Alpha virt. eigenvalues --    0.15012   0.15852   0.16770   0.18775   0.19842
 Alpha virt. eigenvalues --    0.19956   0.25737   0.31674   0.43035   0.52147

 Mulliken charges:
               1
     1  C   -0.352268
     2  C    0.466145
     3  N   -0.559095
     4  N   -0.261876
     5  C   -0.167494
     6  O   -0.423928
     7  H    0.108958
     8  H    0.137632
     9  H    0.136795
    10  H    0.212813
    11  H    0.125315
    12  H    0.121506
    13  H    0.122255
    14  H    0.333244
 Sum of Mulliken charges =  -0.00000

 Dipole moment (field-independent basis, Debye):
    X=             -2.4270    Y=             -1.5069    Z=              1.0557  Tot=              3.0456
 Quadrupole moment (field-independent basis, Debye-Ang):
   XX=            -36.2333   YY=            -35.2716   ZZ=            -37.3759
   XY=             -4.8020   XZ=             -0.9238   YZ=             -2.3548

  Exact polarizability:  55.339   1.479  60.541  -0.806  -2.304  34.995
 Approx polarizability:  70.474  10.125  94.500  -2.395  -4.065  51.418

                      1                      2                      3
                      A                      A                      A
 Frequencies --     96.6712               182.9584               195.2013
 Red. masses --      3.3033                 1.0983                 1.1094
 Frc consts  --      0.0182                 0.0217                 0.0249
 IR Inten    --      0.9700                 0.9571                 0.2387

                      4                      5                      6
                      A                      A                      A
 Frequencies --    270.8776               307.8274               363.1845
 Red. masses --      3.5051                 2.5699                 1.1893
 Frc consts  --      0.1515                 0.1435                 0.0924
 IR Inten    --      4.3216                 0.1870               120.8812

                      7                      8                      9
                      A                      A                      A
 Frequencies --    415.7105               492.6763               552.4980
 Red. masses --      2.6721                 3.2386                 3.7991
 Frc consts  --      0.2721                 0.4632                 0.6833
 IR Inten    --      1.2860                 8.0971                11.3653

                     10                     11                     12
                      A                      A                      A
 Frequencies --    571.0749               736.2851               867.4844
 Red. masses --      2.2084                 4.3956                 1.3979
 Frc consts  --      0.4243                 1.4040                 0.6198
 IR Inten    --      8.9434                15.4837                78.8019

                     13                     14                     15
                      A                      A                      A
 Frequencies --    936.0804              1005.9999              1075.6166
 Red. masses --      2.7507                 1.9193                 1.5258
 Frc consts  --      1.4201                 1.1444                 1.0401
 IR Inten    --      1.1534                13.6215                 0.6242

                     16                     17                     18
                      A                      A                      A
 Frequencies --   1105.8070              1129.5935              1175.6406
 Red. masses --      1.7549                 1.6082                 1.7723
 Frc consts  --      1.2643                 1.2090                 1.4432
 IR Inten    --     28.2140                21.5501                 7.2204

                     19                     20                     21
                      A                      A                      A
 Frequencies --   1238.5138              1369.0132              1385.6010
 Red. masses --      2.0424                 1.4547                 1.4411
 Frc consts  --      1.8459                 1.6064                 1.6301
 IR Inten    --     47.5073                22.2777               167.3146

                     22                     23                     24
                      A                      A                      A
 Frequencies --   1423.1300              1453.4872              1487.7034
 Red. masses --      1.5851                 1.2260                 1.0672
 Frc consts  --      1.8914                 1.5260                 1.3917
 IR Inten    --     72.1477                 9.8691                 4.1161

                     25                     26                     27
                      A                      A                      A
 Frequencies --   1496.2117              1506.4288              1512.2419
 Red. masses --      1.0481                 1.0554                 1.0561
 Frc consts  --      1.3824                 1.4111                 1.4230
 IR Inten    --      6.8143                 9.0658                11.4665

                     28                     29                     30
                      A                      A                      A
 Frequencies --   1713.6230              3020.2768              3061.6146
 Red. masses --      7.6597                 1.0463                 1.0389
 Frc consts  --     13.2524                 5.6232                 5.7375
 IR Inten    --    117.3360                37.9878                12.0697

                     31                     32                     33
                      A                      A                      A
 Frequencies --   3111.7019              3125.8856              3155.9554
 Red. masses --      1.0917                 1.0987                 1.1017
 Frc consts  --      6.2280                 6.3251                 6.4652
 IR Inten    --     20.4024                12.8053                11.5121

                     34                     35                     36
                      A                      A                      A
 Frequencies --   3176.6997              3487.4560              3775.5167
 Red. masses --      1.1024                 1.0736                 1.0686
 Frc consts  --      6.5547                 7.6936                 8.9743
 IR Inten    --      7.2701                 6.6041                34.2997

 - Thermochemistry -
 -------------------
 Temperature   298.150 Kelvin.  Pressure   1.00000 Atm.
 Atom     1 has atomic number  6 and mass  12.00000

 Molecular mass:    88.06366 amu.
 Principal axes and moments of inertia in atomic units:
                           1         2         3
     Eigenvalues --   366.15649 518.98724 843.58236
           X            0.98336  -0.18166  -0.00045
           Y            0.18163   0.98325  -0.01520
           Z            0.00320   0.01486   0.99988
 This molecule is an asymmetric top.
 Rotational symmetry number  1.
 Rotational temperatures (Kelvin)      0.23655     0.16689     0.10267
 Rotational constants (GHZ):           4.92888     3.47743     2.13938
 Zero-point vibrational energy     310922.9 (Joules/Mol)
                                   74.31235 (Kcal/Mol)
 Warning -- explicit consideration of  10 degrees of freedom as
           vibrations may cause significant error
 Vibrational temperatures:    139.09   263.24   280.85   389.73   442.89
          (Kelvin)            522.54   598.11   708.85   794.92   821.65
                             1059.35  1248.11  1346.81  1447.41  1547.57
                             1591.01  1625.23  1691.48  1781.94  1969.70
                             1993.57  2047.56  2091.24  2140.47  2152.71
                             2167.41  2175.78  2465.52  4345.50  4404.98
                             4477.04  4497.45  4540.71  4570.56  5017.67
                             5432.12

 Zero-point correction=                           0.118424 (Hartree/Particle)
 Thermal correction to Energy=                    0.125658
 Thermal correction to Enthalpy=                  0.126603
 Thermal correction to Gibbs Free Energy=         0.087816
 Sum of electronic and zero-point Energies=           -303.685964
 Sum of electronic and thermal Energies=              -303.678729
 Sum of electronic and thermal Enthalpies=            -303.677785
 Sum of electronic and thermal Free Energies=         -303.716571

                     E (Thermal)             CV                S
                      KCal/Mol        Cal/Mol-Kelvin    Cal/Mol-Kelvin
 Total                   78.852             25.601             81.633
 Electronic               0.000              0.000              0.000
 Translational            0.889              2.981             39.339
 Rotational               0.889              2.981             26.575
 Vibrational             77.074             19.640             15.719
 Vibration     1          0.603              1.952              3.520
 Vibration     2          0.630              1.863              2.298
 Vibration     3          0.636              1.847              2.178
 Vibration     4          0.675              1.727              1.591
 Vibration     5          0.698              1.659              1.374
 Vibration     6          0.737              1.548              1.108
 Vibration     7          0.779              1.436              0.907
 Vibration     8          0.848              1.266              0.677
 Vibration     9          0.908              1.134              0.539
 Vibration    10          0.927              1.094              0.502

 Normal termination of Gaussian 09 at Fri Sep 10 20:43:03 2021.
