 Gaussian 09, Revision E.01,
 Gaussian 09:  ES64L-G09RevE.01 30-Nov-2015

 ----------------------------
 #P OPT Freq B3LYP/6-31G(d,p)
 ----------------------------

 ---------
 Frag_1131
 ---------
 Symbolic Z-matrix:
 Charge =  0 Multiplicity = 1

 SCF Done:  E(RB3LYP) =  -340.838840263     A.U. after   13 cycles
 SCF Done:  E(RB3LYP) =  -340.838049822     A.U. after   12 cycles
 SCF Done:  E(RB3LYP) =  -340.838884625     A.U. after    8 cycles
 SCF Done:  E(RB3LYP) =  -340.838952085     A.U. after   10 cycles
 SCF Done:  E(RB3LYP) =  -340.838968710     A.U. after    9 cycles
 SCF Done:  E(RB3LYP) =  -340.838974724     A.U. after    8 cycles
 SCF Done:  E(RB3LYP) =  -340.838976661     A.U. after    8 cycles
 SCF Done:  E(RB3LYP) =  -340.838977322     A.U. after    7 cycles
 SCF Done:  E(RB3LYP) =  -340.838977540     A.U. after    7 cycles
 Optimization completed.
    -- Stationary point found.
 Normal termination of Gaussian 09 at Thu Sep  8 14:49:00 2022.

 ----------------------------------------------------------------------
 #P Geom=AllCheck Guess=TCheck SCRF=Check GenChk RB3LYP/6-31G(d,p) Freq
 ----------------------------------------------------------------------

 Structure from the checkpoint file:  "B3LYP6-31Gdp.Frag_1131.chk"
 ---------
 Frag_1131
 ---------
 Charge =  0 Multiplicity = 1

                         Standard orientation:
 ---------------------------------------------------------------------
 Center     Atomic      Atomic             Coordinates (Angstroms)
 Number     Number       Type             X           Y           Z
 ---------------------------------------------------------------------
      1          6           0        1.498138    1.098081    0.165902
      2          7           0        0.633741    0.055981   -0.402477
      3          8           0        1.288169   -1.162575   -0.010792
      4          7           0       -0.633741    0.055981    0.402477
      5          6           0       -1.498138    1.098080   -0.165902
      6          8           0       -1.288169   -1.162575    0.010792
      7          1           0        2.474544    1.002597   -0.310553
      8          1           0        1.086395    2.079614   -0.075404
      9          1           0        1.600849    0.992696    1.252962
     10          1           0        1.027231   -1.754658   -0.730117
     11          1           0       -1.600849    0.992696   -1.252962
     12          1           0       -1.086396    2.079613    0.075404
     13          1           0       -2.474544    1.002597    0.310553
     14          1           0       -1.027231   -1.754658    0.730117
 ---------------------------------------------------------------------

 SCF Done:  E(RB3LYP) =  -340.838977540     A.U. after    1 cycles

 The electronic state is 1-A.
 Alpha  occ. eigenvalues --  -19.17315 -19.17314 -14.40070 -14.40059 -10.20489
 Alpha  occ. eigenvalues --  -10.20488  -1.09209  -1.03640  -0.88356  -0.78232
 Alpha  occ. eigenvalues --   -0.67880  -0.60552  -0.53618  -0.50430  -0.47803
 Alpha  occ. eigenvalues --   -0.44102  -0.42126  -0.41121  -0.40717  -0.38794
 Alpha  occ. eigenvalues --   -0.37781  -0.30923  -0.29843  -0.28150  -0.21011
 Alpha virt. eigenvalues --    0.06239   0.09718   0.10652   0.12307   0.12887
 Alpha virt. eigenvalues --    0.14776   0.16222   0.17740   0.17974   0.18534
 Alpha virt. eigenvalues --    0.19365   0.22387   0.23264   0.52145   0.53367

 Mulliken charges:
               1
     1  C   -0.139819
     2  N   -0.113410
     3  O   -0.430178
     4  N   -0.113410
     5  C   -0.139819
     6  O   -0.430178
     7  H    0.127884
     8  H    0.111764
     9  H    0.116436
    10  H    0.327324
    11  H    0.116436
    12  H    0.111764
    13  H    0.127884
    14  H    0.327324
 Sum of Mulliken charges =  -0.00000

 Dipole moment (field-independent basis, Debye):
    X=             -0.0000    Y=              0.4095    Z=             -0.0000  Tot=              0.4095
 Quadrupole moment (field-independent basis, Debye-Ang):
   XX=            -36.9611   YY=            -30.1112   ZZ=            -37.5603
   XY=             -0.0000   XZ=             -1.7024   YZ=             -0.0000

  Exact polarizability:  52.283  -0.000  52.365   0.311   0.000  36.224
 Approx polarizability:  67.214  -0.000  72.864   0.556   0.000  52.770

                      1                      2                      3
                      A                      A                      A
 Frequencies --     78.6959               219.6127               242.5374
 Red. masses --      2.8454                 1.0450                 1.3094
 Frc consts  --      0.0104                 0.0297                 0.0454
 IR Inten    --      0.2735                39.6382                 0.0118

                      4                      5                      6
                      A                      A                      A
 Frequencies --    242.5674               305.9605               372.5051
 Red. masses --      1.1090                 2.6114                 2.9269
 Frc consts  --      0.0384                 0.1440                 0.2393
 IR Inten    --    167.4609                 0.2062                10.4347

                      7                      8                      9
                      A                      A                      A
 Frequencies --    412.6367               466.0088               491.9785
 Red. masses --      3.1514                 2.9567                 1.1998
 Frc consts  --      0.3161                 0.3783                 0.1711
 IR Inten    --      3.9583                 7.8485                 2.8304

                     10                     11                     12
                      A                      A                      A
 Frequencies --    555.1772               565.6963               784.9168
 Red. masses --      6.4303                 3.2705                 3.3543
 Frc consts  --      1.1677                 0.6166                 1.2176
 IR Inten    --      7.5840                11.9414                 2.3277

                     13                     14                     15
                      A                      A                      A
 Frequencies --    882.0919               886.9038              1059.7253
 Red. masses --      4.6882                 4.7521                 5.6008
 Frc consts  --      2.1492                 2.2024                 3.7058
 IR Inten    --     52.8991                17.0169                22.1934

                     16                     17                     18
                      A                      A                      A
 Frequencies --   1083.0064              1146.5458              1172.7511
 Red. masses --      3.7455                 1.3573                 1.5353
 Frc consts  --      2.5884                 1.0512                 1.2441
 IR Inten    --     27.7773                 6.1935                 2.4474

                     19                     20                     21
                      A                      A                      A
 Frequencies --   1181.7444              1194.6417              1393.1924
 Red. masses --      1.6627                 1.8206                 1.2505
 Frc consts  --      1.3681                 1.5309                 1.4301
 IR Inten    --      2.1254                18.2775                30.2387

                     22                     23                     24
                      A                      A                      A
 Frequencies --   1410.9437              1434.0546              1447.5661
 Red. masses --      1.2463                 1.1942                 1.1866
 Frc consts  --      1.4618                 1.4470                 1.4650
 IR Inten    --     92.1510                 0.3036                 0.9312

                     25                     26                     27
                      A                      A                      A
 Frequencies --   1493.3764              1499.7250              1505.9087
 Red. masses --      1.0438                 1.0466                 1.0441
 Frc consts  --      1.3716                 1.3870                 1.3951
 IR Inten    --     10.8977                 0.4993                 6.3716

                     28                     29                     30
                      A                      A                      A
 Frequencies --   1507.1809              3038.0213              3041.3702
 Red. masses --      1.0461                 1.0401                 1.0425
 Frc consts  --      1.4000                 5.6559                 5.6817
 IR Inten    --      5.8212                44.6899                17.9842

                     31                     32                     33
                      A                      A                      A
 Frequencies --   3131.1286              3137.5885              3162.0975
 Red. masses --      1.0956                 1.0928                 1.1042
 Frc consts  --      6.3286                 6.3382                 6.5048
 IR Inten    --     27.6000                10.9726                22.1901

                     34                     35                     36
                      A                      A                      A
 Frequencies --   3168.0047              3806.8541              3808.2115
 Red. masses --      1.1038                 1.0674                 1.0670
 Frc consts  --      6.5270                 9.1143                 9.1175
 IR Inten    --     11.0483                34.9407                52.7473

 - Thermochemistry -
 -------------------
 Temperature   298.150 Kelvin.  Pressure   1.00000 Atm.
 Atom     1 has atomic number  6 and mass  12.00000

 Molecular mass:    92.05858 amu.
 Principal axes and moments of inertia in atomic units:
                           1         2         3
     Eigenvalues --   359.28672 535.14915 825.58073
           X            0.99998  -0.00000   0.00617
           Y            0.00000   1.00000   0.00000
           Z           -0.00617  -0.00000   0.99998
 This molecule is an asymmetric top.
 Rotational symmetry number  1.
 Rotational temperatures (Kelvin)      0.24107     0.16185     0.10491
 Rotational constants (GHZ):           5.02312     3.37241     2.18603
 Zero-point vibrational energy     307027.1 (Joules/Mol)
                                   73.38124 (Kcal/Mol)
 Warning -- explicit consideration of  11 degrees of freedom as
           vibrations may cause significant error
 Vibrational temperatures:    113.23   315.97   348.96   349.00   440.21
          (Kelvin)            535.95   593.69   670.48   707.85   798.78
                              813.91  1129.32  1269.13  1276.06  1524.71
                             1558.20  1649.62  1687.33  1700.26  1718.82
                             2004.49  2030.03  2063.28  2082.72  2148.63
                             2157.77  2166.66  2168.49  4371.03  4375.85
                             4504.99  4514.28  4549.55  4558.05  5477.21
                             5479.16

 Zero-point correction=                           0.116940 (Hartree/Particle)
 Thermal correction to Energy=                    0.124343
 Thermal correction to Enthalpy=                  0.125287
 Thermal correction to Gibbs Free Energy=         0.086189
 Sum of electronic and zero-point Energies=           -340.722037
 Sum of electronic and thermal Energies=              -340.714635
 Sum of electronic and thermal Enthalpies=            -340.713691
 Sum of electronic and thermal Free Energies=         -340.752789

                     E (Thermal)             CV                S
                      KCal/Mol        Cal/Mol-Kelvin    Cal/Mol-Kelvin
 Total                   78.026             26.662             82.289
 Electronic               0.000              0.000              0.000
 Translational            0.889              2.981             39.471
 Rotational               0.889              2.981             26.565
 Vibrational             76.249             20.700             16.253
 Vibration     1          0.600              1.963              3.923
 Vibration     2          0.647              1.811              1.962
 Vibration     3          0.659              1.775              1.784
 Vibration     4          0.659              1.775              1.784
 Vibration     5          0.696              1.662              1.384
 Vibration     6          0.744              1.529              1.069
 Vibration     7          0.776              1.443              0.917
 Vibration     8          0.823              1.325              0.749
 Vibration     9          0.848              1.268              0.678
 Vibration    10          0.911              1.128              0.534
 Vibration    11          0.922              1.105              0.513

 Optimization completed.
    -- Stationary point found.
 Normal termination of Gaussian 09 at Thu Sep  8 14:49:12 2022.
