 Gaussian 09, Revision E.01,
 Gaussian 09:  ES64L-G09RevE.01 30-Nov-2015

 ----------------------------
 #P OPT Freq B3LYP/6-31G(d,p)
 ----------------------------

 ---------
 Frag_1087
 ---------
 Symbolic Z-matrix:
 Charge =  0 Multiplicity = 1

 SCF Done:  E(RB3LYP) =  -321.110105966     A.U. after   13 cycles
 SCF Done:  E(RB3LYP) =  -321.110145303     A.U. after   10 cycles
 SCF Done:  E(RB3LYP) =  -321.110153015     A.U. after    8 cycles
 SCF Done:  E(RB3LYP) =  -321.110155326     A.U. after    7 cycles
 SCF Done:  E(RB3LYP) =  -321.110156191     A.U. after    7 cycles
 SCF Done:  E(RB3LYP) =  -321.110157302     A.U. after    7 cycles
 SCF Done:  E(RB3LYP) =  -321.110157364     A.U. after    7 cycles
 Optimization completed.
    -- Stationary point found.
 Normal termination of Gaussian 09 at Thu Sep  8 14:46:42 2022.

 ----------------------------------------------------------------------
 #P Geom=AllCheck Guess=TCheck SCRF=Check GenChk RB3LYP/6-31G(d,p) Freq
 ----------------------------------------------------------------------

 Structure from the checkpoint file:  "B3LYP6-31Gdp.Frag_1087.chk"
 ---------
 Frag_1087
 ---------
 Charge =  0 Multiplicity = 1

                         Standard orientation:
 ---------------------------------------------------------------------
 Center     Atomic      Atomic             Coordinates (Angstroms)
 Number     Number       Type             X           Y           Z
 ---------------------------------------------------------------------
      1          6           0        2.006797   -0.001209   -0.091612
      2          8           0        0.778617   -0.497939   -0.608100
      3          6           0       -0.407010    0.003995    0.003022
      4          7           0       -0.409068    1.455349    0.054216
      5          7           0       -1.532902   -0.386532   -0.826523
      6          7           0       -0.472428   -0.574884    1.342924
      7          1           0        2.116541    1.071441   -0.292936
      8          1           0        2.801028   -0.541530   -0.612339
      9          1           0        2.096510   -0.179547    0.986991
     10          1           0       -1.372810    1.772024    0.103605
     11          1           0        0.060326    1.759749    0.902338
     12          1           0       -1.383261    0.009615   -1.754009
     13          1           0       -1.501209   -1.396963   -0.945349
     14          1           0       -1.395550   -0.401938    1.734135
     15          1           0       -0.348451   -1.583590    1.279588
 ---------------------------------------------------------------------

 SCF Done:  E(RB3LYP) =  -321.110157364     A.U. after    1 cycles

 The electronic state is 1-A.
 Alpha  occ. eigenvalues --  -19.13593 -14.31468 -14.31452 -14.31159 -10.30840
 Alpha  occ. eigenvalues --  -10.21316  -1.03867  -0.91829  -0.84379  -0.84211
 Alpha  occ. eigenvalues --   -0.68367  -0.58464  -0.52566  -0.49882  -0.49411
 Alpha  occ. eigenvalues --   -0.46045  -0.43386  -0.42312  -0.40553  -0.40035
 Alpha  occ. eigenvalues --   -0.31493  -0.26980  -0.26334  -0.25122  -0.24158
 Alpha virt. eigenvalues --    0.07140   0.11688   0.12416   0.13782   0.15010
 Alpha virt. eigenvalues --    0.16492   0.16703   0.17830   0.18260   0.19490
 Alpha virt. eigenvalues --    0.26235   0.27821   0.28767   0.30509   0.53347

 Mulliken charges:
               1
     1  C   -0.073223
     2  O   -0.492999
     3  C    0.548144
     4  N   -0.592571
     5  N   -0.594491
     6  N   -0.580069
     7  H    0.106530
     8  H    0.106139
     9  H    0.105155
    10  H    0.250341
    11  H    0.247380
    12  H    0.251665
    13  H    0.238694
    14  H    0.240005
    15  H    0.239301
 Sum of Mulliken charges =  -0.00000

 Dipole moment (field-independent basis, Debye):
    X=             -0.5920    Y=             -0.5203    Z=              0.8323  Tot=              1.1462
 Quadrupole moment (field-independent basis, Debye-Ang):
   XX=            -35.5530   YY=            -34.2601   ZZ=            -36.8049
   XY=              0.5832   XZ=             -0.4690   YZ=              1.5091

  Exact polarizability:  51.546  -0.211  46.528   0.767  -0.182  43.670
 Approx polarizability:  64.586  -0.940  64.343   1.412   0.340  59.924

                      1                      2                      3
                      A                      A                      A
 Frequencies --    130.5118               179.1865               266.4599
 Red. masses --      2.4973                 1.1325                 1.3022
 Frc consts  --      0.0251                 0.0214                 0.0545
 IR Inten    --      5.0505                 6.6636                10.0068

                      4                      5                      6
                      A                      A                      A
 Frequencies --    283.0801               298.7980               325.7771
 Red. masses --      1.8313                 1.1139                 1.2850
 Frc consts  --      0.0865                 0.0586                 0.0804
 IR Inten    --     17.9610                30.1868                45.5236

                      7                      8                      9
                      A                      A                      A
 Frequencies --    404.9554               435.0613               501.4203
 Red. masses --      3.0050                 2.2151                 2.5964
 Frc consts  --      0.2903                 0.2470                 0.3846
 IR Inten    --     10.2332                34.8539                21.1595

                     10                     11                     12
                      A                      A                      A
 Frequencies --    547.5628               585.0042               793.8641
 Red. masses --      3.7603                 3.1324                 4.0963
 Frc consts  --      0.6643                 0.6316                 1.5210
 IR Inten    --      5.5727                 2.6180                19.1042

                     13                     14                     15
                      A                      A                      A
 Frequencies --    832.4766               885.0771               940.3125
 Red. masses --      2.0775                 1.5556                 1.3756
 Frc consts  --      0.8483                 0.7180                 0.7166
 IR Inten    --    100.3563               152.7227               194.9582

                     16                     17                     18
                      A                      A                      A
 Frequencies --    973.6060              1031.6524              1107.4015
 Red. masses --      1.9872                 1.8347                 4.5706
 Frc consts  --      1.1098                 1.1505                 3.3024
 IR Inten    --    170.0838                42.0808               140.0156

                     19                     20                     21
                      A                      A                      A
 Frequencies --   1111.8242              1181.1623              1215.7823
 Red. masses --      1.7130                 1.2949                 1.4123
 Frc consts  --      1.2476                 1.0644                 1.2299
 IR Inten    --     30.9207                 4.4338                 7.9176

                     22                     23                     24
                      A                      A                      A
 Frequencies --   1277.3186              1348.8375              1384.8234
 Red. masses --      1.7739                 2.3449                 1.8738
 Frc consts  --      1.7052                 2.5136                 2.1172
 IR Inten    --    148.4373                90.0527                55.0994

                     25                     26                     27
                      A                      A                      A
 Frequencies --   1477.9314              1500.8092              1534.9758
 Red. masses --      1.1791                 1.0551                 1.0493
 Frc consts  --      1.5175                 1.4003                 1.4566
 IR Inten    --      6.6519                 1.0957                 5.5156

                     28                     29                     30
                      A                      A                      A
 Frequencies --   1643.5974              1656.4044              1666.8594
 Red. masses --      1.1114                 1.1120                 1.1065
 Frc consts  --      1.7689                 1.7976                 1.8113
 IR Inten    --     31.1235                74.6492                16.4853

                     31                     32                     33
                      A                      A                      A
 Frequencies --   3022.3910              3086.8457              3128.8219
 Red. masses --      1.0322                 1.1057                 1.1020
 Frc consts  --      5.5553                 6.2075                 6.3564
 IR Inten    --     50.1874                37.7248                31.8905

                     34                     35                     36
                      A                      A                      A
 Frequencies --   3483.4410              3486.1270              3517.8954
 Red. masses --      1.0505                 1.0490                 1.0493
 Frc consts  --      7.5102                 7.5110                 7.6509
 IR Inten    --      0.1161                 0.3331                 1.6962

                     37                     38                     39
                      A                      A                      A
 Frequencies --   3569.2002              3580.9791              3608.4117
 Red. masses --      1.0906                 1.0929                 1.0932
 Frc consts  --      8.1860                 8.2569                 8.3866
 IR Inten    --      0.7626                 0.4761                 3.8143

 - Thermochemistry -
 -------------------
 Temperature   298.150 Kelvin.  Pressure   1.00000 Atm.
 Atom     1 has atomic number  6 and mass  12.00000

 Molecular mass:    91.07456 amu.
 Principal axes and moments of inertia in atomic units:
                           1         2         3
     Eigenvalues --   373.38347 625.65852 629.33776
           X            0.99981   0.01525   0.01227
           Y           -0.01749   0.97742   0.21057
           Z           -0.00879  -0.21074   0.97750
 This molecule is an asymmetric top.
 Rotational symmetry number  1.
 Rotational temperatures (Kelvin)      0.23197     0.13844     0.13763
 Rotational constants (GHZ):           4.83348     2.88455     2.86768
 Zero-point vibrational energy     346956.8 (Joules/Mol)
                                   82.92466 (Kcal/Mol)
 Warning -- explicit consideration of  11 degrees of freedom as
           vibrations may cause significant error
 Vibrational temperatures:    187.78   257.81   383.38   407.29   429.90
          (Kelvin)            468.72   582.64   625.96   721.43   787.82
                              841.69  1142.19  1197.75  1273.43  1352.90
                             1400.80  1484.32  1593.30  1599.67  1699.43
                             1749.24  1837.77  1940.67  1992.45  2126.41
                             2159.33  2208.49  2364.77  2383.19  2398.24
                             4348.54  4441.28  4501.67  5011.89  5015.75
                             5061.46  5135.28  5152.22  5191.69

 Zero-point correction=                           0.132149 (Hartree/Particle)
 Thermal correction to Energy=                    0.139593
 Thermal correction to Enthalpy=                  0.140538
 Thermal correction to Gibbs Free Energy=         0.101726
 Sum of electronic and zero-point Energies=           -320.978008
 Sum of electronic and thermal Energies=              -320.970564
 Sum of electronic and thermal Enthalpies=            -320.969620
 Sum of electronic and thermal Free Energies=         -321.008431

                     E (Thermal)             CV                S
                      KCal/Mol        Cal/Mol-Kelvin    Cal/Mol-Kelvin
 Total                   87.596             27.484             81.685
 Electronic               0.000              0.000              0.000
 Translational            0.889              2.981             39.439
 Rotational               0.889              2.981             26.489
 Vibrational             85.819             21.522             15.757
 Vibration     1          0.612              1.923              2.938
 Vibration     2          0.629              1.868              2.337
 Vibration     3          0.672              1.735              1.619
 Vibration     4          0.682              1.705              1.515
 Vibration     5          0.692              1.676              1.424
 Vibration     6          0.710              1.624              1.281
 Vibration     7          0.770              1.459              0.945
 Vibration     8          0.796              1.394              0.842
 Vibration     9          0.857              1.247              0.655
 Vibration    10          0.903              1.145              0.549
 Vibration    11          0.942              1.064              0.476

 Optimization completed.
    -- Stationary point found.
 Normal termination of Gaussian 09 at Thu Sep  8 14:46:55 2022.
