 Gaussian 09, Revision E.01,
 Gaussian 09:  ES64L-G09RevE.01 30-Nov-2015

 ----------------------------
 #P OPT Freq B3LYP/6-31G(d,p)
 ----------------------------

 --------
 Frag_634
 --------
 Symbolic Z-matrix:
 Charge =  0 Multiplicity = 1

 SCF Done:  E(RB3LYP) =  -308.914422724     A.U. after   12 cycles
 SCF Done:  E(RB3LYP) =  -308.914468455     A.U. after    8 cycles
 SCF Done:  E(RB3LYP) =  -308.914473348     A.U. after    7 cycles
 SCF Done:  E(RB3LYP) =  -308.914474478     A.U. after    7 cycles
 SCF Done:  E(RB3LYP) =  -308.914474690     A.U. after    7 cycles
 Optimization completed.
    -- Stationary point found.
 Normal termination of Gaussian 09 at Thu Sep  8 15:23:38 2022.

 ----------------------------------------------------------------------
 #P Geom=AllCheck Guess=TCheck SCRF=Check GenChk RB3LYP/6-31G(d,p) Freq
 ----------------------------------------------------------------------

 Structure from the checkpoint file:  "B3LYP6-31Gdp.Frag_634.chk"
 --------
 Frag_634
 --------
 Charge =  0 Multiplicity = 1

                         Standard orientation:
 ---------------------------------------------------------------------
 Center     Atomic      Atomic             Coordinates (Angstroms)
 Number     Number       Type             X           Y           Z
 ---------------------------------------------------------------------
      1          6           0       -2.144689    0.091590    0.043067
      2          6           0       -0.893996   -0.548395   -0.565083
      3          6           0        0.443615   -0.034151   -0.011497
      4          6           0        0.689105    1.453390   -0.258519
      5          8           0        0.430878   -0.332056    1.377839
      6          8           0        1.528339   -0.702477   -0.640545
      7          1           0       -2.206698    1.160003   -0.187237
      8          1           0       -3.049222   -0.381107   -0.352366
      9          1           0       -2.146147   -0.022085    1.130023
     10          1           0       -0.918047   -1.631116   -0.381501
     11          1           0       -0.875923   -0.409812   -1.651493
     12          1           0        0.652021    1.681112   -1.327138
     13          1           0       -0.054775    2.058542    0.263216
     14          1           0        1.684600    1.724843    0.107625
     15          1           0        1.278470   -0.030093    1.734327
     16          1           0        1.397775   -1.648624   -0.481614
 ---------------------------------------------------------------------

 SCF Done:  E(RB3LYP) =  -308.914474690     A.U. after    1 cycles

 The electronic state is 1-A.
 Alpha  occ. eigenvalues --  -19.14414 -19.14280 -10.28263 -10.18086 -10.17477
 Alpha  occ. eigenvalues --  -10.17168  -1.05448  -0.98382  -0.77733  -0.72214
 Alpha  occ. eigenvalues --   -0.64347  -0.57231  -0.54024  -0.46717  -0.44288
 Alpha  occ. eigenvalues --   -0.42233  -0.41086  -0.39052  -0.38197  -0.37517
 Alpha  occ. eigenvalues --   -0.34775  -0.33866  -0.31243  -0.29718  -0.26651
 Alpha virt. eigenvalues --    0.07228   0.09596   0.11892   0.13830   0.14388
 Alpha virt. eigenvalues --    0.15658   0.17566   0.17996   0.20544   0.20911
 Alpha virt. eigenvalues --    0.22637   0.24521   0.26089   0.26854   0.29171

 Mulliken charges:
               1
     1  C   -0.324396
     2  C   -0.177120
     3  C    0.443666
     4  C   -0.317317
     5  O   -0.537642
     6  O   -0.542270
     7  H    0.102464
     8  H    0.099252
     9  H    0.128413
    10  H    0.088577
    11  H    0.102873
    12  H    0.115076
    13  H    0.114822
    14  H    0.103271
    15  H    0.301000
    16  H    0.299331
 Sum of Mulliken charges =  -0.00000

 Dipole moment (field-independent basis, Debye):
    X=             -0.0022    Y=             -0.0070    Z=              0.1028  Tot=              0.1031
 Quadrupole moment (field-independent basis, Debye-Ang):
   XX=            -38.2671   YY=            -34.7057   ZZ=            -38.8709
   XY=             -0.2351   XZ=              3.8496   YZ=              1.1214

  Exact polarizability:  54.178   0.738  50.418   0.992   0.476  47.385
 Approx polarizability:  68.560   0.355  67.650  -0.143  -0.064  67.794

                      1                      2                      3
                      A                      A                      A
 Frequencies --    108.8276               216.3317               244.8397
 Red. masses --      1.9609                 1.1275                 2.3722
 Frc consts  --      0.0137                 0.0311                 0.0838
 IR Inten    --      0.1889                 0.6692                 0.1160

                      4                      5                      6
                      A                      A                      A
 Frequencies --    253.5392               323.4825               341.7817
 Red. masses --      1.2111                 1.1249                 1.7614
 Frc consts  --      0.0459                 0.0694                 0.1212
 IR Inten    --      2.1488               109.9242                12.6318

                      7                      8                      9
                      A                      A                      A
 Frequencies --    373.7164               418.1315               476.1412
 Red. masses --      2.7652                 1.4881                 3.0872
 Frc consts  --      0.2275                 0.1533                 0.4124
 IR Inten    --      4.4449                31.3738                27.0105

                     10                     11                     12
                      A                      A                      A
 Frequencies --    508.5312               573.4978               752.8473
 Red. masses --      2.6162                 3.0654                 3.3771
 Frc consts  --      0.3986                 0.5940                 1.1277
 IR Inten    --     23.0122                58.6582                 1.0987

                     13                     14                     15
                      A                      A                      A
 Frequencies --    796.8985               929.5718               940.0039
 Red. masses --      1.2429                 1.7997                 2.2076
 Frc consts  --      0.4650                 0.9163                 1.1493
 IR Inten    --      1.6600                22.8099                60.5589

                     16                     17                     18
                      A                      A                      A
 Frequencies --   1013.6727              1023.1933              1078.5654
 Red. masses --      1.6048                 1.9768                 2.1375
 Frc consts  --      0.9715                 1.2193                 1.4651
 IR Inten    --      5.8281                69.0394                21.6292

                     19                     20                     21
                      A                      A                      A
 Frequencies --   1102.1223              1181.6457              1204.1375
 Red. masses --      1.4250                 1.9406                 2.4485
 Frc consts  --      1.0198                 1.5965                 2.0917
 IR Inten    --     27.9723               121.0568                91.1916

                     22                     23                     24
                      A                      A                      A
 Frequencies --   1289.6241              1334.3818              1388.6650
 Red. masses --      1.2048                 1.4352                 1.3354
 Frc consts  --      1.1806                 1.5057                 1.5173
 IR Inten    --      5.6557                 4.3348                 6.1028

                     25                     26                     27
                      A                      A                      A
 Frequencies --   1411.8872              1424.3684              1447.5514
 Red. masses --      1.6274                 1.2321                 1.7198
 Frc consts  --      1.9114                 1.4728                 2.1232
 IR Inten    --     29.1442                 5.5696                73.7758

                     28                     29                     30
                      A                      A                      A
 Frequencies --   1490.8294              1501.2847              1514.2609
 Red. masses --      1.0777                 1.0636                 1.0640
 Frc consts  --      1.4113                 1.4124                 1.4375
 IR Inten    --      0.5540                 5.9189                 1.2973

                     31                     32                     33
                      A                      A                      A
 Frequencies --   1515.8068              1525.2702              3032.6928
 Red. masses --      1.0484                 1.0676                 1.0657
 Frc consts  --      1.4193                 1.4633                 5.7747
 IR Inten    --      2.2488                 5.7587                30.5484

                     34                     35                     36
                      A                      A                      A
 Frequencies --   3051.7002              3057.7989              3089.2205
 Red. masses --      1.0364                 1.0374                 1.0976
 Frc consts  --      5.6866                 5.7149                 6.1714
 IR Inten    --     25.2380                 8.7878                14.1119

                     37                     38                     39
                      A                      A                      A
 Frequencies --   3115.2858              3128.6015              3139.7064
 Red. masses --      1.1022                 1.1009                 1.1020
 Frc consts  --      6.3026                 6.3491                 6.4003
 IR Inten    --     42.4538                18.3142                29.6700

                     40                     41                     42
                      A                      A                      A
 Frequencies --   3153.5025              3789.4767              3795.0259
 Red. masses --      1.1030                 1.0654                 1.0655
 Frc consts  --      6.4628                 9.0142                 9.0417
 IR Inten    --     17.2729                10.8593                12.6515

 - Thermochemistry -
 -------------------
 Temperature   298.150 Kelvin.  Pressure   1.00000 Atm.
 Atom     1 has atomic number  6 and mass  12.00000

 Molecular mass:    90.06808 amu.
 Principal axes and moments of inertia in atomic units:
                           1         2         3
     Eigenvalues --   381.49875 683.76514 701.27404
           X            0.99956   0.02072   0.02129
           Y           -0.02252   0.99583   0.08843
           Z           -0.01937  -0.08887   0.99585
 This molecule is an asymmetric top.
 Rotational symmetry number  1.
 Rotational temperatures (Kelvin)      0.22704     0.12667     0.12351
 Rotational constants (GHZ):           4.73066     2.63942     2.57352
 Zero-point vibrational energy     371191.8 (Joules/Mol)
                                   88.71696 (Kcal/Mol)
 Warning -- explicit consideration of  11 degrees of freedom as
           vibrations may cause significant error
 Vibrational temperatures:    156.58   311.25   352.27   364.79   465.42
          (Kelvin)            491.75   537.69   601.60   685.06   731.66
                              825.13  1083.18  1146.56  1337.44  1352.45
                             1458.45  1472.15  1551.81  1585.71  1700.12
                             1732.48  1855.48  1919.88  1997.98  2031.39
                             2049.35  2082.70  2144.97  2160.01  2178.68
                             2180.91  2194.52  4363.36  4390.71  4399.49
                             4444.69  4482.20  4501.35  4517.33  4537.18
                             5452.21  5460.19

 Zero-point correction=                           0.141379 (Hartree/Particle)
 Thermal correction to Energy=                    0.148961
 Thermal correction to Enthalpy=                  0.149905
 Thermal correction to Gibbs Free Energy=         0.110733
 Sum of electronic and zero-point Energies=           -308.773095
 Sum of electronic and thermal Energies=              -308.765514
 Sum of electronic and thermal Enthalpies=            -308.764569
 Sum of electronic and thermal Free Energies=         -308.803742

                     E (Thermal)             CV                S
                      KCal/Mol        Cal/Mol-Kelvin    Cal/Mol-Kelvin
 Total                   93.474             28.103             82.446
 Electronic               0.000              0.000              0.000
 Translational            0.889              2.981             39.406
 Rotational               0.889              2.981             26.706
 Vibrational             91.697             22.142             16.334
 Vibration     1          0.606              1.942              3.290
 Vibration     2          0.645              1.816              1.990
 Vibration     3          0.660              1.771              1.767
 Vibration     4          0.665              1.757              1.706
 Vibration     5          0.708              1.628              1.292
 Vibration     6          0.721              1.592              1.204
 Vibration     7          0.745              1.526              1.065
 Vibration     8          0.781              1.431              0.898
 Vibration     9          0.833              1.303              0.721
 Vibration    10          0.864              1.231              0.637
 Vibration    11          0.930              1.089              0.498

 Optimization completed.
    -- Stationary point found.
 Normal termination of Gaussian 09 at Thu Sep  8 15:23:51 2022.
