 Gaussian 09, Revision E.01,
 Gaussian 09:  ES64L-G09RevE.01 30-Nov-2015

 ----------------------------
 #P OPT Freq B3LYP/6-31G(d,p)
 ----------------------------

 --------
 Frag_924
 --------
 Symbolic Z-matrix:
 Charge =  0 Multiplicity = 1

 SCF Done:  E(RB3LYP) =  -284.436917229     A.U. after   14 cycles
 SCF Done:  E(RB3LYP) =  -284.436982099     A.U. after   11 cycles
 SCF Done:  E(RB3LYP) =  -284.436758645     A.U. after   12 cycles
 SCF Done:  E(RB3LYP) =  -284.437016454     A.U. after    8 cycles
 SCF Done:  E(RB3LYP) =  -284.437028127     A.U. after    9 cycles
 SCF Done:  E(RB3LYP) =  -284.437030558     A.U. after    9 cycles
 SCF Done:  E(RB3LYP) =  -284.437030452     A.U. after    9 cycles
 SCF Done:  E(RB3LYP) =  -284.437033604     A.U. after    9 cycles
 SCF Done:  E(RB3LYP) =  -284.437034844     A.U. after    8 cycles
 SCF Done:  E(RB3LYP) =  -284.437035381     A.U. after    8 cycles
 SCF Done:  E(RB3LYP) =  -284.437035471     A.U. after    7 cycles
 Optimization completed.
    -- Stationary point found.
 Normal termination of Gaussian 09 at Thu Sep  8 15:20:50 2022.

 ----------------------------------------------------------------------
 #P Geom=AllCheck Guess=TCheck SCRF=Check GenChk RB3LYP/6-31G(d,p) Freq
 ----------------------------------------------------------------------

 Structure from the checkpoint file:  "B3LYP6-31Gdp.Frag_924.chk"
 --------
 Frag_924
 --------
 Charge =  0 Multiplicity = 1

                         Standard orientation:
 ---------------------------------------------------------------------
 Center     Atomic      Atomic             Coordinates (Angstroms)
 Number     Number       Type             X           Y           Z
 ---------------------------------------------------------------------
      1          7           0       -1.775772    0.121663   -0.072558
      2          6           0       -0.641129   -0.796371    0.102808
      3          6           0        0.693738   -0.036857    0.004192
      4          8           0        1.759415   -0.597847   -0.082858
      5          8           0        0.552439    1.295458    0.053667
      6          1           0       -2.556093   -0.119706    0.528748
      7          1           0       -0.422658    1.441224    0.106314
      8          1           0       -2.115030    0.110956   -1.029788
      9          1           0       -0.677333   -1.237993    1.103932
     10          1           0       -0.608970   -1.627636   -0.609769
 ---------------------------------------------------------------------

 SCF Done:  E(RB3LYP) =  -284.437035471     A.U. after    1 cycles

 The electronic state is 1-A.
 Alpha  occ. eigenvalues --  -19.17549 -19.11953 -14.36130 -10.30589 -10.24047
 Alpha  occ. eigenvalues --   -1.08594  -1.00419  -0.91687  -0.71783  -0.58675
 Alpha  occ. eigenvalues --   -0.54103  -0.51194  -0.48781  -0.44391  -0.42140
 Alpha  occ. eigenvalues --   -0.38675  -0.36662  -0.30085  -0.29842  -0.25252
 Alpha virt. eigenvalues --    0.01928   0.05127   0.10639   0.12474   0.14251
 Alpha virt. eigenvalues --    0.18591   0.19063   0.24333   0.32427   0.38056
 Alpha virt. eigenvalues --    0.51662   0.54060   0.56341   0.57903   0.62146

 Mulliken charges:
               1
     1  N   -0.644852
     2  C   -0.163611
     3  C    0.585366
     4  O   -0.458835
     5  O   -0.484444
     6  H    0.265996
     7  H    0.339468
     8  H    0.268810
     9  H    0.151658
    10  H    0.140444
 Sum of Mulliken charges =  -0.00000

 Dipole moment (field-independent basis, Debye):
    X=             -5.5251    Y=             -0.8085    Z=             -0.0230  Tot=              5.5840
 Quadrupole moment (field-independent basis, Debye-Ang):
   XX=            -30.2430   YY=            -30.4750   ZZ=            -26.7262
   XY=              1.5753   XZ=              0.7624   YZ=             -0.5209

  Exact polarizability:  40.415  -3.151  33.922  -0.643  -0.053  25.103
 Approx polarizability:  56.154  -8.974  50.760  -1.746   0.452  35.397

                      1                      2                      3
                      A                      A                      A
 Frequencies --     91.2324               275.7364               323.5737
 Red. masses --      2.0439                 1.2298                 4.0861
 Frc consts  --      0.0100                 0.0551                 0.2521
 IR Inten    --      3.4340                19.0807                18.0557

                      4                      5                      6
                      A                      A                      A
 Frequencies --    503.3132               548.0973               655.1792
 Red. masses --      5.3698                 2.9094                 4.7977
 Frc consts  --      0.8015                 0.5150                 1.2134
 IR Inten    --      1.8426                 6.3051                 6.7629

                      7                      8                      9
                      A                      A                      A
 Frequencies --    827.6520               866.9107               901.6103
 Red. masses --      2.2568                 1.3043                 1.4701
 Frc consts  --      0.9108                 0.5775                 0.7041
 IR Inten    --     30.2332               104.1141                68.8556

                     10                     11                     12
                      A                      A                      A
 Frequencies --    952.7289              1072.4675              1163.1128
 Red. masses --      1.8120                 2.9961                 1.2595
 Frc consts  --      0.9690                 2.0304                 1.0039
 IR Inten    --     56.1391                 9.3625                 3.2009

                     13                     14                     15
                      A                      A                      A
 Frequencies --   1237.4742              1322.1072              1371.4415
 Red. masses --      3.0348                 1.2451                 1.3301
 Frc consts  --      2.7382                 1.2823                 1.4739
 IR Inten    --     16.5313                 8.2939                 3.8772

                     16                     17                     18
                      A                      A                      A
 Frequencies --   1441.3199              1482.6642              1669.0700
 Red. masses --      1.5837                 1.0825                 1.0919
 Frc consts  --      1.9385                 1.4020                 1.7922
 IR Inten    --    411.6804                 7.8495                32.9863

                     19                     20                     21
                      A                      A                      A
 Frequencies --   1884.1048              3062.7958              3110.8404
 Red. masses --      9.6444                 1.0607                 1.1053
 Frc consts  --     20.1714                 5.8622                 6.3022
 IR Inten    --    304.0262                16.1866                 9.4612

                     22                     23                     24
                      A                      A                      A
 Frequencies --   3453.3480              3528.4805              3614.6942
 Red. masses --      1.0644                 1.0504                 1.0946
 Frc consts  --      7.4792                 7.7050                 8.4269
 IR Inten    --    264.2831                 0.6604                 8.0847

 - Thermochemistry -
 -------------------
 Temperature   298.150 Kelvin.  Pressure   1.00000 Atm.
 Atom     1 has atomic number  7 and mass  14.00307

 Molecular mass:    75.03203 amu.
 Principal axes and moments of inertia in atomic units:
                           1         2         3
     Eigenvalues --   178.53669 443.46005 598.30984
           X            0.99982   0.01892   0.00323
           Y           -0.01889   0.99978  -0.00904
           Z           -0.00340   0.00897   0.99995
 This molecule is an asymmetric top.
 Rotational symmetry number  1.
 Rotational temperatures (Kelvin)      0.48513     0.19531     0.14476
 Rotational constants (GHZ):          10.10852     4.06968     3.01640
 Zero-point vibrational energy     211499.5 (Joules/Mol)
                                   50.54959 (Kcal/Mol)
 Warning -- explicit consideration of   5 degrees of freedom as
           vibrations may cause significant error
 Vibrational temperatures:    131.26   396.72   465.55   724.15   788.59
          (Kelvin)            942.66  1190.81  1247.29  1297.21  1370.76
                             1543.04  1673.46  1780.45  1902.22  1973.20
                             2073.74  2133.22  2401.42  2710.80  4406.67
                             4475.80  4968.59  5076.69  5200.73

 Zero-point correction=                           0.080556 (Hartree/Particle)
 Thermal correction to Energy=                    0.085852
 Thermal correction to Enthalpy=                  0.086797
 Thermal correction to Gibbs Free Energy=         0.052063
 Sum of electronic and zero-point Energies=           -284.356480
 Sum of electronic and thermal Energies=              -284.351183
 Sum of electronic and thermal Enthalpies=            -284.350239
 Sum of electronic and thermal Free Energies=         -284.384973

                     E (Thermal)             CV                S
                      KCal/Mol        Cal/Mol-Kelvin    Cal/Mol-Kelvin
 Total                   53.873             17.852             73.104
 Electronic               0.000              0.000              0.000
 Translational            0.889              2.981             38.862
 Rotational               0.889              2.981             25.363
 Vibrational             52.096             11.890              8.879
 Vibration     1          0.602              1.955              3.633
 Vibration     2          0.677              1.718              1.560
 Vibration     3          0.708              1.628              1.292
 Vibration     4          0.859              1.243              0.650
 Vibration     5          0.903              1.144              0.548

 Optimization completed.
    -- Stationary point found.
 Normal termination of Gaussian 09 at Thu Sep  8 15:20:58 2022.
