 Gaussian 09, Revision E.01,
 Gaussian 09:  ES64L-G09RevE.01 30-Nov-2015

 ----------------------------
 #P OPT Freq B3LYP/6-31G(d,p)
 ----------------------------

 ---------
 Frag_1011
 ---------
 Symbolic Z-matrix:
 Charge =  0 Multiplicity = 1

 SCF Done:  E(RB3LYP) =  -362.982877343     A.U. after   15 cycles
 SCF Done:  E(RB3LYP) =  -362.982973581     A.U. after   11 cycles
 SCF Done:  E(RB3LYP) =  -362.982968019     A.U. after   11 cycles
 SCF Done:  E(RB3LYP) =  -362.982985697     A.U. after   11 cycles
 SCF Done:  E(RB3LYP) =  -362.982991000     A.U. after    9 cycles
 SCF Done:  E(RB3LYP) =  -362.982992996     A.U. after    9 cycles
 SCF Done:  E(RB3LYP) =  -362.982995492     A.U. after    9 cycles
 SCF Done:  E(RB3LYP) =  -362.982998303     A.U. after   10 cycles
 SCF Done:  E(RB3LYP) =  -362.982999152     A.U. after    8 cycles
 Optimization completed.
    -- Stationary point found.
 Normal termination of Gaussian 09 at Thu Sep  8 14:52:21 2022.

 ----------------------------------------------------------------------
 #P Geom=AllCheck Guess=TCheck SCRF=Check GenChk RB3LYP/6-31G(d,p) Freq
 ----------------------------------------------------------------------

 Structure from the checkpoint file:  "B3LYP6-31Gdp.Frag_1011.chk"
 ---------
 Frag_1011
 ---------
 Charge =  0 Multiplicity = 1

                         Standard orientation:
 ---------------------------------------------------------------------
 Center     Atomic      Atomic             Coordinates (Angstroms)
 Number     Number       Type             X           Y           Z
 ---------------------------------------------------------------------
      1          6           0       -1.589558    1.178153    0.141382
      2          7           0       -0.954956    0.057979   -0.027263
      3          8           0       -1.515426   -1.084153   -0.144755
      4          6           0        0.604264   -0.035402   -0.030243
      5          6           0        1.251572    1.209677   -0.622809
      6          6           0        1.006887   -0.303498    1.424941
      7          8           0        0.892055   -1.118553   -0.849696
      8          1           0       -1.034607    2.098071    0.232245
      9          1           0       -2.669130    1.143962    0.187844
     10          1           0        1.147476    2.086014    0.021551
     11          1           0        2.318782    1.004466   -0.738667
     12          1           0        0.837108    1.424520   -1.610253
     13          1           0        2.080705   -0.503695    1.460168
     14          1           0        0.779674    0.546566    2.075068
     15          1           0        0.474055   -1.184661    1.790676
     16          1           0        0.098607   -1.693026   -0.751809
 ---------------------------------------------------------------------

 SCF Done:  E(RB3LYP) =  -362.982999152     A.U. after    1 cycles

 The electronic state is 1-A.
 Alpha  occ. eigenvalues --  -19.14133 -19.13677 -14.47684 -10.29228 -10.23127
 Alpha  occ. eigenvalues --  -10.19477 -10.18799  -1.11579  -1.02573  -0.86562
 Alpha  occ. eigenvalues --   -0.77976  -0.71116  -0.65751  -0.56681  -0.55862
 Alpha  occ. eigenvalues --   -0.49235  -0.48186  -0.45654  -0.43817  -0.43495
 Alpha  occ. eigenvalues --   -0.41029  -0.39740  -0.38384  -0.37358  -0.34998
 Alpha  occ. eigenvalues --   -0.28125  -0.25967  -0.23499
 Alpha virt. eigenvalues --   -0.02872   0.07693   0.10458   0.11844   0.12740
 Alpha virt. eigenvalues --    0.14429   0.16250   0.16721   0.17760   0.18941
 Alpha virt. eigenvalues --    0.19775   0.20485   0.24236   0.26341   0.26851

 Mulliken charges:
               1
     1  C   -0.087480
     2  N    0.084472
     3  O   -0.507326
     4  C    0.368066
     5  C   -0.328794
     6  C   -0.296317
     7  O   -0.549865
     8  H    0.123183
     9  H    0.139600
    10  H    0.102974
    11  H    0.136157
    12  H    0.130475
    13  H    0.125513
    14  H    0.100697
    15  H    0.130146
    16  H    0.328499
 Sum of Mulliken charges =  -0.00000

 Dipole moment (field-independent basis, Debye):
    X=              0.6848    Y=              3.0376    Z=              1.2282  Tot=              3.3473
 Quadrupole moment (field-independent basis, Debye-Ang):
   XX=            -43.7568   YY=            -41.2222   ZZ=            -43.4346
   XY=             -2.2057   XZ=              1.0341   YZ=             -0.8932

  Exact polarizability:  62.213  -3.582  66.390  -0.704   2.439  44.639
 Approx polarizability:  83.416  -4.763 121.838  -2.426  10.289  61.329

                      1                      2                      3
                      A                      A                      A
 Frequencies --     46.5473               233.4616               256.3570
 Red. masses --      4.6624                 1.1312                 2.0937
 Frc consts  --      0.0060                 0.0363                 0.0811
 IR Inten    --      2.9132                 0.1699                 0.5452

                      4                      5                      6
                      A                      A                      A
 Frequencies --    270.5757               313.3621               357.4860
 Red. masses --      1.1163                 2.5845                 2.5402
 Frc consts  --      0.0482                 0.1495                 0.1913
 IR Inten    --      0.3587                 2.2605                 3.3567

                      7                      8                      9
                      A                      A                      A
 Frequencies --    419.4844               421.2866               508.6867
 Red. masses --      3.3350                 4.1146                 2.8439
 Frc consts  --      0.3458                 0.4303                 0.4336
 IR Inten    --      3.4074                32.8953                12.0112

                     10                     11                     12
                      A                      A                      A
 Frequencies --    560.6907               616.9395               632.2729
 Red. masses --      2.9048                 1.1301                 1.9657
 Frc consts  --      0.5380                 0.2534                 0.4630
 IR Inten    --     13.4372               110.3671                 9.5623

                     13                     14                     15
                      A                      A                      A
 Frequencies --    689.9914               720.0174               814.6466
 Red. masses --      3.0093                 1.5627                 1.5290
 Frc consts  --      0.8441                 0.4773                 0.5979
 IR Inten    --      6.4864                10.5279                46.0972

                     16                     17                     18
                      A                      A                      A
 Frequencies --    841.1812               938.2494              1010.7361
 Red. masses --      3.1820                 1.4696                 1.5089
 Frc consts  --      1.3266                 0.7622                 0.9082
 IR Inten    --      1.4134                 1.1310                17.8090

                     19                     20                     21
                      A                      A                      A
 Frequencies --   1025.8043              1092.7825              1142.9083
 Red. masses --      1.5925                 2.0927                 1.6609
 Frc consts  --      0.9873                 1.4724                 1.2782
 IR Inten    --     12.5428                41.2292                29.5470

                     22                     23                     24
                      A                      A                      A
 Frequencies --   1224.0009              1280.6588              1326.1076
 Red. masses --      2.8869                 3.2810                 2.7084
 Frc consts  --      2.5483                 3.1705                 2.8062
 IR Inten    --     54.6398               171.3137                14.8304

                     25                     26                     27
                      A                      A                      A
 Frequencies --   1403.1373              1415.2275              1443.9381
 Red. masses --      1.2460                 1.3243                 1.3841
 Frc consts  --      1.4453                 1.5628                 1.7002
 IR Inten    --     47.4244                67.7988                53.1652

                     28                     29                     30
                      A                      A                      A
 Frequencies --   1468.1329              1491.9642              1499.7118
 Red. masses --      1.2664                 1.0519                 1.0948
 Frc consts  --      1.6083                 1.3796                 1.4508
 IR Inten    --     25.3399                 0.4378                15.7329

                     31                     32                     33
                      A                      A                      A
 Frequencies --   1514.9099              1519.6115              1665.5597
 Red. masses --      1.0542                 1.1076                 6.3393
 Frc consts  --      1.4255                 1.5070                10.3613
 IR Inten    --      3.0152                14.5105                73.0357

                     34                     35                     36
                      A                      A                      A
 Frequencies --   3056.8656              3066.5587              3136.1617
 Red. masses --      1.0346                 1.0353                 1.1030
 Frc consts  --      5.6961                 5.7363                 6.3921
 IR Inten    --      9.4318                 7.7789                 3.4828

                     37                     38                     39
                      A                      A                      A
 Frequencies --   3143.0586              3149.3362              3153.1021
 Red. masses --      1.1025                 1.1039                 1.1044
 Frc consts  --      6.4167                 6.4507                 6.4690
 IR Inten    --     22.8939                10.8526                14.0145

                     40                     41                     42
                      A                      A                      A
 Frequencies --   3209.6655              3336.8007              3513.7829
 Red. masses --      1.0523                 1.1241                 1.0626
 Frc consts  --      6.3871                 7.3740                 7.7297
 IR Inten    --      1.0679                 0.1503               153.5412

 - Thermochemistry -
 -------------------
 Temperature   298.150 Kelvin.  Pressure   1.00000 Atm.
 Atom     1 has atomic number  6 and mass  12.00000

 Molecular mass:   103.06333 amu.
 Principal axes and moments of inertia in atomic units:
                           1         2         3
     Eigenvalues --   523.63754 725.38126 860.28093
           X            0.99981  -0.00603   0.01875
           Y            0.00731   0.99760  -0.06885
           Z           -0.01829   0.06897   0.99745
 This molecule is an asymmetric top.
 Rotational symmetry number  1.
 Warning -- assumption of classical behavior for rotation
           may cause significant error
 Rotational temperatures (Kelvin)      0.16541     0.11940     0.10068
 Rotational constants (GHZ):           3.44655     2.48799     2.09785
 Zero-point vibrational energy     352490.2 (Joules/Mol)
                                   84.24718 (Kcal/Mol)
 Warning -- explicit consideration of  11 degrees of freedom as
           vibrations may cause significant error
 Vibrational temperatures:     66.97   335.90   368.84   389.30   450.86
          (Kelvin)            514.34   603.54   606.14   731.89   806.71
                              887.64   909.70   992.74  1035.94  1172.09
                             1210.27  1349.93  1454.22  1475.90  1572.27
                             1644.39  1761.06  1842.58  1907.97  2018.80
                             2036.19  2077.50  2112.31  2146.60  2157.75
                             2179.61  2186.38  2396.37  4398.14  4412.09
                             4512.23  4522.15  4531.19  4536.60  4617.99
                             4800.91  5055.54

 Zero-point correction=                           0.134256 (Hartree/Particle)
 Thermal correction to Energy=                    0.142019
 Thermal correction to Enthalpy=                  0.142963
 Thermal correction to Gibbs Free Energy=         0.102574
 Sum of electronic and zero-point Energies=           -362.848743
 Sum of electronic and thermal Energies=              -362.840980
 Sum of electronic and thermal Enthalpies=            -362.840036
 Sum of electronic and thermal Free Energies=         -362.880426

                     E (Thermal)             CV                S
                      KCal/Mol        Cal/Mol-Kelvin    Cal/Mol-Kelvin
 Total                   89.118             29.324             85.007
 Electronic               0.000              0.000              0.000
 Translational            0.889              2.981             39.808
 Rotational               0.889              2.981             27.282
 Vibrational             87.341             23.363             17.917
 Vibration     1          0.595              1.979              4.959
 Vibration     2          0.654              1.790              1.852
 Vibration     3          0.666              1.752              1.686
 Vibration     4          0.674              1.727              1.593
 Vibration     5          0.701              1.648              1.345
 Vibration     6          0.733              1.560              1.133
 Vibration     7          0.782              1.428              0.894
 Vibration     8          0.784              1.424              0.888
 Vibration     9          0.864              1.231              0.637
 Vibration    10          0.916              1.116              0.522
 Vibration    11          0.977              0.996              0.421

 Optimization completed.
    -- Stationary point found.
 Normal termination of Gaussian 09 at Thu Sep  8 14:52:36 2022.
