 Gaussian 09, Revision E.01,
 Gaussian 09:  ES64L-G09RevE.01 30-Nov-2015

 --------------------------------
 #P OPT=calcfc Freq B3LYP/6-31G**
 --------------------------------

 --------
 Frag_235
 --------
 Symbolic Z-matrix:
 Charge =  0 Multiplicity = 1

 SCF Done:  E(RB3LYP) =  -248.431613383     A.U. after   15 cycles
 SCF Done:  E(RB3LYP) =  -248.442277375     A.U. after   14 cycles
 SCF Done:  E(RB3LYP) =  -248.444451692     A.U. after   14 cycles
 SCF Done:  E(RB3LYP) =  -248.444860796     A.U. after   12 cycles
 SCF Done:  E(RB3LYP) =  -248.445020365     A.U. after   11 cycles
 SCF Done:  E(RB3LYP) =  -248.445268363     A.U. after   12 cycles
 SCF Done:  E(RB3LYP) =  -248.445449837     A.U. after   11 cycles
 SCF Done:  E(RB3LYP) =  -248.445632200     A.U. after   12 cycles
 SCF Done:  E(RB3LYP) =  -248.445693606     A.U. after   10 cycles
 SCF Done:  E(RB3LYP) =  -248.445707817     A.U. after    9 cycles
 SCF Done:  E(RB3LYP) =  -248.445712915     A.U. after    9 cycles
 SCF Done:  E(RB3LYP) =  -248.445713388     A.U. after    7 cycles
 Optimization completed.
    -- Stationary point found.
 Normal termination of Gaussian 09 at Sat Aug 21 02:20:33 2021.

 ----------------------------------------------------------------------
 #P Geom=AllCheck Guess=TCheck SCRF=Check GenChk RB3LYP/6-31G(d,p) Freq
 ----------------------------------------------------------------------

 Structure from the checkpoint file:  "/public/home/users/caep010/.cache/gau_scr/Gau-4397.chk"
 --------
 Frag_235
 --------
 Charge =  0 Multiplicity = 1

                         Standard orientation:
 ---------------------------------------------------------------------
 Center     Atomic      Atomic             Coordinates (Angstroms)
 Number     Number       Type             X           Y           Z
 ---------------------------------------------------------------------
      1          6           0       -1.980297   -0.090891    0.000008
      2          6           0       -0.628205   -0.710685    0.000005
      3          7           0        0.426230    0.066196    0.000010
      4          6           0        1.790337   -0.502859   -0.000003
      5          8           0        0.374189    1.341312   -0.000000
      6          1           0       -2.760362   -0.854721    0.000667
      7          1           0       -2.107631    0.557827    0.875422
      8          1           0       -2.108164    0.556746   -0.876142
      9          1           0       -0.460916   -1.779682   -0.000033
     10          1           0        2.300917   -0.127067   -0.887818
     11          1           0        1.766943   -1.593493    0.000136
     12          1           0        2.301075   -0.126870    0.887638
 ---------------------------------------------------------------------

 SCF Done:  E(RB3LYP) =  -248.445713388     A.U. after    1 cycles

 The electronic state is 1-A.
 Alpha  occ. eigenvalues --  -19.10642 -14.46342 -10.23009 -10.22266 -10.18650
 Alpha  occ. eigenvalues --   -1.08902  -0.85248  -0.76902  -0.69209  -0.55998
 Alpha  occ. eigenvalues --   -0.52130  -0.48414  -0.46694  -0.41795  -0.41358
 Alpha  occ. eigenvalues --   -0.39521  -0.37797  -0.36384  -0.23349  -0.20811
 Alpha virt. eigenvalues --   -0.00897   0.08637   0.11908   0.12940   0.14475
 Alpha virt. eigenvalues --    0.16242   0.17092   0.18518   0.19639   0.22512
 Alpha virt. eigenvalues --    0.32503   0.32767   0.48941   0.49034   0.54219

 Mulliken charges:
               1
     1  C   -0.341792
     2  C    0.045636
     3  N    0.080916
     4  C   -0.178927
     5  O   -0.514323
     6  H    0.105216
     7  H    0.141906
     8  H    0.141877
     9  H    0.105624
    10  H    0.150602
    11  H    0.112663
    12  H    0.150603
 Sum of Mulliken charges =  -0.00000

 Dipole moment (field-independent basis, Debye):
    X=              0.4099    Y=             -3.3596    Z=             -0.0001  Tot=              3.3846
 Quadrupole moment (field-independent basis, Debye-Ang):
   XX=            -25.9405   YY=            -33.4191   ZZ=            -30.7222
   XY=             -1.6759   XZ=              0.0001   YZ=              0.0001

  Exact polarizability:  57.937   5.208  48.230   0.001  -0.000  29.586
 Approx polarizability:  77.047  21.370  91.738   0.002  -0.000  41.115

                      1                      2                      3
                      A                      A                      A
 Frequencies --     89.7086               166.9435               237.8689
 Red. masses --      1.0563                 1.2541                 1.8385
 Frc consts  --      0.0050                 0.0206                 0.0613
 IR Inten    --      0.8637                 2.8796                 1.0970

                      4                      5                      6
                      A                      A                      A
 Frequencies --    267.7363               450.7967               591.9778
 Red. masses --      3.0960                 3.0703                 3.9656
 Frc consts  --      0.1308                 0.3676                 0.8188
 IR Inten    --      9.4130                 7.0780                 4.7410

                      7                      8                      9
                      A                      A                      A
 Frequencies --    614.5347               693.0124               879.7821
 Red. masses --      3.9382                 1.1479                 2.2289
 Frc consts  --      0.8763                 0.3248                 1.0165
 IR Inten    --     14.4408                16.5879                 2.2332

                     10                     11                     12
                      A                      A                      A
 Frequencies --   1041.4253              1042.2222              1121.2395
 Red. masses --      2.2644                 1.4212                 1.5927
 Frc consts  --      1.4470                 0.9095                 1.1797
 IR Inten    --     11.0561                 0.0390                 1.8966

                     13                     14                     15
                      A                      A                      A
 Frequencies --   1148.8098              1149.1609              1229.5447
 Red. masses --      2.1786                 1.4093                 2.4765
 Frc consts  --      1.6941                 1.0965                 2.2058
 IR Inten    --      1.7575                 0.6719                53.6499

                     16                     17                     18
                      A                      A                      A
 Frequencies --   1405.5570              1438.0223              1474.1549
 Red. masses --      1.3326                 1.2134                 1.4876
 Frc consts  --      1.5511                 1.4784                 1.9047
 IR Inten    --     24.9052                 0.8486                26.9824

                     19                     20                     21
                      A                      A                      A
 Frequencies --   1477.2146              1480.3376              1494.7996
 Red. masses --      1.0444                 1.0438                 1.1400
 Frc consts  --      1.3428                 1.3478                 1.5008
 IR Inten    --      5.8459                 9.1681                13.8835

                     22                     23                     24
                      A                      A                      A
 Frequencies --   1511.7672              1677.0002              3035.4639
 Red. masses --      1.1981                 6.2614                 1.0377
 Frc consts  --      1.6133                10.3750                 5.6334
 IR Inten    --      1.5374                61.5991                14.2844

                     25                     26                     27
                      A                      A                      A
 Frequencies --   3074.8437              3082.6956              3144.2742
 Red. masses --      1.0304                 1.0995                 1.1008
 Frc consts  --      5.7398                 6.1563                 6.4120
 IR Inten    --     16.9848                12.0024                16.4203

                     28                     29                     30
                      A                      A                      A
 Frequencies --   3167.6258              3172.4097              3238.6872
 Red. masses --      1.1056                 1.1074                 1.0918
 Frc consts  --      6.5363                 6.5664                 6.7471
 IR Inten    --      6.3650                10.3394                 7.1863

 - Thermochemistry -
 -------------------
 Temperature   298.150 Kelvin.  Pressure   1.00000 Atm.
 Atom     1 has atomic number  6 and mass  12.00000

 Molecular mass:    73.05276 amu.
 Principal axes and moments of inertia in atomic units:
                           1         2         3
     Eigenvalues --   171.70877 460.33223 609.65436
           X            0.99952  -0.03093   0.00000
           Y            0.03093   0.99952   0.00000
           Z           -0.00000  -0.00000   1.00000
 This molecule is an asymmetric top.
 Rotational symmetry number  1.
 Rotational temperatures (Kelvin)      0.50442     0.18816     0.14207
 Rotational constants (GHZ):          10.51048     3.92052     2.96027
 Zero-point vibrational energy     266764.9 (Joules/Mol)
                                   63.75835 (Kcal/Mol)
 Warning -- explicit consideration of   7 degrees of freedom as
           vibrations may cause significant error
 Vibrational temperatures:    129.07   240.19   342.24   385.21   648.60
          (Kelvin)            851.72   884.18   997.09  1265.81  1498.38
                             1499.52  1613.21  1652.88  1653.38  1769.04
                             2022.28  2068.99  2120.98  2125.38  2129.87
                             2150.68  2175.09  2412.83  4367.35  4424.01
                             4435.31  4523.90  4557.50  4564.38  4659.74

 Zero-point correction=                           0.101605 (Hartree/Particle)
 Thermal correction to Energy=                    0.107710
 Thermal correction to Enthalpy=                  0.108654
 Thermal correction to Gibbs Free Energy=         0.072387
 Sum of electronic and zero-point Energies=           -248.344108
 Sum of electronic and thermal Energies=              -248.338004
 Sum of electronic and thermal Enthalpies=            -248.337060
 Sum of electronic and thermal Free Energies=         -248.373327

                     E (Thermal)             CV                S
                      KCal/Mol        Cal/Mol-Kelvin    Cal/Mol-Kelvin
 Total                   67.589             20.322             76.331
 Electronic               0.000              0.000              0.000
 Translational            0.889              2.981             38.782
 Rotational               0.889              2.981             25.380
 Vibrational             65.811             14.361             12.168
 Vibration     1          0.602              1.956              3.666
 Vibration     2          0.624              1.883              2.470
 Vibration     3          0.656              1.783              1.819
 Vibration     4          0.673              1.732              1.611
 Vibration     5          0.810              1.359              0.793
 Vibration     6          0.949              1.049              0.464
 Vibration     7          0.974              1.001              0.425

 Optimization completed.
    -- Stationary point found.
 Normal termination of Gaussian 09 at Sat Aug 21 02:20:41 2021.
