 Gaussian 09, Revision E.01,
 Gaussian 09:  ES64L-G09RevE.01 30-Nov-2015

 ----------------------------
 #P OPT Freq B3LYP/6-31G(d,p)
 ----------------------------

 --------
 Frag_691
 --------
 Symbolic Z-matrix:
 Charge =  0 Multiplicity = 1

 SCF Done:  E(RB3LYP) =  -287.824634155     A.U. after   14 cycles
 SCF Done:  E(RB3LYP) =  -287.824680631     A.U. after    9 cycles
 SCF Done:  E(RB3LYP) =  -287.824683135     A.U. after    8 cycles
 Optimization completed.
    -- Stationary point found.
 Normal termination of Gaussian 09 at Thu Sep  8 15:14:26 2022.

 ----------------------------------------------------------------------
 #P Geom=AllCheck Guess=TCheck SCRF=Check GenChk RB3LYP/6-31G(d,p) Freq
 ----------------------------------------------------------------------

 Structure from the checkpoint file:  "B3LYP6-31Gdp.Frag_691.chk"
 --------
 Frag_691
 --------
 Charge =  0 Multiplicity = 1

                         Standard orientation:
 ---------------------------------------------------------------------
 Center     Atomic      Atomic             Coordinates (Angstroms)
 Number     Number       Type             X           Y           Z
 ---------------------------------------------------------------------
      1          6           0       -1.321265    1.273464   -0.016194
      2          6           0       -0.596398   -0.000401   -0.490497
      3          6           0       -1.321491   -1.273405   -0.014231
      4          6           0        0.871439   -0.000205   -0.066585
      5          7           0        1.894935   -0.000802   -0.817361
      6          8           0        1.095319    0.001147    1.279817
      7          1           0       -0.810564    2.174938   -0.366466
      8          1           0       -2.347723    1.290655   -0.395211
      9          1           0       -1.379926    1.328078    1.077572
     10          1           0       -0.598132   -0.001248   -1.586445
     11          1           0       -1.380212   -1.326309    1.079616
     12          1           0       -0.810928   -2.175509   -0.363080
     13          1           0       -2.347935   -1.291010   -0.393264
     14          1           0        1.602673   -0.001563   -1.794624
     15          1           0        0.251940    0.001686    1.749929
 ---------------------------------------------------------------------

 SCF Done:  E(RB3LYP) =  -287.824683135     A.U. after    1 cycles

 The electronic state is 1-A.
 Alpha  occ. eigenvalues --  -19.17769 -14.29580 -10.27445 -10.21670 -10.19801
 Alpha  occ. eigenvalues --  -10.19800  -1.06490  -0.88278  -0.80776  -0.70509
 Alpha  occ. eigenvalues --   -0.63492  -0.60079  -0.51440  -0.46649  -0.45598
 Alpha  occ. eigenvalues --   -0.44049  -0.41021  -0.40678  -0.38345  -0.37381
 Alpha  occ. eigenvalues --   -0.35449  -0.34906  -0.26131  -0.25563
 Alpha virt. eigenvalues --    0.03110   0.04306   0.09168   0.12115   0.13259
 Alpha virt. eigenvalues --    0.13463   0.17333   0.17809   0.18252   0.18949
 Alpha virt. eigenvalues --    0.20008   0.21973   0.24534   0.34038   0.42999

 Mulliken charges:
               1
     1  C   -0.311615
     2  C   -0.150471
     3  C   -0.311612
     4  C    0.494335
     5  N   -0.536290
     6  O   -0.491423
     7  H    0.126158
     8  H    0.114370
     9  H    0.094190
    10  H    0.102052
    11  H    0.094200
    12  H    0.126151
    13  H    0.114365
    14  H    0.220045
    15  H    0.315544
 Sum of Mulliken charges =   0.00000

 Dipole moment (field-independent basis, Debye):
    X=             -4.3388    Y=              0.0001    Z=             -0.2860  Tot=              4.3482
 Quadrupole moment (field-independent basis, Debye-Ang):
   XX=            -46.3241   YY=            -37.2444   ZZ=            -33.4873
   XY=             -0.0012   XZ=             -1.5336   YZ=              0.0034

  Exact polarizability:  57.855  -0.005  43.929  -5.796   0.009  53.775
 Approx polarizability:  80.656  -0.010  56.713 -11.383   0.023  83.112

                      1                      2                      3
                      A                      A                      A
 Frequencies --     61.7553               212.2090               236.0682
 Red. masses --      3.1949                 1.4310                 1.8105
 Frc consts  --      0.0072                 0.0380                 0.0594
 IR Inten    --      2.6716                 5.1130                20.3034

                      4                      5                      6
                      A                      A                      A
 Frequencies --    246.2010               289.5312               336.7085
 Red. masses --      1.0615                 2.9281                 2.4702
 Frc consts  --      0.0379                 0.1446                 0.1650
 IR Inten    --      0.5037                 3.0078                 2.8970

                      7                      8                      9
                      A                      A                      A
 Frequencies --    362.9403               515.9097               594.5078
 Red. masses --      1.1592                 3.2454                 2.7852
 Frc consts  --      0.0900                 0.5089                 0.5800
 IR Inten    --     64.6367                 3.3974                 1.0119

                     10                     11                     12
                      A                      A                      A
 Frequencies --    715.3454               783.3202               862.1099
 Red. masses --      5.9910                 3.6204                 1.0971
 Frc consts  --      1.8062                 1.3088                 0.4804
 IR Inten    --      2.2011                 0.9217                64.4746

                     13                     14                     15
                      A                      A                      A
 Frequencies --    917.4149               939.2707               971.0730
 Red. masses --      2.4709                 1.1844                 1.4740
 Frc consts  --      1.2253                 0.6156                 0.8190
 IR Inten    --     10.6813                 1.2885                 0.2196

                     16                     17                     18
                      A                      A                      A
 Frequencies --   1064.1993              1122.8247              1134.0038
 Red. masses --      1.8482                 2.3273                 1.3250
 Frc consts  --      1.2332                 1.7287                 1.0039
 IR Inten    --     86.6756                 0.6849               105.4408

                     19                     20                     21
                      A                      A                      A
 Frequencies --   1196.0435              1255.6233              1343.3560
 Red. masses --      1.8745                 1.3072                 1.3470
 Frc consts  --      1.5799                 1.2142                 1.4322
 IR Inten    --      7.6368                99.0984                 2.2813

                     22                     23                     24
                      A                      A                      A
 Frequencies --   1348.7055              1404.0126              1418.5528
 Red. masses --      1.5092                 1.9608                 1.2143
 Frc consts  --      1.6175                 2.2774                 1.4397
 IR Inten    --     30.2222               123.3724                 2.2052

                     25                     26                     27
                      A                      A                      A
 Frequencies --   1445.0727              1497.3572              1509.1512
 Red. masses --      1.3181                 1.0467                 1.0451
 Frc consts  --      1.6218                 1.3827                 1.4025
 IR Inten    --     19.3384                 0.6752                 2.3972

                     28                     29                     30
                      A                      A                      A
 Frequencies --   1517.6540              1523.0053              1768.1244
 Red. masses --      1.0588                 1.0505                 7.4600
 Frc consts  --      1.4369                 1.4357                13.7409
 IR Inten    --      5.5896                27.1759               158.4946

                     31                     32                     33
                      A                      A                      A
 Frequencies --   3038.1111              3041.3312              3058.2287
 Red. masses --      1.0380                 1.0420                 1.0815
 Frc consts  --      5.6450                 5.6786                 5.9597
 IR Inten    --     15.1367                17.7758                15.5526

                     34                     35                     36
                      A                      A                      A
 Frequencies --   3103.9318              3110.8918              3129.4258
 Red. masses --      1.0989                 1.0983                 1.1034
 Frc consts  --      6.2380                 6.2626                 6.3667
 IR Inten    --      4.3399                61.5341                15.2420

                     37                     38                     39
                      A                      A                      A
 Frequencies --   3130.5430              3508.4727              3834.8133
 Red. masses --      1.1034                 1.0752                 1.0658
 Frc consts  --      6.3711                 7.7982                 9.2346
 IR Inten    --     25.0590                 1.1631                27.7075

 - Thermochemistry -
 -------------------
 Temperature   298.150 Kelvin.  Pressure   1.00000 Atm.
 Atom     1 has atomic number  6 and mass  12.00000

 Molecular mass:    87.06841 amu.
 Principal axes and moments of inertia in atomic units:
                           1         2         3
     Eigenvalues --   377.14097 691.49253 709.77969
           X            0.99979  -0.00002  -0.02047
           Y            0.00001   1.00000  -0.00050
           Z            0.02047   0.00050   0.99979
 This molecule is an asymmetric top.
 Rotational symmetry number  1.
 Rotational temperatures (Kelvin)      0.22966     0.12526     0.12203
 Rotational constants (GHZ):           4.78532     2.60992     2.54268
 Zero-point vibrational energy     344212.3 (Joules/Mol)
                                   82.26871 (Kcal/Mol)
 Warning -- explicit consideration of   9 degrees of freedom as
           vibrations may cause significant error
 Vibrational temperatures:     88.85   305.32   339.65   354.23   416.57
          (Kelvin)            484.45   522.19   742.28   855.36  1029.22
                             1127.02  1240.38  1319.95  1351.40  1397.16
                             1531.14  1615.49  1631.58  1720.84  1806.56
                             1932.79  1940.48  2020.06  2040.98  2079.13
                             2154.36  2171.33  2183.56  2191.26  2543.93
                             4371.16  4375.79  4400.10  4465.86  4475.87
                             4502.54  4504.15  5047.90  5517.43

 Zero-point correction=                           0.131104 (Hartree/Particle)
 Thermal correction to Energy=                    0.138373
 Thermal correction to Enthalpy=                  0.139317
 Thermal correction to Gibbs Free Energy=         0.100186
 Sum of electronic and zero-point Energies=           -287.693580
 Sum of electronic and thermal Energies=              -287.686311
 Sum of electronic and thermal Enthalpies=            -287.685366
 Sum of electronic and thermal Free Energies=         -287.724497

                     E (Thermal)             CV                S
                      KCal/Mol        Cal/Mol-Kelvin    Cal/Mol-Kelvin
 Total                   86.830             25.851             82.358
 Electronic               0.000              0.000              0.000
 Translational            0.889              2.981             39.305
 Rotational               0.889              2.981             26.718
 Vibrational             85.053             19.889             16.335
 Vibration     1          0.597              1.973              4.400
 Vibration     2          0.643              1.822              2.025
 Vibration     3          0.655              1.786              1.832
 Vibration     4          0.661              1.769              1.758
 Vibration     5          0.686              1.693              1.477
 Vibration     6          0.717              1.602              1.228
 Vibration     7          0.737              1.549              1.109
 Vibration     8          0.871              1.215              0.620
 Vibration     9          0.952              1.043              0.459

 Optimization completed.
    -- Stationary point found.
 Normal termination of Gaussian 09 at Thu Sep  8 15:14:39 2022.
