 Gaussian 09, Revision E.01,
 Gaussian 09:  ES64L-G09RevE.01 30-Nov-2015

 ----------------------------
 #P OPT Freq B3LYP/6-31G(d,p)
 ----------------------------

 --------
 Frag_790
 --------
 Symbolic Z-matrix:
 Charge =  0 Multiplicity = 1

 SCF Done:  E(RB3LYP) =  -251.911873227     A.U. after   13 cycles
 SCF Done:  E(RB3LYP) =  -251.911906763     A.U. after    8 cycles
 SCF Done:  E(RB3LYP) =  -251.911907914     A.U. after    7 cycles
 Optimization completed.
    -- Stationary point found.
 Normal termination of Gaussian 09 at Thu Sep  8 14:56:01 2022.

 ----------------------------------------------------------------------
 #P Geom=AllCheck Guess=TCheck SCRF=Check GenChk RB3LYP/6-31G(d,p) Freq
 ----------------------------------------------------------------------

 Structure from the checkpoint file:  "B3LYP6-31Gdp.Frag_790.chk"
 --------
 Frag_790
 --------
 Charge =  0 Multiplicity = 1

                         Standard orientation:
 ---------------------------------------------------------------------
 Center     Atomic      Atomic             Coordinates (Angstroms)
 Number     Number       Type             X           Y           Z
 ---------------------------------------------------------------------
      1          6           0       -1.091176   -0.476199    1.259833
      2          6           0       -0.341217    0.013070    0.000006
      3          6           0       -1.090889   -0.476084   -1.260038
      4          6           0       -0.239885    1.544005    0.000083
      5          6           0        1.033340   -0.630911    0.000100
      6          7           0        2.114684    0.039004    0.000028
      7          1           0       -0.591117   -0.137496    2.172967
      8          1           0       -2.114442   -0.085539    1.268429
      9          1           0       -1.152348   -1.570127    1.292517
     10          1           0       -2.114180   -0.085490   -1.268796
     11          1           0       -1.151987   -1.570012   -1.292876
     12          1           0       -0.590661   -0.137234   -2.173024
     13          1           0        0.300630    1.901584    0.880309
     14          1           0        0.300945    1.901653   -0.879916
     15          1           0       -1.240510    1.989836   -0.000069
     16          1           0        1.006217   -1.734149    0.000247
     17          1           0        2.923628   -0.589336    0.000107
 ---------------------------------------------------------------------

 SCF Done:  E(RB3LYP) =  -251.911907914     A.U. after    1 cycles

 The electronic state is 1-A.
 Alpha  occ. eigenvalues --  -14.31681 -10.22702 -10.20031 -10.17864 -10.17863
 Alpha  occ. eigenvalues --  -10.16426  -0.89971  -0.80645  -0.68662  -0.68061
 Alpha  occ. eigenvalues --   -0.62492  -0.51746  -0.49854  -0.44938  -0.43508
 Alpha  occ. eigenvalues --   -0.42578  -0.39203  -0.37682  -0.36235  -0.34030
 Alpha  occ. eigenvalues --   -0.33698  -0.32678  -0.30108  -0.25574
 Alpha virt. eigenvalues --    0.00481   0.08174   0.10826   0.13522   0.13621
 Alpha virt. eigenvalues --    0.15724   0.16411   0.16419   0.18820   0.20240
 Alpha virt. eigenvalues --    0.21104   0.21617   0.22582   0.24047   0.24148

 Mulliken charges:
               1
     1  C   -0.308159
     2  C    0.005036
     3  C   -0.308153
     4  C   -0.287757
     5  C    0.150390
     6  N   -0.482254
     7  H    0.110791
     8  H    0.105536
     9  H    0.096087
    10  H    0.105534
    11  H    0.096086
    12  H    0.110796
    13  H    0.112312
    14  H    0.112329
    15  H    0.086273
    16  H    0.067394
    17  H    0.227759
 Sum of Mulliken charges =  -0.00000

 Dipole moment (field-independent basis, Debye):
    X=             -0.7651    Y=             -1.6058    Z=              0.0001  Tot=              1.7788
 Quadrupole moment (field-independent basis, Debye-Ang):
   XX=            -38.7354   YY=            -38.6682   ZZ=            -39.2034
   XY=             -3.8206   XZ=              0.0004   YZ=             -0.0002

  Exact polarizability:  69.935   1.427  58.835   0.000  -0.001  51.363
 Approx polarizability:  98.445   7.087  83.320   0.000  -0.001  69.568

                      1                      2                      3
                      A                      A                      A
 Frequencies --     88.6560               209.8379               257.4521
 Red. masses --      3.2595                 1.0253                 1.2171
 Frc consts  --      0.0151                 0.0266                 0.0475
 IR Inten    --      4.7114                 0.0708                 1.4681

                      4                      5                      6
                      A                      A                      A
 Frequencies --    259.3333               285.7449               320.1712
 Red. masses --      1.0352                 2.0019                 1.9875
 Frc consts  --      0.0410                 0.0963                 0.1200
 IR Inten    --      0.6392                 3.5175                 6.5442

                      7                      8                      9
                      A                      A                      A
 Frequencies --    350.8518               392.9280               396.4583
 Red. masses --      2.5124                 2.2472                 1.9579
 Frc consts  --      0.1822                 0.2044                 0.1813
 IR Inten    --      2.4696                 0.5125                 6.7736

                     10                     11                     12
                      A                      A                      A
 Frequencies --    581.9245               744.3199               804.3019
 Red. masses --      3.5587                 3.2241                 1.5532
 Frc consts  --      0.7100                 1.0524                 0.5920
 IR Inten    --      7.3789                 9.6871                41.5392

                     13                     14                     15
                      A                      A                      A
 Frequencies --    893.0008               940.1471               950.8842
 Red. masses --      2.0139                 1.6974                 1.5948
 Frc consts  --      0.9462                 0.8840                 0.8496
 IR Inten    --     26.6517                 0.1154                 1.0995

                     16                     17                     18
                      A                      A                      A
 Frequencies --    968.5175              1048.8139              1049.1651
 Red. masses --      1.2037                 1.3989                 1.3927
 Frc consts  --      0.6652                 0.9066                 0.9032
 IR Inten    --      0.0001                 4.6207                 3.7753

                     19                     20                     21
                      A                      A                      A
 Frequencies --   1125.9484              1196.4612              1234.9940
 Red. masses --      1.2582                 1.3557                 2.6403
 Frc consts  --      0.9398                 1.1434                 2.3726
 IR Inten    --      8.8026                36.3439                10.3969

                     22                     23                     24
                      A                      A                      A
 Frequencies --   1259.1365              1326.3232              1407.7488
 Red. masses --      2.1705                 2.0916                 1.2166
 Frc consts  --      2.0274                 2.1678                 1.4205
 IR Inten    --      3.2382                 8.5413                 3.3757

                     25                     26                     27
                      A                      A                      A
 Frequencies --   1413.8918              1424.8122              1448.1637
 Red. masses --      1.2498                 1.3428                 1.3097
 Frc consts  --      1.4721                 1.6061                 1.6183
 IR Inten    --      6.2681                14.3810                 9.7862

                     28                     29                     30
                      A                      A                      A
 Frequencies --   1491.5483              1497.6217              1500.1324
 Red. masses --      1.0474                 1.0438                 1.0464
 Frc consts  --      1.3729                 1.3794                 1.3874
 IR Inten    --      0.0166                 0.1099                 0.2608

                     31                     32                     33
                      A                      A                      A
 Frequencies --   1512.6563              1518.9038              1531.4572
 Red. masses --      1.0501                 1.0586                 1.0732
 Frc consts  --      1.4156                 1.4390                 1.4830
 IR Inten    --      3.7964                 4.5340                 9.0572

                     34                     35                     36
                      A                      A                      A
 Frequencies --   1735.7915              2982.4551              3033.4012
 Red. masses --      6.9053                 1.0854                 1.0347
 Frc consts  --     12.2583                 5.6882                 5.6092
 IR Inten    --     68.6267                62.0899                25.5326

                     37                     38                     39
                      A                      A                      A
 Frequencies --   3037.5716              3050.8253              3102.8028
 Red. masses --      1.0354                 1.0380                 1.1022
 Frc consts  --      5.6285                 5.6921                 6.2521
 IR Inten    --     31.9226                16.5147                 0.7433

                     40                     41                     42
                      A                      A                      A
 Frequencies --   3107.3059              3114.9091              3115.8602
 Red. masses --      1.1014                 1.1033                 1.1024
 Frc consts  --      6.2657                 6.3070                 6.3060
 IR Inten    --     59.2697                17.4079                12.5927

                     43                     44                     45
                      A                      A                      A
 Frequencies --   3123.6991              3137.7492              3441.9950
 Red. masses --      1.1002                 1.1022                 1.0761
 Frc consts  --      6.3248                 6.3937                 7.5113
 IR Inten    --     42.8777                24.0869                 6.5102

 - Thermochemistry -
 -------------------
 Temperature   298.150 Kelvin.  Pressure   1.00000 Atm.
 Atom     1 has atomic number  6 and mass  12.00000

 Molecular mass:    85.08915 amu.
 Principal axes and moments of inertia in atomic units:
                           1         2         3
     Eigenvalues --   408.22287 662.13446 671.89955
           X            0.99996  -0.00900  -0.00000
           Y            0.00900   0.99996  -0.00004
           Z            0.00000   0.00004   1.00000
 This molecule is an asymmetric top.
 Rotational symmetry number  1.
 Rotational temperatures (Kelvin)      0.21217     0.13081     0.12891
 Rotational constants (GHZ):           4.42097     2.72564     2.68603
 Zero-point vibrational energy     403241.3 (Joules/Mol)
                                   96.37697 (Kcal/Mol)
 Warning -- explicit consideration of  10 degrees of freedom as
           vibrations may cause significant error
 Vibrational temperatures:    127.56   301.91   370.42   373.12   411.12
          (Kelvin)            460.65   504.80   565.34   570.41   837.26
                             1070.91  1157.21  1284.83  1352.66  1368.11
                             1393.48  1509.01  1509.51  1619.99  1721.44
                             1776.88  1811.61  1908.28  2025.43  2034.27
                             2049.98  2083.58  2146.00  2154.74  2158.35
                             2176.37  2185.36  2203.42  2497.41  4291.08
                             4364.38  4370.38  4389.45  4464.24  4470.71
                             4481.65  4483.02  4494.30  4514.52  4952.26

 Zero-point correction=                           0.153586 (Hartree/Particle)
 Thermal correction to Energy=                    0.161221
 Thermal correction to Enthalpy=                  0.162165
 Thermal correction to Gibbs Free Energy=         0.122796
 Sum of electronic and zero-point Energies=           -251.758321
 Sum of electronic and thermal Energies=              -251.750687
 Sum of electronic and thermal Enthalpies=            -251.749743
 Sum of electronic and thermal Free Energies=         -251.789112

                     E (Thermal)             CV                S
                      KCal/Mol        Cal/Mol-Kelvin    Cal/Mol-Kelvin
 Total                  101.168             27.846             82.859
 Electronic               0.000              0.000              0.000
 Translational            0.889              2.981             39.237
 Rotational               0.889              2.981             26.699
 Vibrational             99.390             21.885             16.923
 Vibration     1          0.601              1.957              3.690
 Vibration     2          0.642              1.826              2.045
 Vibration     3          0.667              1.750              1.679
 Vibration     4          0.668              1.747              1.666
 Vibration     5          0.684              1.700              1.499
 Vibration     6          0.706              1.635              1.309
 Vibration     7          0.728              1.574              1.162
 Vibration     8          0.760              1.485              0.989
 Vibration     9          0.763              1.478              0.976
 Vibration    10          0.939              1.070              0.482

 Optimization completed.
    -- Stationary point found.
 Normal termination of Gaussian 09 at Thu Sep  8 14:56:16 2022.
