 Gaussian 09, Revision E.01,
 Gaussian 09:  ES64L-G09RevE.01 30-Nov-2015

 -------------------------
 #P OPT Freq B3LYP/6-31G**
 -------------------------

 --------
 Frag_121
 --------
 Symbolic Z-matrix:
 Charge =  0 Multiplicity = 1

 SCF Done:  E(RB3LYP) =  -248.528591724     A.U. after   14 cycles
 SCF Done:  E(RB3LYP) =  -248.538632629     A.U. after   12 cycles
 SCF Done:  E(RB3LYP) =  -248.538809249     A.U. after   11 cycles
 SCF Done:  E(RB3LYP) =  -248.538744858     A.U. after   12 cycles
 SCF Done:  E(RB3LYP) =  -248.538914636     A.U. after    8 cycles
 SCF Done:  E(RB3LYP) =  -248.538969984     A.U. after   11 cycles
 SCF Done:  E(RB3LYP) =  -248.539152359     A.U. after   12 cycles
 SCF Done:  E(RB3LYP) =  -248.538985493     A.U. after   11 cycles
 SCF Done:  E(RB3LYP) =  -248.538240915     A.U. after   11 cycles
 SCF Done:  E(RB3LYP) =  -248.539196043     A.U. after    7 cycles
 SCF Done:  E(RB3LYP) =  -248.539714088     A.U. after    8 cycles
 SCF Done:  E(RB3LYP) =  -248.540117014     A.U. after   11 cycles
 SCF Done:  E(RB3LYP) =  -248.540496712     A.U. after   14 cycles
 SCF Done:  E(RB3LYP) =  -248.540608068     A.U. after   12 cycles
 SCF Done:  E(RB3LYP) =  -248.540653925     A.U. after   10 cycles
 SCF Done:  E(RB3LYP) =  -248.540670214     A.U. after   11 cycles
 SCF Done:  E(RB3LYP) =  -248.540673555     A.U. after    8 cycles
 SCF Done:  E(RB3LYP) =  -248.540675311     A.U. after    9 cycles
 SCF Done:  E(RB3LYP) =  -248.540675770     A.U. after    8 cycles
 Optimization completed.
    -- Stationary point found.
 Normal termination of Gaussian 09 at Sat Aug 21 01:35:20 2021.

 ----------------------------------------------------------------------
 #P Geom=AllCheck Guess=TCheck SCRF=Check GenChk RB3LYP/6-31G(d,p) Freq
 ----------------------------------------------------------------------

 Structure from the checkpoint file:  "/public/home/users/caep010/.cache/gau_scr/Gau-149850.chk"
 --------
 Frag_121
 --------
 Charge =  0 Multiplicity = 1

                         Standard orientation:
 ---------------------------------------------------------------------
 Center     Atomic      Atomic             Coordinates (Angstroms)
 Number     Number       Type             X           Y           Z
 ---------------------------------------------------------------------
      1          6           0       -1.967240   -0.037449   -0.150871
      2          6           0       -0.690232    0.727935    0.192283
      3          6           0        0.562213   -0.135913    0.037344
      4          7           0        1.727716    0.561353   -0.134604
      5          8           0        0.537119   -1.357344    0.074531
      6          1           0       -1.989661   -0.309230   -1.210217
      7          1           0       -2.017677   -0.963215    0.425781
      8          1           0       -2.852983    0.566301    0.066914
      9          1           0       -0.722138    1.066413    1.237316
     10          1           0       -0.595368    1.633769   -0.419364
     11          1           0        1.766354    1.566269   -0.086544
     12          1           0        2.592074    0.041536   -0.140442
 ---------------------------------------------------------------------

 SCF Done:  E(RB3LYP) =  -248.540675770     A.U. after    1 cycles

 The electronic state is 1-A.
 Alpha  occ. eigenvalues --  -19.10602 -14.35407 -10.28379 -10.19504 -10.17343
 Alpha  occ. eigenvalues --   -1.02463  -0.89883  -0.77042  -0.65063  -0.57164
 Alpha  occ. eigenvalues --   -0.53091  -0.47502  -0.45700  -0.40703  -0.39005
 Alpha  occ. eigenvalues --   -0.36642  -0.35792  -0.34066  -0.26415  -0.24408
 Alpha virt. eigenvalues --    0.03400   0.07325   0.10980   0.13292   0.15343
 Alpha virt. eigenvalues --    0.16801   0.17618   0.20084   0.23293   0.24867
 Alpha virt. eigenvalues --    0.33051   0.36605   0.51409   0.53085   0.55356

 Mulliken charges:
               1
     1  C   -0.307485
     2  C   -0.268173
     3  C    0.573760
     4  N   -0.609715
     5  O   -0.502246
     6  H    0.114872
     7  H    0.135601
     8  H    0.094269
     9  H    0.127888
    10  H    0.101134
    11  H    0.265070
    12  H    0.275026
 Sum of Mulliken charges =  -0.00000

 Dipole moment (field-independent basis, Debye):
    X=              0.9366    Y=              3.4699    Z=              0.1206  Tot=              3.5961
 Quadrupole moment (field-independent basis, Debye-Ang):
   XX=            -25.1059   YY=            -32.4403   ZZ=            -30.9799
   XY=              2.6946   XZ=             -0.1646   YZ=              0.3469

  Exact polarizability:  48.292   2.185  44.237  -1.162  -0.219  29.764
 Approx polarizability:  57.769   4.921  71.221  -2.231  -1.413  42.000

                      1                      2                      3
                      A                      A                      A
 Frequencies --     36.5966               161.0176               204.9724
 Red. masses --      2.0406                 1.2663                 1.1057
 Frc consts  --      0.0016                 0.0193                 0.0274
 IR Inten    --      3.7356               219.3952                 1.0079

                      4                      5                      6
                      A                      A                      A
 Frequencies --    260.7429               436.5140               504.9855
 Red. masses --      3.2045                 2.6536                 1.5481
 Frc consts  --      0.1284                 0.2979                 0.2326
 IR Inten    --     10.2535                 3.2056                 5.6163

                      7                      8                      9
                      A                      A                      A
 Frequencies --    601.0872               658.1768               789.9768
 Red. masses --      2.1120                 1.8251                 2.2993
 Frc consts  --      0.4496                 0.4658                 0.8454
 IR Inten    --     12.1886                 6.6195                 3.7197

                     10                     11                     12
                      A                      A                      A
 Frequencies --    820.5919              1007.6300              1063.1870
 Red. masses --      1.4922                 1.5286                 2.2418
 Frc consts  --      0.5920                 0.9144                 1.4931
 IR Inten    --      9.6471                 2.7400                 3.2560

                     13                     14                     15
                      A                      A                      A
 Frequencies --   1103.3904              1125.6028              1287.6121
 Red. masses --      1.6912                 1.9651                 1.3922
 Frc consts  --      1.2131                 1.4669                 1.3599
 IR Inten    --      0.3652                 1.8753                46.7153

                     16                     17                     18
                      A                      A                      A
 Frequencies --   1296.5174              1410.3934              1426.1946
 Red. masses --      1.5670                 2.1672                 1.2701
 Frc consts  --      1.5520                 2.5400                 1.5221
 IR Inten    --     58.4277                65.0248                 3.2750

                     19                     20                     21
                      A                      A                      A
 Frequencies --   1481.6357              1507.1283              1518.6627
 Red. masses --      1.0836                 1.0403                 1.0540
 Frc consts  --      1.4016                 1.3922                 1.4322
 IR Inten    --      4.1317                 6.0708                 8.2194

                     22                     23                     24
                      A                      A                      A
 Frequencies --   1624.4250              1805.1515              3030.8124
 Red. masses --      1.2611                 9.2158                 1.0616
 Frc consts  --      1.9606                17.6934                 5.7455
 IR Inten    --    110.8939               266.5220                19.9109

                     25                     26                     27
                      A                      A                      A
 Frequencies --   3059.7398              3069.2996              3127.9032
 Red. masses --      1.0386                 1.0981                 1.1032
 Frc consts  --      5.7291                 6.0950                 6.3591
 IR Inten    --     23.8967                21.1111                29.4582

                     28                     29                     30
                      A                      A                      A
 Frequencies --   3150.7456              3603.0284              3743.4039
 Red. masses --      1.1017                 1.0449                 1.1050
 Frc consts  --      6.4439                 7.9924                 9.1234
 IR Inten    --     16.3521                29.6462                31.0924

 - Thermochemistry -
 -------------------
 Temperature   298.150 Kelvin.  Pressure   1.00000 Atm.
 Atom     1 has atomic number  6 and mass  12.00000

 Molecular mass:    73.05276 amu.
 Principal axes and moments of inertia in atomic units:
                           1         2         3
     Eigenvalues --   187.17103 477.75799 632.92515
           X            0.99974   0.02291   0.00179
           Y           -0.02293   0.99967   0.01122
           Z           -0.00154  -0.01126   0.99994
 This molecule is an asymmetric top.
 Rotational symmetry number  1.
 Rotational temperatures (Kelvin)      0.46275     0.18129     0.13685
 Rotational constants (GHZ):           9.64220     3.77752     2.85143
 Zero-point vibrational energy     268664.1 (Joules/Mol)
                                   64.21225 (Kcal/Mol)
 Warning -- explicit consideration of   7 degrees of freedom as
           vibrations may cause significant error
 Vibrational temperatures:     52.65   231.67   294.91   375.15   628.05
          (Kelvin)            726.56   864.83   946.97  1136.60  1180.65
                             1449.75  1529.69  1587.53  1619.49  1852.58
                             1865.40  2029.24  2051.97  2131.74  2168.42
                             2185.01  2337.18  2597.21  4360.66  4402.28
                             4416.03  4500.35  4533.21  5183.95  5385.92

 Zero-point correction=                           0.102329 (Hartree/Particle)
 Thermal correction to Energy=                    0.108781
 Thermal correction to Enthalpy=                  0.109725
 Thermal correction to Gibbs Free Energy=         0.072117
 Sum of electronic and zero-point Energies=           -248.438347
 Sum of electronic and thermal Energies=              -248.431895
 Sum of electronic and thermal Enthalpies=            -248.430951
 Sum of electronic and thermal Free Energies=         -248.468559

                     E (Thermal)             CV                S
                      KCal/Mol        Cal/Mol-Kelvin    Cal/Mol-Kelvin
 Total                   68.261             21.284             79.154
 Electronic               0.000              0.000              0.000
 Translational            0.889              2.981             38.782
 Rotational               0.889              2.981             25.540
 Vibrational             66.484             15.322             14.831
 Vibration     1          0.594              1.982              5.435
 Vibration     2          0.622              1.890              2.538
 Vibration     3          0.640              1.833              2.088
 Vibration     4          0.669              1.745              1.657
 Vibration     5          0.797              1.391              0.838
 Vibration     6          0.860              1.239              0.646
 Vibration     7          0.959              1.029              0.448

 Normal termination of Gaussian 09 at Sat Aug 21 01:35:29 2021.
