 Gaussian 09, Revision E.01,
 Gaussian 09:  ES64L-G09RevE.01 30-Nov-2015

 --------------------------------
 #P OPT=calcfc Freq B3LYP/6-31G**
 --------------------------------

 --------
 Frag_416
 --------
 Symbolic Z-matrix:
 Charge =  0 Multiplicity = 1

 SCF Done:  E(RB3LYP) =  -308.478430002     A.U. after   12 cycles
 SCF Done:  E(RB3LYP) =  -308.484630648     A.U. after   11 cycles
 SCF Done:  E(RB3LYP) =  -308.485062387     A.U. after   11 cycles
 SCF Done:  E(RB3LYP) =  -308.485197921     A.U. after   10 cycles
 SCF Done:  E(RB3LYP) =  -308.485208181     A.U. after    8 cycles
 SCF Done:  E(RB3LYP) =  -308.485208454     A.U. after    6 cycles
 Optimization completed.
    -- Stationary point found.
 Normal termination of Gaussian 09 at Fri Sep 10 20:13:23 2021.

 ----------------------------------------------------------------------
 #P Geom=AllCheck Guess=TCheck SCRF=Check GenChk RB3LYP/6-31G(d,p) Freq
 ----------------------------------------------------------------------

 Structure from the checkpoint file:  "/public/home/users/caep010/.cache/gau_scr/Gau-108946.chk"
 --------
 Frag_416
 --------
 Charge =  0 Multiplicity = 1

                         Standard orientation:
 ---------------------------------------------------------------------
 Center     Atomic      Atomic             Coordinates (Angstroms)
 Number     Number       Type             X           Y           Z
 ---------------------------------------------------------------------
      1          6           0        1.646428    1.241089    0.035551
      2          6           0        0.848484    0.016894   -0.443493
      3          7           0        1.484044   -1.262763   -0.071682
      4          6           0       -0.657244   -0.017743   -0.007541
      5          6           0       -0.799214   -0.149567    1.519542
      6          6           0       -1.391241    1.241648   -0.491102
      7          7           0       -1.339366   -1.183475   -0.601512
      8          1           0        2.672245    1.195232   -0.347391
      9          1           0        1.705407    1.276304    1.129458
     10          1           0        1.210608    2.184545   -0.306793
     11          1           0        0.832173    0.036284   -1.542743
     12          1           0        1.750055   -1.239315    0.911234
     13          1           0        2.351853   -1.377108   -0.589818
     14          1           0       -0.336670    0.688289    2.051368
     15          1           0       -0.345441   -1.079840    1.876983
     16          1           0       -1.859327   -0.182969    1.783397
     17          1           0       -1.060171    2.140316    0.036243
     18          1           0       -1.234490    1.404154   -1.565119
     19          1           0       -2.465224    1.122038   -0.322548
     20          1           0       -1.393966   -1.052197   -1.611784
     21          1           0       -0.723082   -1.985997   -0.467879
 ---------------------------------------------------------------------

 SCF Done:  E(RB3LYP) =  -308.485208454     A.U. after    1 cycles

 The electronic state is 1-A.
 Alpha  occ. eigenvalues --  -14.31477 -14.28960 -10.20926 -10.20908 -10.17537
 Alpha  occ. eigenvalues --  -10.16725 -10.16334  -0.89722  -0.85537  -0.75070
 Alpha  occ. eigenvalues --   -0.71217  -0.67887  -0.62043  -0.53309  -0.49669
 Alpha  occ. eigenvalues --   -0.46527  -0.45249  -0.43551  -0.42028  -0.39783
 Alpha  occ. eigenvalues --   -0.38634  -0.37568  -0.36886  -0.35475  -0.34654
 Alpha  occ. eigenvalues --   -0.32015  -0.31518  -0.24024  -0.22061
 Alpha virt. eigenvalues --    0.06714   0.10395   0.11751   0.12974   0.14008
 Alpha virt. eigenvalues --    0.14323   0.15851   0.16528   0.17954   0.18870
 Alpha virt. eigenvalues --    0.19283   0.20586   0.21499   0.22873   0.23156

 Mulliken charges:
               1
     1  C   -0.322185
     2  C    0.058522
     3  N   -0.605863
     4  C    0.154258
     5  C   -0.303857
     6  C   -0.311572
     7  N   -0.589339
     8  H    0.091971
     9  H    0.100209
    10  H    0.105528
    11  H    0.077044
    12  H    0.236631
    13  H    0.237540
    14  H    0.088561
    15  H    0.096533
    16  H    0.115600
    17  H    0.099183
    18  H    0.087235
    19  H    0.116587
    20  H    0.218459
    21  H    0.248954
 Sum of Mulliken charges =  -0.00000

 Dipole moment (field-independent basis, Debye):
    X=              2.2498    Y=              0.9265    Z=             -0.3261  Tot=              2.4549
 Quadrupole moment (field-independent basis, Debye-Ang):
   XX=            -46.3895   YY=            -48.3608   ZZ=            -43.5024
   XY=             -3.0857   XZ=              0.5179   YZ=              0.1217

  Exact polarizability:  71.545  -0.900  67.735   0.541  -0.254  66.096
 Approx polarizability:  93.250  -1.071  93.895   1.299  -0.226  95.112

                      1                      2                      3
                      A                      A                      A
 Frequencies --     96.3289               211.1715               240.0876
 Red. masses --      2.5202                 1.0413                 1.2387
 Frc consts  --      0.0138                 0.0274                 0.0421
 IR Inten    --      0.1318                 2.1675                 4.7413

                      4                      5                      6
                      A                      A                      A
 Frequencies --    248.1044               275.4660               282.3939
 Red. masses --      1.3599                 1.5926                 2.2062
 Frc consts  --      0.0493                 0.0712                 0.1037
 IR Inten    --      2.5235                 2.4070                 7.3441

                      7                      8                      9
                      A                      A                      A
 Frequencies --    288.6280               340.0221               358.3397
 Red. masses --      1.1177                 1.0969                 2.1595
 Frc consts  --      0.0549                 0.0747                 0.1634
 IR Inten    --     27.4193                38.0735                 1.1125

                     10                     11                     12
                      A                      A                      A
 Frequencies --    365.0822               408.8977               454.1029
 Red. masses --      2.6577                 2.3923                 2.3012
 Frc consts  --      0.2087                 0.2357                 0.2796
 IR Inten    --      5.1287                 8.2870                 5.8389

                     13                     14                     15
                      A                      A                      A
 Frequencies --    495.0771               551.1611               701.5690
 Red. masses --      2.8178                 2.5276                 2.7990
 Frc consts  --      0.4069                 0.4524                 0.8117
 IR Inten    --     10.9293                 4.3773                 1.1240

                     16                     17                     18
                      A                      A                      A
 Frequencies --    857.2363               878.4079               915.0313
 Red. masses --      2.3942                 1.7399                 1.7905
 Frc consts  --      1.0366                 0.7910                 0.8833
 IR Inten    --     14.9032                82.9078                80.3480

                     19                     20                     21
                      A                      A                      A
 Frequencies --    937.8535               943.7904               994.1177
 Red. masses --      1.4093                 1.5236                 1.2994
 Frc consts  --      0.7303                 0.7996                 0.7566
 IR Inten    --     55.0010                 7.3610                29.9571

                     22                     23                     24
                      A                      A                      A
 Frequencies --   1014.2830              1034.8055              1067.0153
 Red. masses --      1.2941                 1.4820                 1.4563
 Frc consts  --      0.7844                 0.9350                 0.9769
 IR Inten    --      7.0312                30.5705                16.4063

                     25                     26                     27
                      A                      A                      A
 Frequencies --   1090.3954              1141.8733              1223.7796
 Red. masses --      2.7700                 1.5109                 1.8597
 Frc consts  --      1.9404                 1.1607                 1.6410
 IR Inten    --     28.7760                21.6666                26.8371

                     28                     29                     30
                      A                      A                      A
 Frequencies --   1232.7158              1276.4875              1336.8740
 Red. masses --      2.1917                 2.5387                 1.5232
 Frc consts  --      1.9623                 2.4372                 1.6039
 IR Inten    --      3.1814                14.4212                 9.3287

                     31                     32                     33
                      A                      A                      A
 Frequencies --   1373.2011              1405.9027              1415.5982
 Red. masses --      1.4016                 1.2524                 1.3818
 Frc consts  --      1.5572                 1.4585                 1.6314
 IR Inten    --      1.9358                 7.0870                 5.5409

                     34                     35                     36
                      A                      A                      A
 Frequencies --   1417.1821              1431.7260              1494.1922
 Red. masses --      1.3249                 1.2506                 1.0524
 Frc consts  --      1.5678                 1.5104                 1.3844
 IR Inten    --      7.8917                11.9853                 1.0191

                     37                     38                     39
                      A                      A                      A
 Frequencies --   1504.0594              1510.5998              1512.0089
 Red. masses --      1.0485                 1.0631                 1.0558
 Frc consts  --      1.3975                 1.4293                 1.4222
 IR Inten    --      1.6046                 2.8487                 3.2707

                     40                     41                     42
                      A                      A                      A
 Frequencies --   1519.4224              1524.6445              1665.9373
 Red. masses --      1.0522                 1.0497                 1.0888
 Frc consts  --      1.4313                 1.4377                 1.7804
 IR Inten    --      0.8582                 5.9330                25.8786

                     43                     44                     45
                      A                      A                      A
 Frequencies --   1678.4253              3016.1533              3035.3198
 Red. masses --      1.0890                 1.0843                 1.0381
 Frc consts  --      1.8075                 5.8118                 5.6349
 IR Inten    --     22.9665                26.3768                25.5732

                     46                     47                     48
                      A                      A                      A
 Frequencies --   3036.3711              3047.6958              3100.2812
 Red. masses --      1.0395                 1.0370                 1.1019
 Frc consts  --      5.6464                 5.6751                 6.2404
 IR Inten    --     28.6156                13.1785                31.5417

                     49                     50                     51
                      A                      A                      A
 Frequencies --   3107.5341              3114.4823              3116.8539
 Red. masses --      1.0960                 1.1007                 1.1017
 Frc consts  --      6.2358                 6.2906                 6.3061
 IR Inten    --     34.5132                52.2100                14.0663

                     52                     53                     54
                      A                      A                      A
 Frequencies --   3131.0311              3135.5209              3452.7310
 Red. masses --      1.1015                 1.1019                 1.0494
 Frc consts  --      6.3621                 6.3825                 7.3709
 IR Inten    --     11.4496                39.3469                 6.5960

                     55                     56                     57
                      A                      A                      A
 Frequencies --   3484.8466              3534.2527              3566.8548
 Red. masses --      1.0498                 1.0908                 1.0919
 Frc consts  --      7.5114                 8.0277                 8.1844
 IR Inten    --      0.9287                 4.6564                 0.1088

 - Thermochemistry -
 -------------------
 Temperature   298.150 Kelvin.  Pressure   1.00000 Atm.
 Atom     1 has atomic number  6 and mass  12.00000

 Molecular mass:   102.11570 amu.
 Principal axes and moments of inertia in atomic units:
                           1         2         3
     Eigenvalues --   588.17366 816.89180 979.45241
           X            0.99994  -0.01098   0.00172
           Y            0.01101   0.99979  -0.01716
           Z           -0.00153   0.01717   0.99985
 This molecule is an asymmetric top.
 Rotational symmetry number  1.
 Warning -- assumption of classical behavior for rotation
           may cause significant error
 Rotational temperatures (Kelvin)      0.14726     0.10603     0.08843
 Rotational constants (GHZ):           3.06838     2.20928     1.84260
 Zero-point vibrational energy     511965.4 (Joules/Mol)
                                  122.36266 (Kcal/Mol)
 Warning -- explicit consideration of  14 degrees of freedom as
           vibrations may cause significant error
 Vibrational temperatures:    138.60   303.83   345.43   356.97   396.33
          (Kelvin)            406.30   415.27   489.22   515.57   525.27
                              588.31   653.35   712.30   793.00  1009.40
                             1233.37  1263.83  1316.52  1349.36  1357.90
                             1430.31  1459.33  1488.85  1535.20  1568.83
                             1642.90  1760.74  1773.60  1836.58  1923.46
                             1975.73  2022.78  2036.73  2039.01  2059.93
                             2149.81  2164.00  2173.41  2175.44  2186.11
                             2193.62  2396.91  2414.88  4339.57  4367.14
                             4368.66  4384.95  4460.61  4471.04  4481.04
                             4484.45  4504.85  4511.31  4967.70  5013.91
                             5085.00  5131.90

 Zero-point correction=                           0.194997 (Hartree/Particle)
 Thermal correction to Energy=                    0.204160
 Thermal correction to Enthalpy=                  0.205104
 Thermal correction to Gibbs Free Energy=         0.162722
 Sum of electronic and zero-point Energies=           -308.290211
 Sum of electronic and thermal Energies=              -308.281049
 Sum of electronic and thermal Enthalpies=            -308.280105
 Sum of electronic and thermal Free Energies=         -308.322487

                     E (Thermal)             CV                S
                      KCal/Mol        Cal/Mol-Kelvin    Cal/Mol-Kelvin
 Total                  128.112             35.217             89.201
 Electronic               0.000              0.000              0.000
 Translational            0.889              2.981             39.780
 Rotational               0.889              2.981             27.645
 Vibrational            126.335             29.255             21.775
 Vibration     1          0.603              1.952              3.527
 Vibration     2          0.643              1.824              2.034
 Vibration     3          0.657              1.779              1.802
 Vibration     4          0.662              1.766              1.744
 Vibration     5          0.677              1.719              1.562
 Vibration     6          0.681              1.706              1.519
 Vibration     7          0.685              1.695              1.482
 Vibration     8          0.720              1.596              1.212
 Vibration     9          0.733              1.558              1.129
 Vibration    10          0.738              1.544              1.100
 Vibration    11          0.773              1.451              0.931
 Vibration    12          0.813              1.352              0.783
 Vibration    13          0.851              1.261              0.671
 Vibration    14          0.906              1.137              0.542

 Optimization completed.
    -- Stationary point found.
 Normal termination of Gaussian 09 at Fri Sep 10 20:13:45 2021.
