 Gaussian 09, Revision E.01,
 Gaussian 09:  ES64L-G09RevE.01 30-Nov-2015

 ----------------------------
 #P OPT Freq B3LYP/6-31G(d,p)
 ----------------------------

 --------
 Frag_751
 --------
 Symbolic Z-matrix:
 Charge =  0 Multiplicity = 1

 SCF Done:  E(RB3LYP) =  -209.167560130     A.U. after   13 cycles
 SCF Done:  E(RB3LYP) =  -209.167619248     A.U. after    9 cycles
 SCF Done:  E(RB3LYP) =  -209.167626855     A.U. after    9 cycles
 SCF Done:  E(RB3LYP) =  -209.167634145     A.U. after   10 cycles
 SCF Done:  E(RB3LYP) =  -209.167638964     A.U. after    9 cycles
 SCF Done:  E(RB3LYP) =  -209.167642018     A.U. after    9 cycles
 SCF Done:  E(RB3LYP) =  -209.167642547     A.U. after    8 cycles
 Optimization completed.
    -- Stationary point found.
 Normal termination of Gaussian 09 at Thu Sep  8 15:04:58 2022.

 ----------------------------------------------------------------------
 #P Geom=AllCheck Guess=TCheck SCRF=Check GenChk RB3LYP/6-31G(d,p) Freq
 ----------------------------------------------------------------------

 Structure from the checkpoint file:  "B3LYP6-31Gdp.Frag_751.chk"
 --------
 Frag_751
 --------
 Charge =  0 Multiplicity = 1

                         Standard orientation:
 ---------------------------------------------------------------------
 Center     Atomic      Atomic             Coordinates (Angstroms)
 Number     Number       Type             X           Y           Z
 ---------------------------------------------------------------------
      1          7           0        1.461539   -0.503114   -0.087786
      2          6           0        0.649103    0.635291    0.005937
      3          6           0       -0.688566    0.615430    0.010954
      4          8           0       -1.365042   -0.595206   -0.059919
      5          1           0        0.937416   -1.352679    0.091326
      6          1           0        2.286851   -0.461032    0.498518
      7          1           0        1.165177    1.589868   -0.016400
      8          1           0       -1.280942    1.524892   -0.029017
      9          1           0       -2.182156   -0.521926    0.448086
 ---------------------------------------------------------------------

 SCF Done:  E(RB3LYP) =  -209.167642547     A.U. after    1 cycles

 The electronic state is 1-A.
 Alpha  occ. eigenvalues --  -19.15819 -14.32333 -10.20962 -10.19712  -1.02971
 Alpha  occ. eigenvalues --   -0.88788  -0.71510  -0.57354  -0.52536  -0.49152
 Alpha  occ. eigenvalues --   -0.44178  -0.40317  -0.37402  -0.32533  -0.29998
 Alpha  occ. eigenvalues --   -0.18054
 Alpha virt. eigenvalues --    0.06381   0.06811   0.11215   0.13115   0.17260
 Alpha virt. eigenvalues --    0.18930   0.22387   0.37064   0.39646   0.52203
 Alpha virt. eigenvalues --    0.56007   0.60036   0.63255   0.65275   0.66786

 Mulliken charges:
               1
     1  N   -0.606649
     2  C    0.050793
     3  C    0.089929
     4  O   -0.537476
     5  H    0.264723
     6  H    0.249412
     7  H    0.093184
     8  H    0.080230
     9  H    0.315854
 Sum of Mulliken charges =  -0.00000

 Dipole moment (field-independent basis, Debye):
    X=             -0.5105    Y=              0.4257    Z=              2.0231  Tot=              2.1295
 Quadrupole moment (field-independent basis, Debye-Ang):
   XX=            -17.7580   YY=            -22.2959   ZZ=            -26.0747
   XY=             -0.5285   XZ=              0.5250   YZ=             -1.4871

  Exact polarizability:  48.661  -1.579  31.787  -0.338  -0.265  15.964
 Approx polarizability:  74.212  -1.673  42.635  -1.361   0.759  22.236

                      1                      2                      3
                      A                      A                      A
 Frequencies --    213.4558               248.9661               331.6424
 Red. masses --      1.1502                 3.4800                 1.1134
 Frc consts  --      0.0309                 0.1271                 0.0722
 IR Inten    --    143.3792                42.1000                45.1233

                      4                      5                      6
                      A                      A                      A
 Frequencies --    500.8280               688.0862               718.3063
 Red. masses --      2.8546                 1.2376                 3.4719
 Frc consts  --      0.4219                 0.3452                 1.0554
 IR Inten    --     37.9437               213.5557                17.8704

                      7                      8                      9
                      A                      A                      A
 Frequencies --    775.5937               874.8456              1026.3629
 Red. masses --      1.4982                 1.1725                 3.5570
 Frc consts  --      0.5310                 0.5287                 2.2077
 IR Inten    --    120.5360                17.7771                 9.8856

                     10                     11                     12
                      A                      A                      A
 Frequencies --   1106.0648              1184.9501              1267.1581
 Red. masses --      1.7522                 1.2581                 1.4099
 Frc consts  --      1.2629                 1.0408                 1.3339
 IR Inten    --     76.6439                17.4908               111.1413

                     13                     14                     15
                      A                      A                      A
 Frequencies --   1320.5758              1439.6944              1650.3075
 Red. masses --      1.3864                 1.4230                 1.1335
 Frc consts  --      1.4245                 1.7377                 1.8188
 IR Inten    --      8.8834                26.7893                37.6774

                     16                     17                     18
                      A                      A                      A
 Frequencies --   1777.4866              3182.2854              3211.5619
 Red. masses --      5.3203                 1.0868                 1.0976
 Frc consts  --      9.9036                 6.4845                 6.6702
 IR Inten    --     34.1545                 5.8268                23.5903

                     19                     20                     21
                      A                      A                      A
 Frequencies --   3529.5551              3635.6934              3826.6854
 Red. masses --      1.0472                 1.0970                 1.0667
 Frc consts  --      7.6866                 8.5430                 9.2032
 IR Inten    --      3.6493                 6.9620                37.8298

 - Thermochemistry -
 -------------------
 Temperature   298.150 Kelvin.  Pressure   1.00000 Atm.
 Atom     1 has atomic number  7 and mass  14.00307

 Molecular mass:    59.03711 amu.
 Principal axes and moments of inertia in atomic units:
                           1         2         3
     Eigenvalues --    94.26995 303.71224 393.72732
           X            0.99977  -0.02129   0.00372
           Y            0.02138   0.99945  -0.02554
           Z           -0.00317   0.02561   0.99967
 This molecule is an asymmetric top.
 Rotational symmetry number  1.
 Rotational temperatures (Kelvin)      0.91878     0.28518     0.21998
 Rotational constants (GHZ):          19.14440     5.94227     4.58373
 Zero-point vibrational energy     194453.6 (Joules/Mol)
                                   46.47553 (Kcal/Mol)
 Warning -- explicit consideration of   4 degrees of freedom as
           vibrations may cause significant error
 Vibrational temperatures:    307.11   358.21   477.16   720.58   990.00
          (Kelvin)           1033.48  1115.90  1258.71  1476.71  1591.38
                             1704.88  1823.16  1900.01  2071.40  2374.42
                             2557.40  4578.59  4620.72  5078.24  5230.95
                             5505.74

 Zero-point correction=                           0.074063 (Hartree/Particle)
 Thermal correction to Energy=                    0.079007
 Thermal correction to Enthalpy=                  0.079951
 Thermal correction to Gibbs Free Energy=         0.047165
 Sum of electronic and zero-point Energies=           -209.093579
 Sum of electronic and thermal Energies=              -209.088636
 Sum of electronic and thermal Enthalpies=            -209.087692
 Sum of electronic and thermal Free Energies=         -209.120477

                     E (Thermal)             CV                S
                      KCal/Mol        Cal/Mol-Kelvin    Cal/Mol-Kelvin
 Total                   49.577             16.587             69.002
 Electronic               0.000              0.000              0.000
 Translational            0.889              2.981             38.147
 Rotational               0.889              2.981             23.937
 Vibrational             47.800             10.625              6.918
 Vibration     1          0.644              1.820              2.014
 Vibration     2          0.662              1.764              1.738
 Vibration     3          0.714              1.612              1.252
 Vibration     4          0.856              1.248              0.656

 Normal termination of Gaussian 09 at Thu Sep  8 15:05:05 2022.
