 Gaussian 09, Revision E.01,
 Gaussian 09:  ES64L-G09RevE.01 30-Nov-2015

 ----------------------------
 #P OPT Freq B3LYP/6-31G(d,p)
 ----------------------------

 ---------
 Frag_1044
 ---------
 Symbolic Z-matrix:
 Charge =  0 Multiplicity = 1

 SCF Done:  E(RB3LYP) =  -420.029940782     A.U. after   13 cycles
 SCF Done:  E(RB3LYP) =  -420.029991504     A.U. after   10 cycles
 SCF Done:  E(RB3LYP) =  -420.029966932     A.U. after   10 cycles
 SCF Done:  E(RB3LYP) =  -420.030021753     A.U. after   10 cycles
 SCF Done:  E(RB3LYP) =  -420.030022513     A.U. after    7 cycles
 SCF Done:  E(RB3LYP) =  -420.030022704     A.U. after    7 cycles
 SCF Done:  E(RB3LYP) =  -420.030022747     A.U. after    6 cycles
 Optimization completed.
    -- Stationary point found.
 Normal termination of Gaussian 09 at Thu Sep  8 14:47:26 2022.

 ----------------------------------------------------------------------
 #P Geom=AllCheck Guess=TCheck SCRF=Check GenChk RB3LYP/6-31G(d,p) Freq
 ----------------------------------------------------------------------

 Structure from the checkpoint file:  "B3LYP6-31Gdp.Frag_1044.chk"
 ---------
 Frag_1044
 ---------
 Charge =  0 Multiplicity = 1

                         Standard orientation:
 ---------------------------------------------------------------------
 Center     Atomic      Atomic             Coordinates (Angstroms)
 Number     Number       Type             X           Y           Z
 ---------------------------------------------------------------------
      1          6           0        0.814690   -0.019039    1.480356
      2          6           0        0.603630   -0.002336   -0.023972
      3          8           0        1.136865   -1.148471   -0.663415
      4          8           0        1.214844    1.182968   -0.521650
      5          6           0       -0.890603    0.000372   -0.426328
      6          8           0       -1.539435    1.126319    0.087425
      7          8           0       -1.569466   -1.110649    0.087558
      8          1           0        0.340970   -0.904190    1.906997
      9          1           0        1.885560   -0.021223    1.708212
     10          1           0        0.364792    0.864907    1.935008
     11          1           0        2.029330   -1.295945   -0.320384
     12          1           0        1.221977    1.101441   -1.487682
     13          1           0       -0.925541   -0.005155   -1.536948
     14          1           0       -0.939822    1.870617   -0.072177
     15          1           0       -1.086025   -1.885766   -0.232708
 ---------------------------------------------------------------------

 SCF Done:  E(RB3LYP) =  -420.030022747     A.U. after    1 cycles

 The electronic state is 1-A.
 Alpha  occ. eigenvalues --  -19.17258 -19.16766 -19.14861 -19.14778 -10.29453
 Alpha  occ. eigenvalues --  -10.28333 -10.18247  -1.08592  -1.05219  -1.01378
 Alpha  occ. eigenvalues --   -0.99282  -0.75757  -0.68362  -0.61097  -0.56431
 Alpha  occ. eigenvalues --   -0.52935  -0.50032  -0.47046  -0.45307  -0.43160
 Alpha  occ. eigenvalues --   -0.39522  -0.39184  -0.38641  -0.36110  -0.33858
 Alpha  occ. eigenvalues --   -0.32357  -0.30302  -0.29498  -0.25238
 Alpha virt. eigenvalues --    0.05603   0.07447   0.10150   0.12164   0.13449
 Alpha virt. eigenvalues --    0.14662   0.16656   0.19161   0.19818   0.22400
 Alpha virt. eigenvalues --    0.23930   0.27181   0.28115   0.31127   0.53008

 Mulliken charges:
               1
     1  C   -0.310198
     2  C    0.380498
     3  O   -0.553162
     4  O   -0.542509
     5  C    0.421105
     6  O   -0.527753
     7  O   -0.526296
     8  H    0.127914
     9  H    0.099835
    10  H    0.129393
    11  H    0.313540
    12  H    0.307662
    13  H    0.052326
    14  H    0.311820
    15  H    0.315825
 Sum of Mulliken charges =  -0.00000

 Dipole moment (field-independent basis, Debye):
    X=              3.2651    Y=             -0.5362    Z=             -1.1206  Tot=              3.4935
 Quadrupole moment (field-independent basis, Debye-Ang):
   XX=            -45.7240   YY=            -38.4093   ZZ=            -39.0029
   XY=             -2.1407   XZ=              1.4242   YZ=             -1.8471

  Exact polarizability:  46.098  -0.784  47.781   0.175  -0.261  45.163
 Approx polarizability:  62.379  -0.288  68.761  -2.305   0.896  60.450

                      1                      2                      3
                      A                      A                      A
 Frequencies --     92.6018               193.6247               235.9545
 Red. masses --      4.9627                 1.1061                 3.8199
 Frc consts  --      0.0251                 0.0244                 0.1253
 IR Inten    --      5.7346                 0.0689                 4.4828

                      4                      5                      6
                      A                      A                      A
 Frequencies --    259.4664               320.5469               339.4048
 Red. masses --      3.2440                 1.2052                 2.0855
 Frc consts  --      0.1287                 0.0730                 0.1415
 IR Inten    --      5.1416                17.1180                42.0980

                      7                      8                      9
                      A                      A                      A
 Frequencies --    345.8570               380.8052               419.1947
 Red. masses --      1.0696                 2.8111                 1.8645
 Frc consts  --      0.0754                 0.2402                 0.1930
 IR Inten    --     48.4095                12.4595                60.7779

                     10                     11                     12
                      A                      A                      A
 Frequencies --    472.8330               500.8554               535.6239
 Red. masses --      1.3955                 2.3266                 4.9648
 Frc consts  --      0.1838                 0.3439                 0.8392
 IR Inten    --    187.8744                78.5028                 7.3291

                     13                     14                     15
                      A                      A                      A
 Frequencies --    565.5051               650.2611               793.5936
 Red. masses --      2.7283                 4.4627                 3.8672
 Frc consts  --      0.5141                 1.1118                 1.4350
 IR Inten    --     57.8645                33.3055                10.0745

                     16                     17                     18
                      A                      A                      A
 Frequencies --    952.6985               971.5437              1065.4369
 Red. masses --      2.0568                 2.2284                 2.6479
 Frc consts  --      1.0999                 1.2393                 1.7709
 IR Inten    --     51.0898                51.1827                30.4141

                     19                     20                     21
                      A                      A                      A
 Frequencies --   1081.9320              1112.6462              1136.7417
 Red. masses --      1.7192                 2.8792                 1.8641
 Frc consts  --      1.1857                 2.1001                 1.4192
 IR Inten    --     73.4220               304.0567               108.7868

                     22                     23                     24
                      A                      A                      A
 Frequencies --   1194.7066              1273.6058              1301.4470
 Red. masses --      3.0120                 1.1976                 1.2821
 Frc consts  --      2.5329                 1.1445                 1.2794
 IR Inten    --     68.9384                13.3352                47.2345

                     25                     26                     27
                      A                      A                      A
 Frequencies --   1351.2549              1398.6489              1431.1087
 Red. masses --      1.4793                 1.2604                 1.9046
 Frc consts  --      1.5914                 1.4527                 2.2982
 IR Inten    --     57.3796                22.5406               101.6654

                     28                     29                     30
                      A                      A                      A
 Frequencies --   1445.2849              1460.4104              1487.9627
 Red. masses --      1.5393                 1.5882                 1.0615
 Frc consts  --      1.8944                 1.9958                 1.3848
 IR Inten    --      5.6382                54.6002                 1.0133

                     31                     32                     33
                      A                      A                      A
 Frequencies --   1513.5471              2885.6005              3062.9751
 Red. masses --      1.0965                 1.0816                 1.0402
 Frc consts  --      1.4800                 5.3063                 5.7501
 IR Inten    --     17.2548               124.3773                13.6381

                     34                     35                     36
                      A                      A                      A
 Frequencies --   3144.6975              3169.7479              3776.1059
 Red. masses --      1.0974                 1.1032                 1.0653
 Frc consts  --      6.3943                 6.5308                 8.9498
 IR Inten    --     12.8731                 7.6785                20.6182

                     37                     38                     39
                      A                      A                      A
 Frequencies --   3789.4652              3802.7141              3808.7074
 Red. masses --      1.0650                 1.0660                 1.0651
 Frc consts  --      9.0109                 9.0823                 9.1032
 IR Inten    --     33.7105                21.2752                38.5150

 - Thermochemistry -
 -------------------
 Temperature   298.150 Kelvin.  Pressure   1.00000 Atm.
 Atom     1 has atomic number  6 and mass  12.00000

 Molecular mass:   108.04226 amu.
 Principal axes and moments of inertia in atomic units:
                           1         2         3
     Eigenvalues --   536.33673 753.59318 896.62125
           X            0.99914  -0.01513   0.03857
           Y            0.01613   0.99954  -0.02580
           Z           -0.03817   0.02640   0.99892
 This molecule is an asymmetric top.
 Rotational symmetry number  1.
 Warning -- assumption of classical behavior for rotation
           may cause significant error
 Rotational temperatures (Kelvin)      0.16149     0.11493     0.09660
 Rotational constants (GHZ):           3.36494     2.39485     2.01282
 Zero-point vibrational energy     321347.6 (Joules/Mol)
                                   76.80391 (Kcal/Mol)
 Warning -- explicit consideration of  13 degrees of freedom as
           vibrations may cause significant error
 Vibrational temperatures:    133.23   278.58   339.49   373.31   461.19
          (Kelvin)            488.33   497.61   547.89   603.13   680.30
                              720.62   770.64   813.63   935.58  1141.80
                             1370.72  1397.83  1532.92  1556.66  1600.85
                             1635.52  1718.91  1832.43  1872.49  1944.15
                             2012.34  2059.04  2079.44  2101.20  2140.84
                             2177.65  4151.73  4406.93  4524.51  4560.55
                             5432.97  5452.19  5471.25  5479.87

 Zero-point correction=                           0.122395 (Hartree/Particle)
 Thermal correction to Energy=                    0.130614
 Thermal correction to Enthalpy=                  0.131558
 Thermal correction to Gibbs Free Energy=         0.090696
 Sum of electronic and zero-point Energies=           -419.907628
 Sum of electronic and thermal Energies=              -419.899408
 Sum of electronic and thermal Enthalpies=            -419.898464
 Sum of electronic and thermal Free Energies=         -419.939327

                     E (Thermal)             CV                S
                      KCal/Mol        Cal/Mol-Kelvin    Cal/Mol-Kelvin
 Total                   81.962             30.614             86.002
 Electronic               0.000              0.000              0.000
 Translational            0.889              2.981             39.949
 Rotational               0.889              2.981             27.385
 Vibrational             80.184             24.652             18.668
 Vibration     1          0.602              1.954              3.604
 Vibration     2          0.635              1.849              2.193
 Vibration     3          0.655              1.786              1.833
 Vibration     4          0.668              1.747              1.665
 Vibration     5          0.706              1.634              1.307
 Vibration     6          0.719              1.597              1.215
 Vibration     7          0.724              1.584              1.185
 Vibration     8          0.751              1.511              1.036
 Vibration     9          0.782              1.429              0.895
 Vibration    10          0.830              1.310              0.730
 Vibration    11          0.856              1.248              0.656
 Vibration    12          0.891              1.171              0.575
 Vibration    13          0.921              1.106              0.513

 Optimization completed.
    -- Stationary point found.
 Normal termination of Gaussian 09 at Thu Sep  8 14:47:40 2022.
