 Gaussian 09, Revision E.01,
 Gaussian 09:  ES64L-G09RevE.01 30-Nov-2015

 ----------------------------
 #P OPT Freq B3LYP/6-31G(d,p)
 ----------------------------

 ---------
 Frag_1004
 ---------
 Symbolic Z-matrix:
 Charge =  0 Multiplicity = 1

 SCF Done:  E(RB3LYP) =  -323.725659504     A.U. after   14 cycles
 SCF Done:  E(RB3LYP) =  -323.725714069     A.U. after   10 cycles
 SCF Done:  E(RB3LYP) =  -323.725722983     A.U. after   10 cycles
 SCF Done:  E(RB3LYP) =  -323.725728878     A.U. after    9 cycles
 SCF Done:  E(RB3LYP) =  -323.725732915     A.U. after    9 cycles
 SCF Done:  E(RB3LYP) =  -323.725736745     A.U. after    8 cycles
 SCF Done:  E(RB3LYP) =  -323.725736594     A.U. after    8 cycles
 SCF Done:  E(RB3LYP) =  -323.725736264     A.U. after    8 cycles
 SCF Done:  E(RB3LYP) =  -323.725735865     A.U. after    7 cycles
 Optimization completed.
    -- Stationary point found.
 Normal termination of Gaussian 09 at Thu Sep  8 14:52:08 2022.

 ----------------------------------------------------------------------
 #P Geom=AllCheck Guess=TCheck SCRF=Check GenChk RB3LYP/6-31G(d,p) Freq
 ----------------------------------------------------------------------

 Structure from the checkpoint file:  "B3LYP6-31Gdp.Frag_1004.chk"
 ---------
 Frag_1004
 ---------
 Charge =  0 Multiplicity = 1

                         Standard orientation:
 ---------------------------------------------------------------------
 Center     Atomic      Atomic             Coordinates (Angstroms)
 Number     Number       Type             X           Y           Z
 ---------------------------------------------------------------------
      1          6           0        1.412518    1.152424    0.062242
      2          6           0        0.645620   -0.061235   -0.471071
      3          8           0        1.160718   -1.282257    0.046622
      4          6           0       -0.825686    0.001314   -0.084028
      5          7           0       -1.834538    0.090808   -0.852538
      6          8           0       -0.995060   -0.008228    1.256532
      7          1           0        1.361469    1.175286    1.152941
      8          1           0        2.463930    1.098467   -0.243633
      9          1           0        0.998387    2.085922   -0.331522
     10          1           0        0.684026   -0.060918   -1.572265
     11          1           0        2.119213   -1.269246   -0.075502
     12          1           0       -1.550129    0.071984   -1.831454
     13          1           0       -1.955114    0.031715    1.401114
 ---------------------------------------------------------------------

 SCF Done:  E(RB3LYP) =  -323.725735865     A.U. after    1 cycles

 The electronic state is 1-A.
 Alpha  occ. eigenvalues --  -19.17990 -19.15250 -14.30711 -10.28025 -10.25536
 Alpha  occ. eigenvalues --  -10.19015  -1.07369  -1.02606  -0.88417  -0.76641
 Alpha  occ. eigenvalues --   -0.66621  -0.59385  -0.52453  -0.50903  -0.46947
 Alpha  occ. eigenvalues --   -0.45025  -0.41240  -0.39279  -0.38474  -0.37729
 Alpha  occ. eigenvalues --   -0.34556  -0.27935  -0.27002  -0.26882
 Alpha virt. eigenvalues --    0.01848   0.06364   0.09128   0.11192   0.14022
 Alpha virt. eigenvalues --    0.15304   0.16841   0.18262   0.20832   0.22733
 Alpha virt. eigenvalues --    0.25566   0.31768   0.42868   0.51842   0.53480

 Mulliken charges:
               1
     1  C   -0.341219
     2  C    0.134494
     3  O   -0.527261
     4  C    0.506598
     5  N   -0.577468
     6  O   -0.492449
     7  H    0.144502
     8  H    0.097897
     9  H    0.115733
    10  H    0.078384
    11  H    0.307180
    12  H    0.228396
    13  H    0.325213
 Sum of Mulliken charges =  -0.00000

 Dipole moment (field-independent basis, Debye):
    X=              2.1648    Y=              1.1025    Z=             -0.8978  Tot=              2.5900
 Quadrupole moment (field-independent basis, Debye-Ang):
   XX=            -33.0767   YY=            -38.0102   ZZ=            -33.6355
   XY=             -0.2744   XZ=             -3.8076   YZ=              0.6653

  Exact polarizability:  52.912  -0.742  35.079   3.020  -0.907  46.927
 Approx polarizability:  71.421  -2.861  47.873   9.016  -3.147  71.843

                      1                      2                      3
                      A                      A                      A
 Frequencies --     53.1231               212.7052               235.8081
 Red. masses --      4.8807                 1.2631                 1.5854
 Frc consts  --      0.0081                 0.0337                 0.0519
 IR Inten    --      0.4546                94.2652                16.4833

                      4                      5                      6
                      A                      A                      A
 Frequencies --    254.0210               287.7806               370.8880
 Red. masses --      1.5913                 2.9854                 3.4536
 Frc consts  --      0.0605                 0.1457                 0.2799
 IR Inten    --      9.3045                 2.0849                 8.5080

                      7                      8                      9
                      A                      A                      A
 Frequencies --    516.8620               574.8949               610.3259
 Red. masses --      3.1296                 1.1815                 3.1354
 Frc consts  --      0.4926                 0.2301                 0.6881
 IR Inten    --     12.3575               102.3896                37.7593

                     10                     11                     12
                      A                      A                      A
 Frequencies --    735.5347               808.0694               850.0335
 Red. masses --      5.1226                 2.6240                 1.1404
 Frc consts  --      1.6329                 1.0095                 0.4855
 IR Inten    --     53.4699                 6.0487                31.8225

                     13                     14                     15
                      A                      A                      A
 Frequencies --    925.1153              1035.9130              1096.8148
 Red. masses --      2.2448                 1.7105                 2.5548
 Frc consts  --      1.1319                 1.0815                 1.8108
 IR Inten    --     23.7604                32.7178                79.8865

                     16                     17                     18
                      A                      A                      A
 Frequencies --   1123.3634              1141.3348              1236.3933
 Red. masses --      1.5428                 2.5362                 1.2246
 Frc consts  --      1.1471                 1.9465                 1.1029
 IR Inten    --    122.2257               110.4947                65.2960

                     19                     20                     21
                      A                      A                      A
 Frequencies --   1275.6688              1366.7785              1411.4908
 Red. masses --      1.2364                 1.2416                 1.3124
 Frc consts  --      1.1855                 1.3666                 1.5405
 IR Inten    --     55.5661                16.6600                 9.0532

                     22                     23                     24
                      A                      A                      A
 Frequencies --   1420.9165              1459.8984              1502.2821
 Red. masses --      1.4505                 2.2376                 1.0430
 Frc consts  --      1.7254                 2.8098                 1.3869
 IR Inten    --     38.4114                20.8282                 3.6875

                     25                     26                     27
                      A                      A                      A
 Frequencies --   1518.4708              1756.4742              2987.3568
 Red. masses --      1.1601                 8.0072                 1.0846
 Frc consts  --      1.5759                14.5551                 5.7028
 IR Inten    --     12.7538               186.2666                55.7303

                     28                     29                     30
                      A                      A                      A
 Frequencies --   3043.4187              3112.7775              3151.1534
 Red. masses --      1.0388                 1.0996                 1.1021
 Frc consts  --      5.6690                 6.2773                 6.4476
 IR Inten    --     18.7159                25.1636                11.9211

                     31                     32                     33
                      A                      A                      A
 Frequencies --   3515.4299              3754.2614              3811.8850
 Red. masses --      1.0755                 1.0640                 1.0664
 Frc consts  --      7.8309                 8.8358                 9.1294
 IR Inten    --      0.5581                44.0641                13.0257

 - Thermochemistry -
 -------------------
 Temperature   298.150 Kelvin.  Pressure   1.00000 Atm.
 Atom     1 has atomic number  6 and mass  12.00000

 Molecular mass:    89.04768 amu.
 Principal axes and moments of inertia in atomic units:
                           1         2         3
     Eigenvalues --   351.29498 676.37287 688.10536
           X            0.99920   0.03998  -0.00109
           Y           -0.03950   0.99079   0.12955
           Z            0.00625  -0.12940   0.99157
 This molecule is an asymmetric top.
 Rotational symmetry number  1.
 Rotational temperatures (Kelvin)      0.24656     0.12806     0.12587
 Rotational constants (GHZ):           5.13740     2.66826     2.62277
 Zero-point vibrational energy     282063.0 (Joules/Mol)
                                   67.41466 (Kcal/Mol)
 Warning -- explicit consideration of   9 degrees of freedom as
           vibrations may cause significant error
 Vibrational temperatures:     76.43   306.03   339.27   365.48   414.05
          (Kelvin)            533.62   743.65   827.14   878.12  1058.27
                             1162.63  1223.01  1331.03  1490.45  1578.07
                             1616.27  1642.12  1778.89  1835.40  1966.49
                             2030.82  2044.38  2100.47  2161.45  2184.74
                             2527.17  4298.13  4378.80  4478.59  4533.80
                             5057.91  5401.54  5484.45

 Zero-point correction=                           0.107432 (Hartree/Particle)
 Thermal correction to Energy=                    0.114394
 Thermal correction to Enthalpy=                  0.115338
 Thermal correction to Gibbs Free Energy=         0.076611
 Sum of electronic and zero-point Energies=           -323.618304
 Sum of electronic and thermal Energies=              -323.611342
 Sum of electronic and thermal Enthalpies=            -323.610398
 Sum of electronic and thermal Free Energies=         -323.649125

                     E (Thermal)             CV                S
                      KCal/Mol        Cal/Mol-Kelvin    Cal/Mol-Kelvin
 Total                   71.783             24.329             81.507
 Electronic               0.000              0.000              0.000
 Translational            0.889              2.981             39.372
 Rotational               0.889              2.981             26.594
 Vibrational             70.006             18.367             15.540
 Vibration     1          0.596              1.976              4.698
 Vibration     2          0.644              1.822              2.020
 Vibration     3          0.655              1.786              1.834
 Vibration     4          0.665              1.756              1.703
 Vibration     5          0.685              1.696              1.487
 Vibration     6          0.743              1.532              1.076
 Vibration     7          0.872              1.213              0.617
 Vibration     8          0.931              1.086              0.495
 Vibration     9          0.969              1.010              0.432

 Optimization completed.
    -- Stationary point found.
 Normal termination of Gaussian 09 at Thu Sep  8 14:52:18 2022.
