 Gaussian 09, Revision E.01,
 Gaussian 09:  ES64L-G09RevE.01 30-Nov-2015

 ----------------------------
 #P OPT Freq B3LYP/6-31G(d,p)
 ----------------------------

 ---------
 Frag_9871
 ---------
 Symbolic Z-matrix:
 Charge =  0 Multiplicity = 1

 SCF Done:  E(RB3LYP) =  -172.003293760     A.U. after   13 cycles
 SCF Done:  E(RB3LYP) =  -172.013330773     A.U. after   12 cycles
 SCF Done:  E(RB3LYP) =  -172.012060084     A.U. after   12 cycles
 SCF Done:  E(RB3LYP) =  -172.013552160     A.U. after   10 cycles
 SCF Done:  E(RB3LYP) =  -172.013614378     A.U. after    9 cycles
 SCF Done:  E(RB3LYP) =  -172.013623479     A.U. after    9 cycles
 SCF Done:  E(RB3LYP) =  -172.013624495     A.U. after    8 cycles
 Optimization completed.
    -- Stationary point found.
 Normal termination of Gaussian 09 at Thu Sep  8 20:24:21 2022.

 ----------------------------------------------------------------------
 #P Geom=AllCheck Guess=TCheck SCRF=Check GenChk RB3LYP/6-31G(d,p) Freq
 ----------------------------------------------------------------------

 Structure from the checkpoint file:  "B3LYP6-31Gdp.Frag_987.chk"
 ---------
 Frag_9871
 ---------
 Charge =  0 Multiplicity = 1

                         Standard orientation:
 ---------------------------------------------------------------------
 Center     Atomic      Atomic             Coordinates (Angstroms)
 Number     Number       Type             X           Y           Z
 ---------------------------------------------------------------------
      1          6           0       -2.024056   -0.000703   -0.009567
      2          6           0       -0.563650   -0.003150    0.006400
      3          6           0        0.646830   -0.001200    0.008313
      4          7           0        2.006513    0.000641    0.087330
      5          1           0       -2.446962   -0.404066    0.918428
      6          1           0       -2.407971    1.019530   -0.125451
      7          1           0       -2.424963   -0.592657   -0.841430
      8          1           0        2.438692    0.834246   -0.296281
      9          1           0        2.440871   -0.831224   -0.297449
 ---------------------------------------------------------------------

 SCF Done:  E(RB3LYP) =  -172.013624495     A.U. after    1 cycles

 The electronic state is 1-A.
 Alpha  occ. eigenvalues --  -14.35352 -10.19349 -10.19055 -10.15995  -0.91004
 Alpha  occ. eigenvalues --   -0.75375  -0.67350  -0.53429  -0.51105  -0.44028
 Alpha  occ. eigenvalues --   -0.41298  -0.41256  -0.33749  -0.24302  -0.20093
 Alpha virt. eigenvalues --    0.06981   0.07280   0.10493   0.12184   0.15458
 Alpha virt. eigenvalues --    0.20278   0.20328   0.22618   0.29059   0.40288
 Alpha virt. eigenvalues --    0.54358   0.54699   0.54843   0.62208   0.63385

 Mulliken charges:
               1
     1  C   -0.408070
     2  C    0.256830
     3  C   -0.027020
     4  N   -0.749681
     5  H    0.129256
     6  H    0.131705
     7  H    0.127438
     8  H    0.269744
     9  H    0.269798
 Sum of Mulliken charges =  -0.00000

 Dipole moment (field-independent basis, Debye):
    X=              0.7406    Y=              0.0349    Z=             -1.2584  Tot=              1.4606
 Quadrupole moment (field-independent basis, Debye-Ang):
   XX=            -16.5285   YY=            -22.7189   ZZ=            -25.6741
   XY=             -0.0713   XZ=             -3.2303   YZ=             -0.0041

  Exact polarizability:  62.921   0.143  24.987  -0.791  -0.001  21.799
 Approx polarizability:  95.903   0.220  32.925  -0.137   0.004  28.447

                      1                      2                      3
                      A                      A                      A
 Frequencies --     10.9704               208.0478               222.4481
 Red. masses --      1.0277                 3.3061                 2.9755
 Frc consts  --      0.0001                 0.0843                 0.0868
 IR Inten    --     24.4773                14.5621                10.6302

                      4                      5                      6
                      A                      A                      A
 Frequencies --    392.1433               419.1262               660.5365
 Red. masses --      4.2723                 5.2852                 1.4535
 Frc consts  --      0.3871                 0.5470                 0.3736
 IR Inten    --      0.1622                10.9216               262.4376

                      7                      8                      9
                      A                      A                      A
 Frequencies --    768.3755              1057.3921              1062.4547
 Red. masses --      3.5928                 1.4034                 1.3448
 Frc consts  --      1.2498                 0.9245                 0.8944
 IR Inten    --      3.5040                 2.9637                 1.6347

                     10                     11                     12
                      A                      A                      A
 Frequencies --   1203.2649              1276.0499              1432.2798
 Red. masses --      1.2478                 4.4906                 1.2928
 Frc consts  --      1.0644                 4.3081                 1.5625
 IR Inten    --      0.1337                23.8739                 3.7280

                     13                     14                     15
                      A                      A                      A
 Frequencies --   1489.9698              1500.2946              1646.9623
 Red. masses --      1.0401                 1.0433                 1.1066
 Frc consts  --      1.3604                 1.3837                 1.7685
 IR Inten    --      4.7051                 5.1415                20.8227

                     16                     17                     18
                      A                      A                      A
 Frequencies --   2389.3516              3024.2041              3079.1807
 Red. masses --     11.5475                 1.0352                 1.1022
 Frc consts  --     38.8416                 5.5782                 6.1571
 IR Inten    --     71.2735                49.1072                22.5191

                     19                     20                     21
                      A                      A                      A
 Frequencies --   3089.3646              3520.9311              3609.3381
 Red. masses --      1.1002                 1.0464                 1.0973
 Frc consts  --      6.1868                 7.6427                 8.4224
 IR Inten    --     17.3992                 6.4656                15.2279

 - Thermochemistry -
 -------------------
 Temperature   298.150 Kelvin.  Pressure   1.00000 Atm.
 Atom     1 has atomic number  6 and mass  12.00000

 Molecular mass:    55.04220 amu.
 Principal axes and moments of inertia in atomic units:
                           1         2         3
     Eigenvalues --    17.17972 521.12784 525.11737
           X            0.99996  -0.00018  -0.00925
           Y            0.00017   1.00000  -0.00029
           Z            0.00925   0.00028   0.99996
 This molecule is an asymmetric top.
 Rotational symmetry number  1.
 Rotational temperatures (Kelvin)      5.04163     0.16620     0.16494
 Rotational constants (GHZ):         105.05067     3.46314     3.43683
 Zero-point vibrational energy     191777.4 (Joules/Mol)
                                   45.83591 (Kcal/Mol)
 Warning -- explicit consideration of   5 degrees of freedom as
           vibrations may cause significant error
 Vibrational temperatures:     15.78   299.33   320.05   564.21   603.03
          (Kelvin)            950.36  1105.52  1521.35  1528.63  1731.23
                             1835.95  2060.73  2143.73  2158.59  2369.61
                             3437.74  4351.15  4430.25  4444.90  5065.83
                             5193.03

 Zero-point correction=                           0.073044 (Hartree/Particle)
 Thermal correction to Energy=                    0.078803
 Thermal correction to Enthalpy=                  0.079747
 Thermal correction to Gibbs Free Energy=         0.043839
 Sum of electronic and zero-point Energies=           -171.940580
 Sum of electronic and thermal Energies=              -171.934821
 Sum of electronic and thermal Enthalpies=            -171.933877
 Sum of electronic and thermal Free Energies=         -171.969785

                     E (Thermal)             CV                S
                      KCal/Mol        Cal/Mol-Kelvin    Cal/Mol-Kelvin
 Total                   49.450             17.400             75.575
 Electronic               0.000              0.000              0.000
 Translational            0.889              2.981             37.938
 Rotational               0.889              2.981             23.068
 Vibrational             47.672             11.438             14.569
 Vibration     1          0.593              1.987              7.827
 Vibration     2          0.641              1.828              2.061
 Vibration     3          0.648              1.807              1.939
 Vibration     4          0.760              1.487              0.992
 Vibration     5          0.782              1.429              0.895

 Normal termination of Gaussian 09 at Thu Sep  8 20:24:27 2022.
