 Gaussian 09, Revision E.01,
 Gaussian 09:  ES64L-G09RevE.01 30-Nov-2015

 ----------------------------
 #P OPT Freq B3LYP/6-31G(d,p)
 ----------------------------

 ---------
 Frag_1027
 ---------
 Symbolic Z-matrix:
 Charge =  0 Multiplicity = 1

 SCF Done:  E(RB3LYP) =  -193.151667414     A.U. after   13 cycles
 SCF Done:  E(RB3LYP) =  -193.151746476     A.U. after    9 cycles
 SCF Done:  E(RB3LYP) =  -193.151654435     A.U. after   11 cycles
 SCF Done:  E(RB3LYP) =  -193.151748429     A.U. after   11 cycles
 SCF Done:  E(RB3LYP) =  -193.151754273     A.U. after    8 cycles
 SCF Done:  E(RB3LYP) =  -193.151754870     A.U. after    8 cycles
 SCF Done:  E(RB3LYP) =  -193.151755517     A.U. after    9 cycles
 SCF Done:  E(RB3LYP) =  -193.151755783     A.U. after    8 cycles
 Optimization completed.
    -- Stationary point found.
 Normal termination of Gaussian 09 at Thu Sep  8 14:52:44 2022.

 ----------------------------------------------------------------------
 #P Geom=AllCheck Guess=TCheck SCRF=Check GenChk RB3LYP/6-31G(d,p) Freq
 ----------------------------------------------------------------------

 Structure from the checkpoint file:  "B3LYP6-31Gdp.Frag_1027.chk"
 ---------
 Frag_1027
 ---------
 Charge =  0 Multiplicity = 1

                         Standard orientation:
 ---------------------------------------------------------------------
 Center     Atomic      Atomic             Coordinates (Angstroms)
 Number     Number       Type             X           Y           Z
 ---------------------------------------------------------------------
      1          6           0       -1.701711   -0.272911   -0.179896
      2          6           0       -0.471164    0.583173    0.157957
      3          6           0        0.784606   -0.249304    0.286102
      4          8           0        1.827333   -0.026356   -0.287334
      5          1           0       -1.847200   -1.069128    0.558233
      6          1           0       -2.607326    0.339403   -0.191275
      7          1           0       -1.599761   -0.741700   -1.163380
      8          1           0       -0.294134    1.361042   -0.590300
      9          1           0       -0.630266    1.079183    1.126986
     10          1           0        0.689641   -1.123694    0.973429
 ---------------------------------------------------------------------

 SCF Done:  E(RB3LYP) =  -193.151755783     A.U. after    1 cycles

 The electronic state is 1-A.
 Alpha  occ. eigenvalues --  -19.14926 -10.27726 -10.20086 -10.19553  -1.04456
 Alpha  occ. eigenvalues --   -0.78974  -0.66218  -0.57544  -0.47951  -0.45024
 Alpha  occ. eigenvalues --   -0.44029  -0.40548  -0.38449  -0.36748  -0.35268
 Alpha  occ. eigenvalues --   -0.25111
 Alpha virt. eigenvalues --   -0.02304   0.09899   0.12497   0.13706   0.15635
 Alpha virt. eigenvalues --    0.16106   0.17250   0.21101   0.27386   0.29748
 Alpha virt. eigenvalues --    0.50262   0.51805   0.54069   0.55797   0.60036

 Mulliken charges:
               1
     1  C   -0.334568
     2  C   -0.245089
     3  C    0.303425
     4  O   -0.390109
     5  H    0.113347
     6  H    0.119955
     7  H    0.123769
     8  H    0.127808
     9  H    0.123493
    10  H    0.057968
 Sum of Mulliken charges =   0.00000

 Dipole moment (field-independent basis, Debye):
    X=             -2.5720    Y=             -0.0808    Z=              0.9635  Tot=              2.7477
 Quadrupole moment (field-independent basis, Debye-Ang):
   XX=            -29.6777   YY=            -24.1927   ZZ=            -24.1750
   XY=             -0.3144   XZ=              1.4236   YZ=              0.0571

  Exact polarizability:  41.188  -0.159  31.977  -2.526  -2.772  30.745
 Approx polarizability:  56.822   1.147  42.876  -8.164  -4.307  44.405

                      1                      2                      3
                      A                      A                      A
 Frequencies --     77.3437               211.5441               325.3159
 Red. masses --      3.0027                 1.0989                 2.2285
 Frc consts  --      0.0106                 0.0290                 0.1390
 IR Inten    --      4.7655                 0.8305                 2.5915

                      4                      5                      6
                      A                      A                      A
 Frequencies --    506.2490               754.9238               877.1581
 Red. masses --      2.8889                 1.4009                 1.4379
 Frc consts  --      0.4362                 0.4704                 0.6518
 IR Inten    --     10.8544                 2.3780                11.8966

                      7                      8                      9
                      A                      A                      A
 Frequencies --    922.2208              1016.6179              1136.3140
 Red. masses --      1.3189                 2.7879                 1.9337
 Frc consts  --      0.6609                 1.6976                 1.4711
 IR Inten    --     15.8201                 4.4566                 0.8514

                     10                     11                     12
                      A                      A                      A
 Frequencies --   1158.4683              1277.8601              1331.7740
 Red. masses --      1.9473                 1.1915                 1.4960
 Frc consts  --      1.5398                 1.1463                 1.5633
 IR Inten    --     11.8313                 3.1473                 0.1755

                     13                     14                     15
                      A                      A                      A
 Frequencies --   1425.0219              1437.0621              1477.9355
 Red. masses --      1.2168                 1.2058                 1.0816
 Frc consts  --      1.4559                 1.4671                 1.3919
 IR Inten    --      2.8112                 3.0392                 3.5712

                     16                     17                     18
                      A                      A                      A
 Frequencies --   1514.3894              1519.8841              1836.6664
 Red. masses --      1.0455                 1.0484                 9.8921
 Frc consts  --      1.4127                 1.4269                19.6607
 IR Inten    --      6.6285                 6.5106               167.3955

                     19                     20                     21
                      A                      A                      A
 Frequencies --   2866.2303              3024.0817              3049.8035
 Red. masses --      1.0827                 1.0674                 1.0361
 Frc consts  --      5.2406                 5.7513                 5.6778
 IR Inten    --    123.4684                11.8792                23.0244

                     22                     23                     24
                      A                      A                      A
 Frequencies --   3106.5887              3124.6373              3131.0423
 Red. masses --      1.0970                 1.1003                 1.1031
 Frc consts  --      6.2377                 6.3293                 6.3715
 IR Inten    --      1.9171                37.7553                21.1418

 - Thermochemistry -
 -------------------
 Temperature   298.150 Kelvin.  Pressure   1.00000 Atm.
 Atom     1 has atomic number  6 and mass  12.00000

 Molecular mass:    58.04186 amu.
 Principal axes and moments of inertia in atomic units:
                           1         2         3
     Eigenvalues --    68.31521 423.58189 440.35203
           X            0.99990   0.00574   0.01270
           Y           -0.00442   0.99487  -0.10107
           Z           -0.01321   0.10100   0.99480
 This molecule is an asymmetric top.
 Rotational symmetry number  1.
 Rotational temperatures (Kelvin)      1.26786     0.20448     0.19669
 Rotational constants (GHZ):          26.41785     4.26067     4.09841
 Zero-point vibrational energy     221961.9 (Joules/Mol)
                                   53.05017 (Kcal/Mol)
 Warning -- explicit consideration of   4 degrees of freedom as
           vibrations may cause significant error
 Vibrational temperatures:    111.28   304.36   468.06   728.38  1086.17
          (Kelvin)           1262.03  1326.87  1462.68  1634.90  1666.78
                             1838.55  1916.12  2050.29  2067.61  2126.42
                             2178.87  2186.77  2642.55  4123.86  4350.97
                             4387.98  4469.68  4495.65  4504.87

 Zero-point correction=                           0.084541 (Hartree/Particle)
 Thermal correction to Energy=                    0.089632
 Thermal correction to Enthalpy=                  0.090576
 Thermal correction to Gibbs Free Energy=         0.056885
 Sum of electronic and zero-point Energies=           -193.067215
 Sum of electronic and thermal Energies=              -193.062124
 Sum of electronic and thermal Enthalpies=            -193.061180
 Sum of electronic and thermal Free Energies=         -193.094871

                     E (Thermal)             CV                S
                      KCal/Mol        Cal/Mol-Kelvin    Cal/Mol-Kelvin
 Total                   56.245             15.912             70.910
 Electronic               0.000              0.000              0.000
 Translational            0.889              2.981             38.096
 Rotational               0.889              2.981             24.059
 Vibrational             54.467              9.950              8.755
 Vibration     1          0.599              1.964              3.957
 Vibration     2          0.643              1.823              2.030
 Vibration     3          0.709              1.625              1.283
 Vibration     4          0.861              1.236              0.643

 Optimization completed.
    -- Stationary point found.
 Normal termination of Gaussian 09 at Thu Sep  8 14:52:51 2022.
