 Gaussian 09, Revision E.01,
 Gaussian 09:  ES64L-G09RevE.01 30-Nov-2015

 --------------------------------
 #P OPT=calcfc Freq B3LYP/6-31G**
 --------------------------------

 --------
 Frag_363
 --------
 Symbolic Z-matrix:
 Charge =  0 Multiplicity = 1

 SCF Done:  E(RB3LYP) =  -319.885598802     A.U. after   14 cycles
 SCF Done:  E(RB3LYP) =  -319.901323054     A.U. after   14 cycles
 SCF Done:  E(RB3LYP) =  -319.899443369     A.U. after   12 cycles
 SCF Done:  E(RB3LYP) =  -319.901361280     A.U. after    9 cycles
 SCF Done:  E(RB3LYP) =  -319.900996117     A.U. after   12 cycles
 SCF Done:  E(RB3LYP) =  -319.901387675     A.U. after    9 cycles
 SCF Done:  E(RB3LYP) =  -319.901988618     A.U. after   12 cycles
 SCF Done:  E(RB3LYP) =  -319.901973284     A.U. after   12 cycles
 SCF Done:  E(RB3LYP) =  -319.902035727     A.U. after    9 cycles
 SCF Done:  E(RB3LYP) =  -319.900241384     A.U. after   14 cycles
 SCF Done:  E(RB3LYP) =  -319.902062182     A.U. after   10 cycles
 SCF Done:  E(RB3LYP) =  -319.902082039     A.U. after    9 cycles
 SCF Done:  E(RB3LYP) =  -319.902084275     A.U. after    8 cycles
 SCF Done:  E(RB3LYP) =  -319.902084944     A.U. after    8 cycles
 SCF Done:  E(RB3LYP) =  -319.902086099     A.U. after   10 cycles
 Optimization completed.
    -- Stationary point found.
 Normal termination of Gaussian 09 at Fri Sep 10 19:30:07 2021.

 ----------------------------------------------------------------------
 #P Geom=AllCheck Guess=TCheck SCRF=Check GenChk RB3LYP/6-31G(d,p) Freq
 ----------------------------------------------------------------------

 Structure from the checkpoint file:  "/public/home/users/caep010/.cache/gau_scr/Gau-226597.chk"
 --------
 Frag_363
 --------
 Charge =  0 Multiplicity = 1

                         Standard orientation:
 ---------------------------------------------------------------------
 Center     Atomic      Atomic             Coordinates (Angstroms)
 Number     Number       Type             X           Y           Z
 ---------------------------------------------------------------------
      1          6           0        1.270610    1.297983    0.110196
      2          7           0        0.616330    0.024853   -0.168281
      3          7           0        1.434674   -1.123579   -0.008720
      4          6           0       -0.749263   -0.163074   -0.024596
      5          7           0       -1.507905    0.997616    0.019536
      6          8           0       -1.246504   -1.278559    0.092872
      7          1           0        1.015400    2.051798   -0.645259
      8          1           0        1.016492    1.696623    1.101288
      9          1           0        2.343976    1.123161    0.061072
     10          1           0        1.321103   -1.686713   -0.851180
     11          1           0        1.017054   -1.688691    0.733271
     12          1           0       -1.176923    1.818408   -0.466152
     13          1           0       -2.494846    0.812201   -0.087361
 ---------------------------------------------------------------------

 SCF Done:  E(RB3LYP) =  -319.902086099     A.U. after    1 cycles

 The electronic state is 1-A.
 Alpha  occ. eigenvalues --  -19.10155 -14.37729 -14.35061 -14.34911 -10.30330
 Alpha  occ. eigenvalues --  -10.22130  -1.04438  -0.96635  -0.90212  -0.80288
 Alpha  occ. eigenvalues --   -0.69805  -0.58421  -0.54931  -0.50556  -0.49433
 Alpha  occ. eigenvalues --   -0.46673  -0.43321  -0.40625  -0.40074  -0.39167
 Alpha  occ. eigenvalues --   -0.27441  -0.27022  -0.25479  -0.23843
 Alpha virt. eigenvalues --    0.05217   0.07118   0.09223   0.12136   0.14190
 Alpha virt. eigenvalues --    0.15271   0.16919   0.17427   0.19440   0.21609
 Alpha virt. eigenvalues --    0.29132   0.36167   0.39759   0.51120   0.53198

 Mulliken charges:
               1
     1  C   -0.165150
     2  N   -0.366845
     3  N   -0.440983
     4  C    0.696786
     5  N   -0.628543
     6  O   -0.535752
     7  H    0.102952
     8  H    0.123442
     9  H    0.145462
    10  H    0.265635
    11  H    0.263314
    12  H    0.261073
    13  H    0.278610
 Sum of Mulliken charges =  -0.00000

 Dipole moment (field-independent basis, Debye):
    X=              0.3705    Y=              2.7697    Z=             -1.0067  Tot=              2.9702
 Quadrupole moment (field-independent basis, Debye-Ang):
   XX=            -36.4662   YY=            -33.3498   ZZ=            -35.3351
   XY=             -4.2822   XZ=              1.3510   YZ=             -0.9689

  Exact polarizability:  50.655  -0.536  52.608  -0.674  -0.999  30.423
 Approx polarizability:  67.310   2.437  76.909  -2.645  -2.351  43.267

                      1                      2                      3
                      A                      A                      A
 Frequencies --     58.4637               108.2278               183.1749
 Red. masses --      1.1944                 2.8365                 2.0154
 Frc consts  --      0.0024                 0.0196                 0.0398
 IR Inten    --      2.6750                11.1714                 6.1989

                      4                      5                      6
                      A                      A                      A
 Frequencies --    229.5697               299.1403               407.0935
 Red. masses --      1.3919                 3.2513                 1.1862
 Frc consts  --      0.0432                 0.1714                 0.1158
 IR Inten    --     56.0498                14.8933                58.2252

                      7                      8                      9
                      A                      A                      A
 Frequencies --    425.2937               512.0607               545.9933
 Red. masses --      2.8457                 2.8687                 1.3037
 Frc consts  --      0.3033                 0.4432                 0.2290
 IR Inten    --     23.8178                 5.3342               168.0123

                     10                     11                     12
                      A                      A                      A
 Frequencies --    620.4372               769.7537               781.0014
 Red. masses --      4.5748                 7.2275                 4.5713
 Frc consts  --      1.0376                 2.5231                 1.6428
 IR Inten    --      8.9411                53.2034                10.9333

                     13                     14                     15
                      A                      A                      A
 Frequencies --    983.5625              1076.1237              1099.9606
 Red. masses --      1.9592                 1.6594                 1.7308
 Frc consts  --      1.1167                 1.1322                 1.2338
 IR Inten    --     39.9634                57.0249                19.2666

                     16                     17                     18
                      A                      A                      A
 Frequencies --   1146.3045              1216.4642              1326.5235
 Red. masses --      1.2783                 2.3721                 3.2386
 Frc consts  --      0.9896                 2.0681                 3.3577
 IR Inten    --      3.3041                29.0584                 8.1158

                     19                     20                     21
                      A                      A                      A
 Frequencies --   1351.7423              1405.8877              1479.0251
 Red. masses --      1.1878                 2.2187                 1.5341
 Frc consts  --      1.2787                 2.5837                 1.9772
 IR Inten    --      1.4272               164.9223                90.9805

                     22                     23                     24
                      A                      A                      A
 Frequencies --   1506.3345              1521.1509              1630.5303
 Red. masses --      1.0519                 1.0602                 1.2183
 Frc consts  --      1.4062                 1.4454                 1.9083
 IR Inten    --      8.3305                29.7882               132.7096

                     25                     26                     27
                      A                      A                      A
 Frequencies --   1714.5008              1789.3781              3016.9310
 Red. masses --      1.0744                 8.2408                 1.0395
 Frc consts  --      1.8608                15.5463                 5.5744
 IR Inten    --     15.0125               337.5102                51.0729

                     28                     29                     30
                      A                      A                      A
 Frequencies --   3068.1316              3175.8177              3445.2117
 Red. masses --      1.1051                 1.0961                 1.0493
 Frc consts  --      6.1289                 6.5136                 7.3378
 IR Inten    --     41.8690                 4.3218                 4.1574

                     31                     32                     33
                      A                      A                      A
 Frequencies --   3514.9478              3586.8702              3708.1527
 Red. masses --      1.0922                 1.0467                 1.1009
 Frc consts  --      7.9503                 7.9344                 8.9193
 IR Inten    --      0.7376                20.3504                28.7756

 - Thermochemistry -
 -------------------
 Temperature   298.150 Kelvin.  Pressure   1.00000 Atm.
 Atom     1 has atomic number  6 and mass  12.00000

 Molecular mass:    89.05891 amu.
 Principal axes and moments of inertia in atomic units:
                           1         2         3
     Eigenvalues --   357.26693 495.75873 825.66725
           X            0.99922  -0.03874   0.00751
           Y            0.03875   0.99925  -0.00136
           Z           -0.00745   0.00165   0.99997
 This molecule is an asymmetric top.
 Rotational symmetry number  1.
 Rotational temperatures (Kelvin)      0.24243     0.17471     0.10490
 Rotational constants (GHZ):           5.05152     3.64036     2.18580
 Zero-point vibrational energy     285331.9 (Joules/Mol)
                                   68.19595 (Kcal/Mol)
 Warning -- explicit consideration of  10 degrees of freedom as
           vibrations may cause significant error
 Vibrational temperatures:     84.12   155.72   263.55   330.30   430.40
          (Kelvin)            585.72   611.90   736.74   785.56   892.67
                             1107.50  1123.69  1415.13  1548.30  1582.60
                             1649.27  1750.22  1908.57  1944.85  2022.76
                             2127.98  2167.28  2188.59  2345.97  2466.78
                             2574.51  4340.69  4414.35  4569.29  4956.89
                             5057.22  5160.70  5335.20

 Zero-point correction=                           0.108677 (Hartree/Particle)
 Thermal correction to Energy=                    0.116062
 Thermal correction to Enthalpy=                  0.117006
 Thermal correction to Gibbs Free Energy=         0.077302
 Sum of electronic and zero-point Energies=           -319.793409
 Sum of electronic and thermal Energies=              -319.786024
 Sum of electronic and thermal Enthalpies=            -319.785080
 Sum of electronic and thermal Free Energies=         -319.824784

                     E (Thermal)             CV                S
                      KCal/Mol        Cal/Mol-Kelvin    Cal/Mol-Kelvin
 Total                   72.830             24.937             83.565
 Electronic               0.000              0.000              0.000
 Translational            0.889              2.981             39.373
 Rotational               0.889              2.981             26.483
 Vibrational             71.053             18.975             17.709
 Vibration     1          0.596              1.974              4.508
 Vibration     2          0.606              1.943              3.300
 Vibration     3          0.631              1.863              2.296
 Vibration     4          0.652              1.796              1.882
 Vibration     5          0.692              1.675              1.422
 Vibration     6          0.772              1.455              0.937
 Vibration     7          0.787              1.415              0.874
 Vibration     8          0.867              1.223              0.629
 Vibration     9          0.901              1.148              0.553
 Vibration    10          0.980              0.989              0.416

 Optimization completed.
    -- Stationary point found.
 Normal termination of Gaussian 09 at Fri Sep 10 19:30:17 2021.
