 Gaussian 09, Revision E.01,
 Gaussian 09:  ES64L-G09RevE.01 30-Nov-2015

 ----------------------------
 #P OPT Freq B3LYP/6-31G(d,p)
 ----------------------------

 --------
 Frag_553
 --------
 Symbolic Z-matrix:
 Charge =  0 Multiplicity = 1

 SCF Done:  E(RB3LYP) =  -308.485568598     A.U. after   12 cycles
 SCF Done:  E(RB3LYP) =  -308.485593295     A.U. after    9 cycles
 SCF Done:  E(RB3LYP) =  -308.485592576     A.U. after    8 cycles
 SCF Done:  E(RB3LYP) =  -308.485597033     A.U. after    8 cycles
 SCF Done:  E(RB3LYP) =  -308.485597433     A.U. after    7 cycles
 SCF Done:  E(RB3LYP) =  -308.485597476     A.U. after    6 cycles
 Optimization completed.
    -- Stationary point found.
 Normal termination of Gaussian 09 at Thu Sep  8 15:14:07 2022.

 ----------------------------------------------------------------------
 #P Geom=AllCheck Guess=TCheck SCRF=Check GenChk RB3LYP/6-31G(d,p) Freq
 ----------------------------------------------------------------------

 Structure from the checkpoint file:  "B3LYP6-31Gdp.Frag_553.chk"
 --------
 Frag_553
 --------
 Charge =  0 Multiplicity = 1

                         Standard orientation:
 ---------------------------------------------------------------------
 Center     Atomic      Atomic             Coordinates (Angstroms)
 Number     Number       Type             X           Y           Z
 ---------------------------------------------------------------------
      1          6           0        0.735207   -0.190151    1.529088
      2          6           0        0.633549   -0.013338    0.002651
      3          6           0        1.322668    1.304141   -0.406934
      4          6           0        1.339890   -1.184082   -0.705511
      5          6           0       -0.859342    0.008683   -0.451662
      6          7           0       -1.552628    1.194237    0.087955
      7          7           0       -1.547223   -1.210945   -0.041562
      8          1           0        0.162846    0.581897    2.050955
      9          1           0        0.358311   -1.170375    1.838176
     10          1           0        1.779942   -0.124430    1.852212
     11          1           0        1.186764    1.513595   -1.475496
     12          1           0        0.948028    2.160339    0.163830
     13          1           0        2.400226    1.241749   -0.221240
     14          1           0        1.341162   -1.046393   -1.793695
     15          1           0        0.835284   -2.127546   -0.486365
     16          1           0        2.383406   -1.257140   -0.379757
     17          1           0       -0.850673   -0.004415   -1.556261
     18          1           0       -2.518763    1.182601   -0.233336
     19          1           0       -1.144091    2.049657   -0.282461
     20          1           0       -2.422732   -1.305547   -0.550493
     21          1           0       -1.792585   -1.128547    0.943391
 ---------------------------------------------------------------------

 SCF Done:  E(RB3LYP) =  -308.485597476     A.U. after    1 cycles

 The electronic state is 1-A.
 Alpha  occ. eigenvalues --  -14.30897 -14.30887 -10.23040 -10.18617 -10.16892
 Alpha  occ. eigenvalues --  -10.15836 -10.15695  -0.91282  -0.82905  -0.79241
 Alpha  occ. eigenvalues --   -0.67478  -0.67003  -0.63185  -0.52461  -0.49270
 Alpha  occ. eigenvalues --   -0.48080  -0.45552  -0.43333  -0.41685  -0.40462
 Alpha  occ. eigenvalues --   -0.38810  -0.37114  -0.36400  -0.35138  -0.31419
 Alpha  occ. eigenvalues --   -0.31372  -0.31212  -0.24241  -0.23439
 Alpha virt. eigenvalues --    0.06831   0.10624   0.11652   0.12863   0.14456
 Alpha virt. eigenvalues --    0.15455   0.16180   0.17261   0.18258   0.19143
 Alpha virt. eigenvalues --    0.19982   0.20654   0.21562   0.22802   0.22936

 Mulliken charges:
               1
     1  C   -0.316097
     2  C    0.066349
     3  C   -0.319845
     4  C   -0.300939
     5  C    0.168846
     6  N   -0.602491
     7  N   -0.589853
     8  H    0.114917
     9  H    0.100804
    10  H    0.090982
    11  H    0.090450
    12  H    0.100114
    13  H    0.100665
    14  H    0.084324
    15  H    0.124891
    16  H    0.087811
    17  H    0.067179
    18  H    0.222650
    19  H    0.233910
    20  H    0.232198
    21  H    0.243135
 Sum of Mulliken charges =  -0.00000

 Dipole moment (field-independent basis, Debye):
    X=             -1.2251    Y=              0.9957    Z=             -0.9417  Tot=              1.8382
 Quadrupole moment (field-independent basis, Debye-Ang):
   XX=            -41.0156   YY=            -47.7943   ZZ=            -46.5738
   XY=              0.2458   XZ=              2.1789   YZ=             -2.4620

  Exact polarizability:  73.632   0.678  68.073   0.473  -0.637  64.017
 Approx polarizability:  96.360   1.465  94.075   0.707  -0.654  90.957

                      1                      2                      3
                      A                      A                      A
 Frequencies --     97.0386               221.1783               232.6600
 Red. masses --      3.0693                 1.0674                 1.1509
 Frc consts  --      0.0170                 0.0308                 0.0367
 IR Inten    --      1.2344                 3.8298                14.4272

                      4                      5                      6
                      A                      A                      A
 Frequencies --    251.2102               273.7554               284.4145
 Red. masses --      1.5408                 1.3275                 2.0298
 Frc consts  --      0.0573                 0.0586                 0.0967
 IR Inten    --      0.5849                 6.0896                 4.7938

                      7                      8                      9
                      A                      A                      A
 Frequencies --    305.3135               329.2714               353.1840
 Red. masses --      1.2868                 1.0922                 2.4168
 Frc consts  --      0.0707                 0.0698                 0.1776
 IR Inten    --      6.4802                65.0185                 1.6073

                     10                     11                     12
                      A                      A                      A
 Frequencies --    368.2491               388.4218               470.2767
 Red. masses --      2.1575                 2.2625                 2.2276
 Frc consts  --      0.1724                 0.2011                 0.2903
 IR Inten    --      0.2561                 1.8926                17.7095

                     13                     14                     15
                      A                      A                      A
 Frequencies --    489.9721               576.2346               723.7236
 Red. masses --      2.9199                 2.7935                 2.6292
 Frc consts  --      0.4130                 0.5465                 0.8114
 IR Inten    --     11.4985                13.7346                 7.0805

                     16                     17                     18
                      A                      A                      A
 Frequencies --    854.7473               869.5688               907.8435
 Red. masses --      1.7445                 1.8787                 1.4989
 Frc consts  --      0.7509                 0.8370                 0.7278
 IR Inten    --     23.3948                94.2818               117.0260

                     19                     20                     21
                      A                      A                      A
 Frequencies --    941.7187               942.9732               964.9502
 Red. masses --      1.6738                 1.6347                 1.2091
 Frc consts  --      0.8746                 0.8564                 0.6633
 IR Inten    --      2.3321                 4.2224                 1.2110

                     22                     23                     24
                      A                      A                      A
 Frequencies --   1013.9109              1030.9847              1050.8194
 Red. masses --      1.7120                 1.4609                 1.4802
 Frc consts  --      1.0369                 0.9149                 0.9630
 IR Inten    --     26.0858                 2.7827                 8.1026

                     25                     26                     27
                      A                      A                      A
 Frequencies --   1091.3493              1162.1805              1238.9139
 Red. masses --      2.5101                 1.2810                 2.1481
 Frc consts  --      1.7615                 1.0194                 1.9426
 IR Inten    --     37.3491                 2.0876                11.1050

                     28                     29                     30
                      A                      A                      A
 Frequencies --   1254.6264              1290.0373              1303.1771
 Red. masses --      2.2589                 2.0884                 2.0016
 Frc consts  --      2.0949                 2.0477                 2.0028
 IR Inten    --      9.3059                 0.5881                 1.7119

                     31                     32                     33
                      A                      A                      A
 Frequencies --   1377.5841              1405.1771              1406.1417
 Red. masses --      1.2812                 1.2783                 1.2435
 Frc consts  --      1.4326                 1.4871                 1.4486
 IR Inten    --     19.3833                 6.7592                 5.6958

                     34                     35                     36
                      A                      A                      A
 Frequencies --   1427.2852              1452.3120              1492.7767
 Red. masses --      1.2755                 1.3828                 1.0503
 Frc consts  --      1.5309                 1.7184                 1.3790
 IR Inten    --      3.3766                19.9293                 0.2097

                     37                     38                     39
                      A                      A                      A
 Frequencies --   1504.4439              1512.1830              1515.2401
 Red. masses --      1.0488                 1.0458                 1.0552
 Frc consts  --      1.3986                 1.4090                 1.4274
 IR Inten    --      0.5647                 0.0355                 2.3688

                     40                     41                     42
                      A                      A                      A
 Frequencies --   1524.5481              1540.7124              1656.1284
 Red. masses --      1.0552                 1.0619                 1.0951
 Frc consts  --      1.4449                 1.4852                 1.7697
 IR Inten    --      3.5171                15.7436                37.7375

                     43                     44                     45
                      A                      A                      A
 Frequencies --   1669.8927              2947.9879              3027.7097
 Red. masses --      1.0947                 1.0836                 1.0372
 Frc consts  --      1.7985                 5.5483                 5.6017
 IR Inten    --     22.5168                71.0684                26.1172

                     46                     47                     48
                      A                      A                      A
 Frequencies --   3036.3685              3044.9982              3094.1561
 Red. masses --      1.0378                 1.0367                 1.1007
 Frc consts  --      5.6374                 5.6636                 6.2089
 IR Inten    --     42.0707                14.3873                 1.9681

                     49                     50                     51
                      A                      A                      A
 Frequencies --   3099.6221              3106.5959              3109.7427
 Red. masses --      1.1002                 1.1019                 1.1012
 Frc consts  --      6.2280                 6.2653                 6.2743
 IR Inten    --     62.1738                18.3809                45.6468

                     52                     53                     54
                      A                      A                      A
 Frequencies --   3129.4613              3142.1795              3479.9794
 Red. masses --      1.1023                 1.0994                 1.0500
 Frc consts  --      6.3604                 6.3955                 7.4918
 IR Inten    --     23.0192                17.6207                 4.0439

                     55                     56                     57
                      A                      A                      A
 Frequencies --   3487.3205              3564.7618              3571.7165
 Red. masses --      1.0490                 1.0916                 1.0925
 Frc consts  --      7.5167                 8.1731                 8.2114
 IR Inten    --      0.9013                 1.2839                 0.8173

 - Thermochemistry -
 -------------------
 Temperature   298.150 Kelvin.  Pressure   1.00000 Atm.
 Atom     1 has atomic number  6 and mass  12.00000

 Molecular mass:   102.11570 amu.
 Principal axes and moments of inertia in atomic units:
                           1         2         3
     Eigenvalues --   584.77697 809.11581 970.03911
           X            1.00000  -0.00015   0.00294
           Y            0.00022   0.99968  -0.02530
           Z           -0.00294   0.02530   0.99968
 This molecule is an asymmetric top.
 Rotational symmetry number  1.
 Warning -- assumption of classical behavior for rotation
           may cause significant error
 Rotational temperatures (Kelvin)      0.14811     0.10705     0.08929
 Rotational constants (GHZ):           3.08620     2.23051     1.86048
 Zero-point vibrational energy     512059.9 (Joules/Mol)
                                  122.38525 (Kcal/Mol)
 Warning -- explicit consideration of  14 degrees of freedom as
           vibrations may cause significant error
 Vibrational temperatures:    139.62   318.23   334.75   361.43   393.87
          (Kelvin)            409.21   439.28   473.75   508.15   529.83
                              558.85   676.62   704.96   829.07  1041.28
                             1229.79  1251.11  1306.18  1354.92  1356.73
                             1388.35  1458.79  1483.36  1511.89  1570.21
                             1672.12  1782.52  1805.13  1856.07  1874.98
                             1982.03  2021.73  2023.12  2053.54  2089.55
                             2147.77  2164.56  2175.69  2180.09  2193.48
                             2216.74  2382.80  2402.60  4241.49  4356.19
                             4368.65  4381.07  4451.79  4459.66  4469.69
                             4474.22  4502.59  4520.89  5006.91  5017.47
                             5128.89  5138.90

 Zero-point correction=                           0.195033 (Hartree/Particle)
 Thermal correction to Energy=                    0.204171
 Thermal correction to Enthalpy=                  0.205116
 Thermal correction to Gibbs Free Energy=         0.162800
 Sum of electronic and zero-point Energies=           -308.290564
 Sum of electronic and thermal Energies=              -308.281426
 Sum of electronic and thermal Enthalpies=            -308.280482
 Sum of electronic and thermal Free Energies=         -308.322798

                     E (Thermal)             CV                S
                      KCal/Mol        Cal/Mol-Kelvin    Cal/Mol-Kelvin
 Total                  128.120             35.160             89.062
 Electronic               0.000              0.000              0.000
 Translational            0.889              2.981             39.780
 Rotational               0.889              2.981             27.620
 Vibrational            126.342             29.198             21.661
 Vibration     1          0.603              1.951              3.513
 Vibration     2          0.648              1.809              1.949
 Vibration     3          0.653              1.791              1.858
 Vibration     4          0.663              1.761              1.722
 Vibration     5          0.676              1.722              1.572
 Vibration     6          0.683              1.703              1.507
 Vibration     7          0.696              1.664              1.388
 Vibration     8          0.712              1.617              1.264
 Vibration     9          0.729              1.569              1.152
 Vibration    10          0.741              1.538              1.087
 Vibration    11          0.757              1.495              1.006
 Vibration    12          0.827              1.316              0.737
 Vibration    13          0.846              1.272              0.684
 Vibration    14          0.933              1.083              0.492

 Optimization completed.
    -- Stationary point found.
 Normal termination of Gaussian 09 at Thu Sep  8 15:14:29 2022.
