 Gaussian 09, Revision E.01,
 Gaussian 09:  ES64L-G09RevE.01 30-Nov-2015

 ----------------------------
 #P OPT Freq B3LYP/6-31G(d,p)
 ----------------------------

 --------
 Frag_842
 --------
 Symbolic Z-matrix:
 Charge =  0 Multiplicity = 1

 SCF Done:  E(RB3LYP) =  -344.813939449     A.U. after   13 cycles
 SCF Done:  E(RB3LYP) =  -344.813981732     A.U. after   10 cycles
 SCF Done:  E(RB3LYP) =  -344.813974001     A.U. after   10 cycles
 SCF Done:  E(RB3LYP) =  -344.814003071     A.U. after    9 cycles
 Optimization completed.
    -- Stationary point found.
 Normal termination of Gaussian 09 at Thu Sep  8 15:00:13 2022.

 ----------------------------------------------------------------------
 #P Geom=AllCheck Guess=TCheck SCRF=Check GenChk RB3LYP/6-31G(d,p) Freq
 ----------------------------------------------------------------------

 Structure from the checkpoint file:  "B3LYP6-31Gdp.Frag_842.chk"
 --------
 Frag_842
 --------
 Charge =  0 Multiplicity = 1

                         Standard orientation:
 ---------------------------------------------------------------------
 Center     Atomic      Atomic             Coordinates (Angstroms)
 Number     Number       Type             X           Y           Z
 ---------------------------------------------------------------------
      1          6           0        1.739124    0.719745   -0.102177
      2          6           0        0.410863   -0.012368    0.012719
      3          8           0        0.272973   -1.003019   -1.014993
      4          8           0        0.358522   -0.623243    1.279065
      5          6           0       -0.817949    0.885497   -0.179099
      6          8           0       -1.992666    0.116305    0.051109
      7          1           0        2.562009    0.017619    0.063282
      8          1           0        1.812023    1.509806    0.650212
      9          1           0        1.847153    1.156086   -1.098209
     10          1           0        0.822124   -1.750631   -0.739185
     11          1           0       -0.583848   -0.816199    1.426366
     12          1           0       -0.811147    1.689071    0.561606
     13          1           0       -0.808101    1.327601   -1.184631
     14          1           0       -1.943071   -0.610943   -0.589541
 ---------------------------------------------------------------------

 SCF Done:  E(RB3LYP) =  -344.814003071     A.U. after    1 cycles

 The electronic state is 1-A.
 Alpha  occ. eigenvalues --  -19.15526 -19.15261 -19.14839 -10.28773 -10.23345
 Alpha  occ. eigenvalues --  -10.18104  -1.06892  -1.01916  -0.99088  -0.76145
 Alpha  occ. eigenvalues --   -0.68910  -0.59687  -0.55161  -0.49855  -0.48160
 Alpha  occ. eigenvalues --   -0.44901  -0.42017  -0.41141  -0.39465  -0.38437
 Alpha  occ. eigenvalues --   -0.35318  -0.32894  -0.30205  -0.29045  -0.26970
 Alpha virt. eigenvalues --    0.06728   0.09726   0.11484   0.13698   0.14094
 Alpha virt. eigenvalues --    0.15796   0.16967   0.19474   0.20632   0.23337
 Alpha virt. eigenvalues --    0.24573   0.25610   0.27968   0.51229   0.55346

 Mulliken charges:
               1
     1  C   -0.309175
     2  C    0.412937
     3  O   -0.556109
     4  O   -0.543784
     5  C    0.060551
     6  O   -0.551133
     7  H    0.110897
     8  H    0.114613
     9  H    0.113479
    10  H    0.307200
    11  H    0.309785
    12  H    0.114579
    13  H    0.098341
    14  H    0.317817
 Sum of Mulliken charges =  -0.00000

 Dipole moment (field-independent basis, Debye):
    X=              0.7889    Y=             -0.2738    Z=             -0.7250  Tot=              1.1059
 Quadrupole moment (field-independent basis, Debye-Ang):
   XX=            -37.8185   YY=            -32.1220   ZZ=            -38.8937
   XY=              1.2652   XZ=             -0.4784   YZ=              0.2859

  Exact polarizability:  45.929   0.744  43.383  -0.322   0.232  40.548
 Approx polarizability:  58.910   0.454  58.392  -0.057   0.797  59.127

                      1                      2                      3
                      A                      A                      A
 Frequencies --    149.9031               224.7069               239.6823
 Red. masses --      3.3873                 1.0598                 3.3567
 Frc consts  --      0.0448                 0.0315                 0.1136
 IR Inten    --     10.9485                 0.0615                 1.1066

                      4                      5                      6
                      A                      A                      A
 Frequencies --    316.0183               359.3701               387.6747
 Red. masses --      1.3232                 2.7031                 2.4526
 Frc consts  --      0.0779                 0.2057                 0.2172
 IR Inten    --     56.1542                 7.6089                43.0644

                      7                      8                      9
                      A                      A                      A
 Frequencies --    432.4995               502.5594               524.7316
 Red. masses --      2.3238                 1.6388                 1.6704
 Frc consts  --      0.2561                 0.2439                 0.2710
 IR Inten    --      5.4334                45.8726                74.8776

                     10                     11                     12
                      A                      A                      A
 Frequencies --    602.2833               661.5840               804.6896
 Red. masses --      2.9373                 1.3074                 4.2287
 Frc consts  --      0.6278                 0.3371                 1.6133
 IR Inten    --     16.7523               153.7365                24.7966

                     13                     14                     15
                      A                      A                      A
 Frequencies --    910.3773               933.1870               992.9643
 Red. masses --      2.4723                 2.0705                 1.4221
 Frc consts  --      1.2073                 1.0623                 0.8261
 IR Inten    --     76.5407                 5.5161                26.6142

                     16                     17                     18
                      A                      A                      A
 Frequencies --   1075.8269              1103.5000              1127.3807
 Red. masses --      3.9059                 1.6718                 1.6205
 Frc consts  --      2.6635                 1.1994                 1.2135
 IR Inten    --     98.9721                26.5285                87.9529

                     19                     20                     21
                      A                      A                      A
 Frequencies --   1177.1572              1253.4829              1356.3171
 Red. masses --      1.9545                 1.6550                 1.4799
 Frc consts  --      1.5957                 1.5321                 1.6041
 IR Inten    --     87.0592                62.0924                 4.5650

                     22                     23                     24
                      A                      A                      A
 Frequencies --   1368.0161              1407.7294              1431.7882
 Red. masses --      1.3711                 1.2802                 1.2957
 Frc consts  --      1.5118                 1.4948                 1.5650
 IR Inten    --     54.5695                43.9188                64.0022

                     25                     26                     27
                      A                      A                      A
 Frequencies --   1458.9708              1500.1840              1507.6127
 Red. masses --      1.6492                 1.0646                 1.0990
 Frc consts  --      2.0683                 1.4117                 1.4717
 IR Inten    --     54.1946                 4.7434                 2.7080

                     28                     29                     30
                      A                      A                      A
 Frequencies --   1511.9764              3032.3025              3057.6463
 Red. masses --      1.1020                 1.0667                 1.0358
 Frc consts  --      1.4843                 5.7790                 5.7058
 IR Inten    --      4.2467                41.3798                11.8591

                     31                     32                     33
                      A                      A                      A
 Frequencies --   3121.6869              3131.6209              3145.5288
 Red. masses --      1.0994                 1.1020                 1.1039
 Frc consts  --      6.3124                 6.3677                 6.4351
 IR Inten    --     15.6076                23.3095                21.5253

                     34                     35                     36
                      A                      A                      A
 Frequencies --   3712.7902              3763.6287              3803.6038
 Red. masses --      1.0646                 1.0651                 1.0657
 Frc consts  --      8.6467                 8.8886                 9.0837
 IR Inten    --     49.0394                33.3930                26.9492

 - Thermochemistry -
 -------------------
 Temperature   298.150 Kelvin.  Pressure   1.00000 Atm.
 Atom     1 has atomic number  6 and mass  12.00000

 Molecular mass:    92.04734 amu.
 Principal axes and moments of inertia in atomic units:
                           1         2         3
     Eigenvalues --   356.88671 649.76894 654.36211
           X            0.99942   0.02859  -0.01834
           Y           -0.03345   0.92224  -0.38516
           Z            0.00590   0.38555   0.92267
 This molecule is an asymmetric top.
 Rotational symmetry number  1.
 Rotational temperatures (Kelvin)      0.24269     0.13330     0.13236
 Rotational constants (GHZ):           5.05690     2.77751     2.75802
 Zero-point vibrational energy     311573.3 (Joules/Mol)
                                   74.46780 (Kcal/Mol)
 Warning -- explicit consideration of  10 degrees of freedom as
           vibrations may cause significant error
 Vibrational temperatures:    215.68   323.30   344.85   454.68   517.05
          (Kelvin)            557.78   622.27   723.07   754.97   866.55
                              951.87  1157.77  1309.83  1342.65  1428.65
                             1547.87  1587.69  1622.05  1693.66  1803.48
                             1951.44  1968.27  2025.41  2060.02  2099.13
                             2158.43  2169.12  2175.39  4362.80  4399.27
                             4491.41  4505.70  4525.71  5341.87  5415.02
                             5472.53

 Zero-point correction=                           0.118672 (Hartree/Particle)
 Thermal correction to Energy=                    0.125613
 Thermal correction to Enthalpy=                  0.126557
 Thermal correction to Gibbs Free Energy=         0.088688
 Sum of electronic and zero-point Energies=           -344.695331
 Sum of electronic and thermal Energies=              -344.688390
 Sum of electronic and thermal Enthalpies=            -344.687446
 Sum of electronic and thermal Free Energies=         -344.725315

                     E (Thermal)             CV                S
                      KCal/Mol        Cal/Mol-Kelvin    Cal/Mol-Kelvin
 Total                   78.823             25.858             79.702
 Electronic               0.000              0.000              0.000
 Translational            0.889              2.981             39.471
 Rotational               0.889              2.981             26.520
 Vibrational             77.046             19.896             13.710
 Vibration     1          0.618              1.903              2.673
 Vibration     2          0.649              1.803              1.921
 Vibration     3          0.657              1.780              1.805
 Vibration     4          0.703              1.643              1.331
 Vibration     5          0.734              1.556              1.125
 Vibration     6          0.756              1.497              1.009
 Vibration     7          0.793              1.399              0.851
 Vibration     8          0.858              1.244              0.652
 Vibration     9          0.880              1.195              0.599
 Vibration    10          0.961              1.027              0.446

 Normal termination of Gaussian 09 at Thu Sep  8 15:00:24 2022.
