 Gaussian 09, Revision E.01,
 Gaussian 09:  ES64L-G09RevE.01 30-Nov-2015

 ----------------------------
 #P OPT Freq B3LYP/6-31G(d,p)
 ----------------------------

 --------
 Frag_696
 --------
 Symbolic Z-matrix:
 Charge =  0 Multiplicity = 1

 SCF Done:  E(RB3LYP) =  -188.081875909     A.U. after   13 cycles
 SCF Done:  E(RB3LYP) =  -188.081914497     A.U. after    9 cycles
 SCF Done:  E(RB3LYP) =  -188.081915621     A.U. after    7 cycles
 Optimization completed.
    -- Stationary point found.
 Normal termination of Gaussian 09 at Thu Sep  8 14:59:07 2022.

 ----------------------------------------------------------------------
 #P Geom=AllCheck Guess=TCheck SCRF=Check GenChk RB3LYP/6-31G(d,p) Freq
 ----------------------------------------------------------------------

 Structure from the checkpoint file:  "B3LYP6-31Gdp.Frag_696.chk"
 --------
 Frag_696
 --------
 Charge =  0 Multiplicity = 1

                         Standard orientation:
 ---------------------------------------------------------------------
 Center     Atomic      Atomic             Coordinates (Angstroms)
 Number     Number       Type             X           Y           Z
 ---------------------------------------------------------------------
      1          7           0        1.355934   -0.571298   -0.000003
      2          6           0        0.719403    0.532175    0.000007
      3          6           0       -0.777764    0.525821   -0.000005
      4          7           0       -1.506854   -0.517053    0.000001
      5          1           0        2.366747   -0.415737   -0.000007
      6          1           0        1.194790    1.522647    0.000002
      7          1           0       -1.264868    1.505809   -0.000005
      8          1           0       -0.890066   -1.342239    0.000008
 ---------------------------------------------------------------------

 SCF Done:  E(RB3LYP) =  -188.081915621     A.U. after    1 cycles

 The electronic state is 1-A.
 Alpha  occ. eigenvalues --  -14.34843 -14.33189 -10.25418 -10.23908  -0.93745
 Alpha  occ. eigenvalues --   -0.89131  -0.68313  -0.57302  -0.52237  -0.47237
 Alpha  occ. eigenvalues --   -0.41854  -0.38077  -0.30423  -0.29430  -0.27056
 Alpha virt. eigenvalues --   -0.07050   0.06312   0.07835   0.11696   0.15776
 Alpha virt. eigenvalues --    0.17397   0.25934   0.32381   0.40320   0.52339
 Alpha virt. eigenvalues --    0.55446   0.59266   0.59577   0.60474   0.62159

 Mulliken charges:
               1
     1  N   -0.472527
     2  C    0.110296
     3  C    0.115874
     4  N   -0.451681
     5  H    0.247392
     6  H    0.090573
     7  H    0.103958
     8  H    0.256115
 Sum of Mulliken charges =  -0.00000

 Dipole moment (field-independent basis, Debye):
    X=              2.5685    Y=              1.9451    Z=              0.0000  Tot=              3.2218
 Quadrupole moment (field-independent basis, Debye-Ang):
   XX=            -24.7385   YY=            -22.2602   ZZ=            -24.4430
   XY=              0.0940   XZ=             -0.0000   YZ=             -0.0000

  Exact polarizability:  43.430  -0.136  39.154  -0.000  -0.000  14.698
 Approx polarizability:  64.531   0.159  64.430  -0.000   0.000  21.221

                      1                      2                      3
                      A                      A                      A
 Frequencies --    170.3299               307.2673               634.5660
 Red. masses --      1.8337                 4.2408                 1.2716
 Frc consts  --      0.0313                 0.2359                 0.3017
 IR Inten    --     28.7611                 6.5992                 6.2104

                      4                      5                      6
                      A                      A                      A
 Frequencies --    740.3944               907.8903               921.4608
 Red. masses --      3.3508                 3.1604                 1.8722
 Frc consts  --      1.0822                 1.5348                 0.9366
 IR Inten    --     46.6148                 8.3028                54.5937

                      7                      8                      9
                      A                      A                      A
 Frequencies --   1116.0747              1166.6599              1187.1262
 Red. masses --      1.2474                 1.0805                 1.0719
 Frc consts  --      0.9155                 0.8665                 0.8901
 IR Inten    --     18.0712                47.2175                44.7586

                     10                     11                     12
                      A                      A                      A
 Frequencies --   1280.6379              1413.5730              1451.5610
 Red. masses --      1.2195                 1.3381                 1.3691
 Frc consts  --      1.1784                 1.5754                 1.6996
 IR Inten    --     97.5482                43.8005                18.1154

                     13                     14                     15
                      A                      A                      A
 Frequencies --   1684.5218              1742.5190              3043.6572
 Red. masses --      8.6434                 6.3823                 1.0883
 Frc consts  --     14.4507                11.4178                 5.9399
 IR Inten    --     16.0087                 8.2154                52.0656

                     16                     17                     18
                      A                      A                      A
 Frequencies --   3110.8159              3386.6567              3474.7892
 Red. masses --      1.0902                 1.0725                 1.0767
 Frc consts  --      6.2158                 7.2473                 7.6593
 IR Inten    --     47.2112                 0.4204                 0.1945

 - Thermochemistry -
 -------------------
 Temperature   298.150 Kelvin.  Pressure   1.00000 Atm.
 Atom     1 has atomic number  7 and mass  14.00307

 Molecular mass:    56.03745 amu.
 Principal axes and moments of inertia in atomic units:
                           1         2         3
     Eigenvalues --    77.18192 287.36691 364.54883
           X            1.00000   0.00265  -0.00000
           Y           -0.00265   1.00000  -0.00000
           Z            0.00000   0.00000   1.00000
 This molecule is an asymmetric top.
 Rotational symmetry number  1.
 Rotational temperatures (Kelvin)      1.12220     0.30140     0.23759
 Rotational constants (GHZ):          23.38295     6.28027     4.95062
 Zero-point vibrational energy     165925.0 (Joules/Mol)
                                   39.65704 (Kcal/Mol)
 Warning -- explicit consideration of   2 degrees of freedom as
           vibrations may cause significant error
 Vibrational temperatures:    245.07   442.09   913.00  1065.26  1306.25
          (Kelvin)           1325.77  1605.78  1678.56  1708.01  1842.55
                             2033.81  2088.47  2423.65  2507.09  4379.14
                             4475.76  4872.64  4999.44

 Zero-point correction=                           0.063198 (Hartree/Particle)
 Thermal correction to Energy=                    0.067481
 Thermal correction to Enthalpy=                  0.068425
 Thermal correction to Gibbs Free Energy=         0.036807
 Sum of electronic and zero-point Energies=           -188.018718
 Sum of electronic and thermal Energies=              -188.014435
 Sum of electronic and thermal Enthalpies=            -188.013491
 Sum of electronic and thermal Free Energies=         -188.045109

                     E (Thermal)             CV                S
                      KCal/Mol        Cal/Mol-Kelvin    Cal/Mol-Kelvin
 Total                   42.345             13.300             66.546
 Electronic               0.000              0.000              0.000
 Translational            0.889              2.981             37.992
 Rotational               0.889              2.981             23.607
 Vibrational             40.567              7.339              4.948
 Vibration     1          0.625              1.879              2.432
 Vibration     2          0.697              1.660              1.377

 Optimization completed.
    -- Stationary point found.
 Normal termination of Gaussian 09 at Thu Sep  8 14:59:13 2022.
