 Gaussian 09, Revision E.01,
 Gaussian 09:  ES64L-G09RevE.01 30-Nov-2015

 ----------------------------
 #P OPT Freq B3LYP/6-31G(d,p)
 ----------------------------

 --------
 Frag_780
 --------
 Symbolic Z-matrix:
 Charge =  0 Multiplicity = 1

 SCF Done:  E(RB3LYP) =  -248.480952764     A.U. after   13 cycles
 SCF Done:  E(RB3LYP) =  -248.481002096     A.U. after    9 cycles
 SCF Done:  E(RB3LYP) =  -248.481005979     A.U. after    8 cycles
 SCF Done:  E(RB3LYP) =  -248.481006755     A.U. after    8 cycles
 SCF Done:  E(RB3LYP) =  -248.481006866     A.U. after    7 cycles
 Optimization completed.
    -- Stationary point found.
 Normal termination of Gaussian 09 at Thu Sep  8 15:19:57 2022.

 ----------------------------------------------------------------------
 #P Geom=AllCheck Guess=TCheck SCRF=Check GenChk RB3LYP/6-31G(d,p) Freq
 ----------------------------------------------------------------------

 Structure from the checkpoint file:  "B3LYP6-31Gdp.Frag_780.chk"
 --------
 Frag_780
 --------
 Charge =  0 Multiplicity = 1

                         Standard orientation:
 ---------------------------------------------------------------------
 Center     Atomic      Atomic             Coordinates (Angstroms)
 Number     Number       Type             X           Y           Z
 ---------------------------------------------------------------------
      1          6           0        1.899312    0.092892   -0.287151
      2          6           0        0.913390   -0.536319    0.351411
      3          6           0       -0.527118   -0.075665    0.418282
      4          7           0       -0.681081    1.283025   -0.084235
      5          8           0       -1.365614   -0.939878   -0.337211
      6          1           0        2.903764   -0.318285   -0.321392
      7          1           0        1.730447    1.033223   -0.802633
      8          1           0        1.097510   -1.490372    0.842328
      9          1           0       -0.890086   -0.209400    1.451011
     10          1           0       -1.658382    1.549966    0.004151
     11          1           0       -0.134401    1.934212    0.474549
     12          1           0       -1.069874   -0.846946   -1.255923
 ---------------------------------------------------------------------

 SCF Done:  E(RB3LYP) =  -248.481006866     A.U. after    1 cycles

 The electronic state is 1-A.
 Alpha  occ. eigenvalues --  -19.14168 -14.31824 -10.26213 -10.18716 -10.18266
 Alpha  occ. eigenvalues --   -1.02329  -0.87480  -0.76623  -0.65727  -0.55827
 Alpha  occ. eigenvalues --   -0.51891  -0.48717  -0.44735  -0.42871  -0.42317
 Alpha  occ. eigenvalues --   -0.36521  -0.33567  -0.28541  -0.25924  -0.24863
 Alpha virt. eigenvalues --    0.01043   0.08584   0.11456   0.12664   0.14862
 Alpha virt. eigenvalues --    0.15679   0.17792   0.20060   0.23043   0.25877
 Alpha virt. eigenvalues --    0.30598   0.36591   0.51295   0.55034   0.56699

 Mulliken charges:
               1
     1  C   -0.237987
     2  C   -0.061381
     3  C    0.258180
     4  N   -0.610932
     5  O   -0.528888
     6  H    0.099172
     7  H    0.113344
     8  H    0.093469
     9  H    0.085143
    10  H    0.247104
    11  H    0.239599
    12  H    0.303176
 Sum of Mulliken charges =  -0.00000

 Dipole moment (field-independent basis, Debye):
    X=              0.6540    Y=              1.1440    Z=              0.5661  Tot=              1.4342
 Quadrupole moment (field-independent basis, Debye-Ang):
   XX=            -30.7987   YY=            -29.8678   ZZ=            -29.3305
   XY=             -3.0027   XZ=             -0.3559   YZ=              1.8702

  Exact polarizability:  51.462   2.128  40.774  -4.457  -4.497  33.775
 Approx polarizability:  70.842   9.612  57.318  -8.960  -8.777  49.307

                      1                      2                      3
                      A                      A                      A
 Frequencies --    115.1055               277.3348               290.7359
 Red. masses --      2.5217                 1.1151                 2.7854
 Frc consts  --      0.0197                 0.0505                 0.1387
 IR Inten    --      0.2386                32.2923                 1.4016

                      4                      5                      6
                      A                      A                      A
 Frequencies --    353.6500               414.3680               531.2174
 Red. masses --      1.7504                 1.5125                 1.9972
 Frc consts  --      0.1290                 0.1530                 0.3321
 IR Inten    --      7.8062                67.0162                88.2494

                      7                      8                      9
                      A                      A                      A
 Frequencies --    594.2238               714.1355               850.0619
 Red. masses --      2.3483                 2.0295                 1.7850
 Frc consts  --      0.4886                 0.6098                 0.7599
 IR Inten    --      7.7341                 8.4707                45.4943

                     10                     11                     12
                      A                      A                      A
 Frequencies --    917.8403               967.6107               985.2864
 Red. masses --      1.8284                 1.3837                 2.0225
 Frc consts  --      0.9075                 0.7633                 1.1568
 IR Inten    --    105.7098                29.6877                47.2530

                     13                     14                     15
                      A                      A                      A
 Frequencies --   1042.6438              1055.4522              1157.2811
 Red. masses --      1.0908                 2.1469                 2.0374
 Frc consts  --      0.6987                 1.4091                 1.6077
 IR Inten    --      8.5286                94.9961                21.0034

                     16                     17                     18
                      A                      A                      A
 Frequencies --   1215.8905              1315.1994              1327.8806
 Red. masses --      1.2464                 1.3857                 1.3017
 Frc consts  --      1.0857                 1.4122                 1.3523
 IR Inten    --     32.6343                 3.4146                 2.6176

                     19                     20                     21
                      A                      A                      A
 Frequencies --   1414.2651              1440.4413              1457.7204
 Red. masses --      1.4563                 1.1666                 1.3069
 Frc consts  --      1.7162                 1.4261                 1.6362
 IR Inten    --     32.5621                45.5057                37.2128

                     22                     23                     24
                      A                      A                      A
 Frequencies --   1643.7588              1725.0847              2975.9095
 Red. masses --      1.1089                 4.5767                 1.0832
 Frc consts  --      1.7652                 8.0246                 5.6520
 IR Inten    --     44.9039                 1.9668                79.4267

                     25                     26                     27
                      A                      A                      A
 Frequencies --   3157.6061              3172.3326              3248.9185
 Red. masses --      1.0616                 1.0893                 1.1160
 Frc consts  --      6.2362                 6.4586                 6.9406
 IR Inten    --      9.8715                10.7059                10.4758

                     28                     29                     30
                      A                      A                      A
 Frequencies --   3496.3434              3587.5223              3772.4075
 Red. masses --      1.0493                 1.0931                 1.0652
 Frc consts  --      7.5578                 8.2892                 8.9314
 IR Inten    --      0.2403                 0.5719                13.1435

 - Thermochemistry -
 -------------------
 Temperature   298.150 Kelvin.  Pressure   1.00000 Atm.
 Atom     1 has atomic number  6 and mass  12.00000

 Molecular mass:    73.05276 amu.
 Principal axes and moments of inertia in atomic units:
                           1         2         3
     Eigenvalues --   224.68209 436.99370 576.87963
           X            0.99905  -0.04118  -0.01398
           Y            0.04109   0.99913  -0.00640
           Z            0.01423   0.00582   0.99988
 This molecule is an asymmetric top.
 Rotational symmetry number  1.
 Rotational temperatures (Kelvin)      0.38549     0.19820     0.15014
 Rotational constants (GHZ):           8.03242     4.12990     3.12845
 Zero-point vibrational energy     270465.1 (Joules/Mol)
                                   64.64270 (Kcal/Mol)
 Warning -- explicit consideration of   7 degrees of freedom as
           vibrations may cause significant error
 Vibrational temperatures:    165.61   399.02   418.30   508.82   596.18
          (Kelvin)            764.30   854.95  1027.48  1223.05  1320.57
                             1392.17  1417.61  1500.13  1518.56  1665.07
                             1749.39  1892.28  1910.52  2034.81  2072.47
                             2097.33  2365.00  2482.01  4281.66  4543.09
                             4564.27  4674.46  5030.45  5161.64  5427.65

 Zero-point correction=                           0.103015 (Hartree/Particle)
 Thermal correction to Energy=                    0.108897
 Thermal correction to Enthalpy=                  0.109841
 Thermal correction to Gibbs Free Energy=         0.074314
 Sum of electronic and zero-point Energies=           -248.377992
 Sum of electronic and thermal Energies=              -248.372110
 Sum of electronic and thermal Enthalpies=            -248.371166
 Sum of electronic and thermal Free Energies=         -248.406693

                     E (Thermal)             CV                S
                      KCal/Mol        Cal/Mol-Kelvin    Cal/Mol-Kelvin
 Total                   68.334             20.911             74.773
 Electronic               0.000              0.000              0.000
 Translational            0.889              2.981             38.782
 Rotational               0.889              2.981             25.541
 Vibrational             66.556             14.950             10.450
 Vibration     1          0.608              1.937              3.181
 Vibration     2          0.678              1.715              1.550
 Vibration     3          0.687              1.691              1.470
 Vibration     4          0.730              1.568              1.150
 Vibration     5          0.778              1.439              0.911
 Vibration     6          0.886              1.181              0.584
 Vibration     7          0.952              1.044              0.460

 Optimization completed.
    -- Stationary point found.
 Normal termination of Gaussian 09 at Thu Sep  8 15:20:05 2022.
