 Gaussian 09, Revision E.01,
 Gaussian 09:  ES64L-G09RevE.01 30-Nov-2015

 ----------------------------
 #P OPT Freq B3LYP/6-31G(d,p)
 ----------------------------

 ---------
 Frag_1003
 ---------
 Symbolic Z-matrix:
 Charge =  0 Multiplicity = 1

 SCF Done:  E(RB3LYP) =  -193.133077660     A.U. after   12 cycles
 SCF Done:  E(RB3LYP) =  -193.133125520     A.U. after    9 cycles
 SCF Done:  E(RB3LYP) =  -193.133127860     A.U. after    8 cycles
 Optimization completed.
    -- Stationary point found.
 Normal termination of Gaussian 09 at Thu Sep  8 14:44:42 2022.

 ----------------------------------------------------------------------
 #P Geom=AllCheck Guess=TCheck SCRF=Check GenChk RB3LYP/6-31G(d,p) Freq
 ----------------------------------------------------------------------

 Structure from the checkpoint file:  "B3LYP6-31Gdp.Frag_1003.chk"
 ---------
 Frag_1003
 ---------
 Charge =  0 Multiplicity = 1

                         Standard orientation:
 ---------------------------------------------------------------------
 Center     Atomic      Atomic             Coordinates (Angstroms)
 Number     Number       Type             X           Y           Z
 ---------------------------------------------------------------------
      1          6           0        1.893872    0.112839    0.000071
      2          6           0        0.493130   -0.426019   -0.000154
      3          6           0       -0.594371    0.345116   -0.000097
      4          8           0       -1.863568   -0.178201    0.000202
      5          1           0        2.457410   -0.223474   -0.879804
      6          1           0        2.457021   -0.222988    0.880396
      7          1           0        1.903977    1.208014   -0.000228
      8          1           0        0.357395   -1.505798   -0.000236
      9          1           0       -0.523074    1.433070    0.000035
     10          1           0       -2.499964    0.545167   -0.000697
 ---------------------------------------------------------------------

 SCF Done:  E(RB3LYP) =  -193.133127860     A.U. after    1 cycles

 The electronic state is 1-A.
 Alpha  occ. eigenvalues --  -19.16803 -10.22968 -10.17794 -10.16749  -1.04408
 Alpha  occ. eigenvalues --   -0.77249  -0.67409  -0.55459  -0.53579  -0.44443
 Alpha  occ. eigenvalues --   -0.40495  -0.38212  -0.36823  -0.36674  -0.34048
 Alpha  occ. eigenvalues --   -0.21009
 Alpha virt. eigenvalues --    0.04948   0.06654   0.11877   0.14223   0.17676
 Alpha virt. eigenvalues --    0.18059   0.18502   0.23942   0.30661   0.40726
 Alpha virt. eigenvalues --    0.51758   0.53009   0.55440   0.60942   0.63325

 Mulliken charges:
               1
     1  C   -0.349741
     2  C   -0.085005
     3  C    0.137937
     4  O   -0.510173
     5  H    0.111979
     6  H    0.111990
     7  H    0.100187
     8  H    0.085536
     9  H    0.078164
    10  H    0.319126
 Sum of Mulliken charges =   0.00000

 Dipole moment (field-independent basis, Debye):
    X=             -0.3936    Y=              1.6789    Z=             -0.0014  Tot=              1.7244
 Quadrupole moment (field-independent basis, Debye-Ang):
   XX=            -21.1527   YY=            -23.1718   ZZ=            -26.4039
   XY=             -4.0799   XZ=              0.0045   YZ=             -0.0007

  Exact polarizability:  52.640  -5.917  35.145   0.002  -0.001  21.474
 Approx polarizability:  72.790 -12.175  50.442   0.001  -0.002  29.200

                      1                      2                      3
                      A                      A                      A
 Frequencies --    165.3597               216.2736               292.8789
 Red. masses --      1.6081                 1.1094                 2.7323
 Frc consts  --      0.0259                 0.0306                 0.1381
 IR Inten    --     69.8554                26.0549                 0.5668

                      4                      5                      6
                      A                      A                      A
 Frequencies --    306.6644               538.8262               806.9765
 Red. masses --      1.7741                 4.2453                 1.6939
 Frc consts  --      0.0983                 0.7262                 0.6499
 IR Inten    --     28.7745                13.1927                 2.2502

                      7                      8                      9
                      A                      A                      A
 Frequencies --    932.0686               960.2777              1066.8429
 Red. masses --      1.5280                 1.0879                 1.4357
 Frc consts  --      0.7821                 0.5910                 0.9627
 IR Inten    --      3.5087                33.8810                 0.0592

                     10                     11                     12
                      A                      A                      A
 Frequencies --   1113.8815              1168.9400              1229.8563
 Red. masses --      2.1964                 2.2789                 1.5236
 Frc consts  --      1.6056                 1.8347                 1.3578
 IR Inten    --     29.5428                48.0770               195.1739

                     13                     14                     15
                      A                      A                      A
 Frequencies --   1353.5493              1379.6954              1434.6795
 Red. masses --      1.3024                 1.2793                 1.2877
 Frc consts  --      1.4059                 1.4348                 1.5616
 IR Inten    --     36.6454                 5.7403                 3.6607

                     16                     17                     18
                      A                      A                      A
 Frequencies --   1492.8159              1515.1380              1782.2117
 Red. masses --      1.0442                 1.0499                 5.0771
 Frc consts  --      1.3710                 1.4201                 9.5013
 IR Inten    --      4.7853                 3.9206                60.3703

                     19                     20                     21
                      A                      A                      A
 Frequencies --   3021.4356              3068.2916              3102.8429
 Red. masses --      1.0368                 1.1008                 1.1001
 Frc consts  --      5.5768                 6.1060                 6.2405
 IR Inten    --     45.3685                32.9796                25.0487

                     22                     23                     24
                      A                      A                      A
 Frequencies --   3143.1591              3172.4607              3861.7771
 Red. masses --      1.0922                 1.0892                 1.0670
 Frc consts  --      6.3573                 6.4585                 9.3753
 IR Inten    --     27.4379                16.8989                64.7815

 - Thermochemistry -
 -------------------
 Temperature   298.150 Kelvin.  Pressure   1.00000 Atm.
 Atom     1 has atomic number  6 and mass  12.00000

 Molecular mass:    58.04186 amu.
 Principal axes and moments of inertia in atomic units:
                           1         2         3
     Eigenvalues --    42.90112 462.66572 494.41601
           X            0.99993  -0.01147   0.00002
           Y            0.01147   0.99993   0.00000
           Z           -0.00002  -0.00000   1.00000
 This molecule is an asymmetric top.
 Rotational symmetry number  1.
 Rotational temperatures (Kelvin)      2.01892     0.18721     0.17518
 Rotational constants (GHZ):          42.06746     3.90075     3.65025
 Zero-point vibrational energy     222068.2 (Joules/Mol)
                                   53.07557 (Kcal/Mol)
 Warning -- explicit consideration of   5 degrees of freedom as
           vibrations may cause significant error
 Vibrational temperatures:    237.92   311.17   421.39   441.22   775.25
          (Kelvin)           1161.06  1341.04  1381.62  1534.95  1602.63
                             1681.84  1769.49  1947.45  1985.07  2064.18
                             2147.83  2179.94  2564.20  4347.17  4414.58
                             4464.29  4522.30  4564.46  5556.23

 Zero-point correction=                           0.084581 (Hartree/Particle)
 Thermal correction to Energy=                    0.089892
 Thermal correction to Enthalpy=                  0.090836
 Thermal correction to Gibbs Free Energy=         0.057335
 Sum of electronic and zero-point Energies=           -193.048547
 Sum of electronic and thermal Energies=              -193.043236
 Sum of electronic and thermal Enthalpies=            -193.042291
 Sum of electronic and thermal Free Energies=         -193.075793

                     E (Thermal)             CV                S
                      KCal/Mol        Cal/Mol-Kelvin    Cal/Mol-Kelvin
 Total                   56.408             17.192             70.510
 Electronic               0.000              0.000              0.000
 Translational            0.889              2.981             38.096
 Rotational               0.889              2.981             23.799
 Vibrational             54.631             11.230              8.615
 Vibration     1          0.624              1.885              2.488
 Vibration     2          0.645              1.816              1.990
 Vibration     3          0.688              1.687              1.457
 Vibration     4          0.697              1.661              1.380
 Vibration     5          0.894              1.164              0.568

 Optimization completed.
    -- Stationary point found.
 Normal termination of Gaussian 09 at Thu Sep  8 14:44:49 2022.
