 Gaussian 09, Revision E.01,
 Gaussian 09:  ES64L-G09RevE.01 30-Nov-2015

 ----------------------------
 #P OPT Freq B3LYP/6-31G(d,p)
 ----------------------------

 ---------
 Frag_1147
 ---------
 Symbolic Z-matrix:
 Charge =  0 Multiplicity = 1

 SCF Done:  E(RB3LYP) =  -322.415582605     A.U. after   15 cycles
 SCF Done:  E(RB3LYP) =  -322.415713785     A.U. after   12 cycles
 SCF Done:  E(RB3LYP) =  -322.415729959     A.U. after   12 cycles
 SCF Done:  E(RB3LYP) =  -322.415742164     A.U. after    9 cycles
 SCF Done:  E(RB3LYP) =  -322.415749240     A.U. after   11 cycles
 SCF Done:  E(RB3LYP) =  -322.415750786     A.U. after    9 cycles
 SCF Done:  E(RB3LYP) =  -322.415751802     A.U. after    9 cycles
 Optimization completed.
    -- Stationary point found.
 Normal termination of Gaussian 09 at Thu Sep  8 14:52:57 2022.

 ----------------------------------------------------------------------
 #P Geom=AllCheck Guess=TCheck SCRF=Check GenChk RB3LYP/6-31G(d,p) Freq
 ----------------------------------------------------------------------

 Structure from the checkpoint file:  "B3LYP6-31Gdp.Frag_1147.chk"
 ---------
 Frag_1147
 ---------
 Charge =  0 Multiplicity = 1

                         Standard orientation:
 ---------------------------------------------------------------------
 Center     Atomic      Atomic             Coordinates (Angstroms)
 Number     Number       Type             X           Y           Z
 ---------------------------------------------------------------------
      1          6           0       -1.460380   -1.093217   -0.160978
      2          6           0       -0.723855   -0.000381    0.000701
      3          8           0       -1.231765    1.260338    0.086792
      4          7           0        0.745995   -0.105097    0.003962
      5          6           0        1.459847    0.980767   -0.190719
      6          8           0        1.227680   -1.261587    0.201778
      7          1           0       -2.539633   -1.019359   -0.149472
      8          1           0       -0.970441   -2.044352   -0.308828
      9          1           0       -0.832830    1.713540    0.845095
     10          1           0        0.966770    1.903796   -0.449199
     11          1           0        2.533180    0.869035   -0.167914
 ---------------------------------------------------------------------

 SCF Done:  E(RB3LYP) =  -322.415751802     A.U. after    1 cycles

 The electronic state is 1-A.
 Alpha  occ. eigenvalues --  -19.20442 -19.12483 -14.48951 -10.29323 -10.22811
 Alpha  occ. eigenvalues --  -10.19608  -1.11917  -1.07987  -0.85974  -0.78770
 Alpha  occ. eigenvalues --   -0.66606  -0.60346  -0.55642  -0.49686  -0.48440
 Alpha  occ. eigenvalues --   -0.46008  -0.43743  -0.42794  -0.39992  -0.36930
 Alpha  occ. eigenvalues --   -0.26489  -0.24967  -0.22859
 Alpha virt. eigenvalues --   -0.05218   0.04316   0.05723   0.12212   0.13495
 Alpha virt. eigenvalues --    0.15371   0.15983   0.19137   0.24631   0.28914
 Alpha virt. eigenvalues --    0.32622   0.33120   0.51450   0.52865   0.55310

 Mulliken charges:
               1
     1  C   -0.252891
     2  C    0.480441
     3  O   -0.533868
     4  N    0.064634
     5  C   -0.129448
     6  O   -0.499679
     7  H    0.123271
     8  H    0.152981
     9  H    0.324244
    10  H    0.129111
    11  H    0.141205
 Sum of Mulliken charges =  -0.00000

 Dipole moment (field-independent basis, Debye):
    X=             -0.9074    Y=              2.6915    Z=              0.5465  Tot=              2.8925
 Quadrupole moment (field-independent basis, Debye-Ang):
   XX=            -34.7667   YY=            -33.5793   ZZ=            -34.7505
   XY=              5.7475   XZ=             -1.5604   YZ=              2.9740

  Exact polarizability:  56.884  13.232  63.969   0.546  -0.009  22.186
 Approx polarizability:  78.807  25.815 131.202   1.635  -4.073  32.972

                      1                      2                      3
                      A                      A                      A
 Frequencies --     96.2236               311.7850               334.6835
 Red. masses --      4.6780                 1.3340                 2.7154
 Frc consts  --      0.0255                 0.0764                 0.1792
 IR Inten    --     11.7992                78.5871                56.2593

                      4                      5                      6
                      A                      A                      A
 Frequencies --    406.7285               426.3352               545.6165
 Red. masses --      2.4815                 3.4850                 4.6943
 Frc consts  --      0.2419                 0.3732                 0.8234
 IR Inten    --     20.4697                 2.9591                 3.4120

                      7                      8                      9
                      A                      A                      A
 Frequencies --    562.0392               670.1939               719.9724
 Red. masses --      2.8674                 1.8901                 1.3868
 Frc consts  --      0.5337                 0.5002                 0.4235
 IR Inten    --     20.3690                16.8941                14.7437

                     10                     11                     12
                      A                      A                      A
 Frequencies --    774.7936               779.3723               780.8495
 Red. masses --      1.1546                 2.3490                 2.0971
 Frc consts  --      0.4084                 0.8407                 0.7534
 IR Inten    --     28.0482                16.5976                14.8173

                     13                     14                     15
                      A                      A                      A
 Frequencies --    909.5579               969.9155              1093.0305
 Red. masses --      1.3465                 2.0498                 2.0370
 Frc consts  --      0.6563                 1.1361                 1.4338
 IR Inten    --     45.0396                27.8278                21.4553

                     16                     17                     18
                      A                      A                      A
 Frequencies --   1220.0075              1272.5722              1348.4736
 Red. masses --      1.7440                 1.8137                 2.9426
 Frc consts  --      1.5294                 1.7305                 3.1526
 IR Inten    --      0.3060               223.6765                 2.7170

                     19                     20                     21
                      A                      A                      A
 Frequencies --   1407.1806              1458.1502              1611.0953
 Red. masses --      1.1890                 1.4869                 5.7941
 Frc consts  --      1.3872                 1.8627                 8.8610
 IR Inten    --      7.3612                25.2328               143.4462

                     22                     23                     24
                      A                      A                      A
 Frequencies --   1768.2190              3210.7750              3218.5945
 Red. masses --      6.4313                 1.0597                 1.0506
 Frc consts  --     11.8474                 6.4368                 6.4125
 IR Inten    --     27.7455                 4.5977                 4.0525

                     25                     26                     27
                      A                      A                      A
 Frequencies --   3320.1392              3348.6462              3767.9900
 Red. masses --      1.1192                 1.1258                 1.0655
 Frc consts  --      7.2689                 7.4376                 8.9134
 IR Inten    --      1.7832                 0.2568                36.6890

 - Thermochemistry -
 -------------------
 Temperature   298.150 Kelvin.  Pressure   1.00000 Atm.
 Atom     1 has atomic number  6 and mass  12.00000

 Molecular mass:    87.03203 amu.
 Principal axes and moments of inertia in atomic units:
                           1         2         3
     Eigenvalues --   324.46597 474.88606 781.01680
           X            0.98518   0.17141  -0.00615
           Y           -0.17132   0.98512   0.01349
           Z            0.00837  -0.01224   0.99989
 This molecule is an asymmetric top.
 Rotational symmetry number  1.
 Rotational temperatures (Kelvin)      0.26694     0.18239     0.11090
 Rotational constants (GHZ):           5.56219     3.80037     2.31076
 Zero-point vibrational energy     217319.2 (Joules/Mol)
                                   51.94055 (Kcal/Mol)
 Warning -- explicit consideration of   7 degrees of freedom as
           vibrations may cause significant error
 Vibrational temperatures:    138.44   448.59   481.53   585.19   613.40
          (Kelvin)            785.02   808.65   964.26  1035.88  1114.75
                             1121.34  1123.47  1308.65  1395.49  1572.63
                             1755.32  1830.95  1940.15  2024.62  2097.95
                             2318.00  2544.07  4619.58  4630.83  4776.93
                             4817.95  5421.29

 Zero-point correction=                           0.082773 (Hartree/Particle)
 Thermal correction to Energy=                    0.088752
 Thermal correction to Enthalpy=                  0.089696
 Thermal correction to Gibbs Free Energy=         0.053426
 Sum of electronic and zero-point Energies=           -322.332979
 Sum of electronic and thermal Energies=              -322.327000
 Sum of electronic and thermal Enthalpies=            -322.326056
 Sum of electronic and thermal Free Energies=         -322.362326

                     E (Thermal)             CV                S
                      KCal/Mol        Cal/Mol-Kelvin    Cal/Mol-Kelvin
 Total                   55.693             21.976             76.337
 Electronic               0.000              0.000              0.000
 Translational            0.889              2.981             39.304
 Rotational               0.889              2.981             26.290
 Vibrational             53.915             16.015             10.743
 Vibration     1          0.603              1.952              3.529
 Vibration     2          0.700              1.651              1.353
 Vibration     3          0.716              1.606              1.237
 Vibration     4          0.772              1.456              0.938
 Vibration     5          0.788              1.413              0.871
 Vibration     6          0.901              1.149              0.553
 Vibration     7          0.918              1.113              0.520

 Optimization completed.
    -- Stationary point found.
 Normal termination of Gaussian 09 at Thu Sep  8 14:53:05 2022.
