 Gaussian 09, Revision E.01,
 Gaussian 09:  ES64L-G09RevE.01 30-Nov-2015

 ----------------------------
 #P OPT Freq B3LYP/6-31G(d,p)
 ----------------------------

 --------
 Frag_728
 --------
 Symbolic Z-matrix:
 Charge =  0 Multiplicity = 1

 SCF Done:  E(RB3LYP) =  -304.299761701     A.U. after   13 cycles
 SCF Done:  E(RB3LYP) =  -304.299861461     A.U. after   11 cycles
 SCF Done:  E(RB3LYP) =  -304.299867184     A.U. after    8 cycles
 Optimization completed.
    -- Stationary point found.
 Normal termination of Gaussian 09 at Thu Sep  8 15:07:10 2022.

 ----------------------------------------------------------------------
 #P Geom=AllCheck Guess=TCheck SCRF=Check GenChk RB3LYP/6-31G(d,p) Freq
 ----------------------------------------------------------------------

 Structure from the checkpoint file:  "B3LYP6-31Gdp.Frag_728.chk"
 --------
 Frag_728
 --------
 Charge =  0 Multiplicity = 1

                         Standard orientation:
 ---------------------------------------------------------------------
 Center     Atomic      Atomic             Coordinates (Angstroms)
 Number     Number       Type             X           Y           Z
 ---------------------------------------------------------------------
      1          8           0        0.498333    1.308220    0.000045
      2          6           0        0.514416    0.094487   -0.000078
      3          8           0        1.639767   -0.642025   -0.000032
      4          6           0       -0.744561   -0.750140    0.000079
      5          8           0       -1.889245    0.057692   -0.000077
      6          1           0        2.386134   -0.018488    0.000018
      7          1           0       -0.714003   -1.406949   -0.882468
      8          1           0       -0.713949   -1.406644    0.882865
      9          1           0       -1.568161    0.974910    0.000090
 ---------------------------------------------------------------------

 SCF Done:  E(RB3LYP) =  -304.299867184     A.U. after    1 cycles

 The electronic state is 1-A.
 Alpha  occ. eigenvalues --  -19.21840 -19.16360 -19.14679 -10.33925 -10.25471
 Alpha  occ. eigenvalues --   -1.12848  -1.04534  -1.01892  -0.74454  -0.62306
 Alpha  occ. eigenvalues --   -0.53908  -0.50640  -0.49491  -0.46251  -0.42413
 Alpha  occ. eigenvalues --   -0.41901  -0.35088  -0.34030  -0.30267  -0.27510
 Alpha virt. eigenvalues --   -0.00677   0.06066   0.10356   0.12026   0.17284
 Alpha virt. eigenvalues --    0.20249   0.22873   0.28925   0.36374   0.51821
 Alpha virt. eigenvalues --    0.52382   0.53789   0.60485   0.64943   0.67272

 Mulliken charges:
               1
     1  O   -0.467899
     2  C    0.531601
     3  O   -0.470355
     4  C    0.033717
     5  O   -0.541640
     6  H    0.331782
     7  H    0.129734
     8  H    0.129731
     9  H    0.323329
 Sum of Mulliken charges =  -0.00000

 Dipole moment (field-independent basis, Debye):
    X=              2.2441    Y=             -0.7833    Z=              0.0003  Tot=              2.3769
 Quadrupole moment (field-independent basis, Debye-Ang):
   XX=            -28.2152   YY=            -30.1697   ZZ=            -27.8925
   XY=             -0.1056   XZ=             -0.0006   YZ=              0.0000

  Exact polarizability:  35.270  -0.773  34.721   0.000   0.000  20.260
 Approx polarizability:  45.421  -3.488  56.706   0.000   0.001  27.910

                      1                      2                      3
                      A                      A                      A
 Frequencies --     59.9030               284.6494               310.2878
 Red. masses --      2.9355                 6.1110                 1.1089
 Frc consts  --      0.0062                 0.2917                 0.0629
 IR Inten    --     15.2777                 9.0160                76.1259

                      4                      5                      6
                      A                      A                      A
 Frequencies --    472.8572               503.6307               650.2017
 Red. masses --      5.6929                 1.6301                 4.8643
 Frc consts  --      0.7500                 0.2436                 1.2116
 IR Inten    --     26.5451                 4.1754                17.5959

                      7                      8                      9
                      A                      A                      A
 Frequencies --    666.4464               860.8467              1046.3939
 Red. masses --      1.4532                 3.3445                 2.0840
 Frc consts  --      0.3803                 1.4603                 1.3444
 IR Inten    --    137.9295                41.0498                 1.1368

                     10                     11                     12
                      A                      A                      A
 Frequencies --   1128.8383              1188.7612              1248.6980
 Red. masses --      4.6355                 2.1020                 1.0789
 Frc consts  --      3.4802                 1.7502                 0.9911
 IR Inten    --    219.7298               138.2770                 0.6775

                     13                     14                     15
                      A                      A                      A
 Frequencies --   1304.3677              1370.0124              1482.3774
 Red. masses --      1.3447                 1.8263                 1.6657
 Frc consts  --      1.3479                 2.0196                 2.1565
 IR Inten    --     24.4002               143.1722                18.3337

                     16                     17                     18
                      A                      A                      A
 Frequencies --   1512.6050              1835.5437              3009.7537
 Red. masses --      1.0849                 9.8406                 1.0577
 Frc consts  --      1.4624                19.5344                 5.6452
 IR Inten    --      4.8456               262.9098                30.8398

                     19                     20                     21
                      A                      A                      A
 Frequencies --   3032.5964              3727.2021              3751.1986
 Red. masses --      1.1040                 1.0653                 1.0643
 Frc consts  --      5.9822                 8.7197                 8.8237
 IR Inten    --     27.0526                69.5351                57.0711

 - Thermochemistry -
 -------------------
 Temperature   298.150 Kelvin.  Pressure   1.00000 Atm.
 Atom     1 has atomic number  8 and mass  15.99491

 Molecular mass:    76.01604 amu.
 Principal axes and moments of inertia in atomic units:
                           1         2         3
     Eigenvalues --   169.09334 445.34658 603.22397
           X            0.99998   0.00575  -0.00000
           Y           -0.00575   0.99998  -0.00000
           Z            0.00000   0.00000   1.00000
 This molecule is an asymmetric top.
 Rotational symmetry number  1.
 Rotational temperatures (Kelvin)      0.51222     0.19449     0.14358
 Rotational constants (GHZ):          10.67305     4.05244     2.99183
 Zero-point vibrational energy     176133.2 (Joules/Mol)
                                   42.09684 (Kcal/Mol)
 Warning -- explicit consideration of   5 degrees of freedom as
           vibrations may cause significant error
 Vibrational temperatures:     86.19   409.55   446.43   680.34   724.61
          (Kelvin)            935.49   958.87  1238.56  1505.53  1624.14
                             1710.36  1796.60  1876.69  1971.14  2132.81
                             2176.30  2640.93  4330.36  4363.22  5362.61
                             5397.13

 Zero-point correction=                           0.067086 (Hartree/Particle)
 Thermal correction to Energy=                    0.072485
 Thermal correction to Enthalpy=                  0.073429
 Thermal correction to Gibbs Free Energy=         0.038224
 Sum of electronic and zero-point Energies=           -304.232782
 Sum of electronic and thermal Energies=              -304.227383
 Sum of electronic and thermal Enthalpies=            -304.226438
 Sum of electronic and thermal Free Energies=         -304.261643

                     E (Thermal)             CV                S
                      KCal/Mol        Cal/Mol-Kelvin    Cal/Mol-Kelvin
 Total                   45.485             17.631             74.094
 Electronic               0.000              0.000              0.000
 Translational            0.889              2.981             38.901
 Rotational               0.889              2.981             25.322
 Vibrational             43.707             11.670              9.872
 Vibration     1          0.597              1.973              4.460
 Vibration     2          0.683              1.702              1.506
 Vibration     3          0.699              1.654              1.361
 Vibration     4          0.830              1.310              0.730
 Vibration     5          0.859              1.242              0.649

 Optimization completed.
    -- Stationary point found.
 Normal termination of Gaussian 09 at Thu Sep  8 15:07:17 2022.
