 Gaussian 09, Revision E.01,
 Gaussian 09:  ES64L-G09RevE.01 30-Nov-2015

 ----------------------------
 #P OPT Freq B3LYP/6-31G(d,p)
 ----------------------------

 --------
 Frag_546
 --------
 Symbolic Z-matrix:
 Charge =  0 Multiplicity = 1

 SCF Done:  E(RB3LYP) =  -263.346678497     A.U. after   14 cycles
 SCF Done:  E(RB3LYP) =  -263.346787940     A.U. after    9 cycles
 SCF Done:  E(RB3LYP) =  -263.346793538     A.U. after    8 cycles
 SCF Done:  E(RB3LYP) =  -263.346794513     A.U. after    8 cycles
 SCF Done:  E(RB3LYP) =  -263.346794422     A.U. after    8 cycles
 Optimization completed.
    -- Stationary point found.
 Normal termination of Gaussian 09 at Thu Sep  8 15:15:40 2022.

 ----------------------------------------------------------------------
 #P Geom=AllCheck Guess=TCheck SCRF=Check GenChk RB3LYP/6-31G(d,p) Freq
 ----------------------------------------------------------------------

 Structure from the checkpoint file:  "B3LYP6-31Gdp.Frag_546.chk"
 --------
 Frag_546
 --------
 Charge =  0 Multiplicity = 1

                         Standard orientation:
 ---------------------------------------------------------------------
 Center     Atomic      Atomic             Coordinates (Angstroms)
 Number     Number       Type             X           Y           Z
 ---------------------------------------------------------------------
      1          6           0        1.841016   -0.098111   -0.000209
      2          7           0        0.735645   -0.729153    0.000345
      3          6           0       -0.436370    0.131587    0.000725
      4          7           0       -1.557189   -0.630938   -0.000401
      5          8           0       -0.425299    1.351097   -0.000044
      6          1           0        2.770740   -0.667454   -0.000785
      7          1           0        1.892335    0.995950   -0.000870
      8          1           0       -2.458815   -0.182993   -0.000711
      9          1           0       -1.478937   -1.634497    0.000009
 ---------------------------------------------------------------------

 SCF Done:  E(RB3LYP) =  -263.346794422     A.U. after    1 cycles

 The electronic state is 1-A.
 Alpha  occ. eigenvalues --  -19.11778 -14.36388 -14.34465 -10.31126 -10.24416
 Alpha  occ. eigenvalues --   -1.04626  -0.92661  -0.90199  -0.67117  -0.57589
 Alpha  occ. eigenvalues --   -0.54668  -0.50484  -0.43079  -0.43033  -0.42813
 Alpha  occ. eigenvalues --   -0.32491  -0.30286  -0.27377  -0.25189
 Alpha virt. eigenvalues --   -0.04870   0.08115   0.08429   0.12515   0.13511
 Alpha virt. eigenvalues --    0.17227   0.23505   0.29899   0.34369   0.37402
 Alpha virt. eigenvalues --    0.50997   0.57439   0.58401   0.59295   0.62147

 Mulliken charges:
               1
     1  C    0.013091
     2  N   -0.406679
     3  C    0.672620
     4  N   -0.604623
     5  O   -0.495524
     6  H    0.115386
     7  H    0.136067
     8  H    0.282538
     9  H    0.287123
 Sum of Mulliken charges =  -0.00000

 Dipole moment (field-independent basis, Debye):
    X=             -0.3734    Y=             -1.9440    Z=              0.0002  Tot=              1.9796
 Quadrupole moment (field-independent basis, Debye-Ang):
   XX=            -18.6346   YY=            -31.9355   ZZ=            -29.4668
   XY=              3.6767   XZ=             -0.0022   YZ=             -0.0001

  Exact polarizability:  53.523   4.448  37.597  -0.001  -0.003  16.156
 Approx polarizability:  73.681  11.620  63.833   0.001  -0.009  23.299

                      1                      2                      3
                      A                      A                      A
 Frequencies --     86.4709               254.4089               331.6667
 Red. masses --      3.4530                 1.1930                 3.1181
 Frc consts  --      0.0152                 0.0455                 0.2021
 IR Inten    --     16.7235               247.3176                19.4038

                      4                      5                      6
                      A                      A                      A
 Frequencies --    482.5767               551.5996               646.2463
 Red. masses --      2.9716                 1.3972                 1.1616
 Frc consts  --      0.4077                 0.2505                 0.2858
 IR Inten    --      4.4710                 9.0328                 4.7010

                      7                      8                      9
                      A                      A                      A
 Frequencies --    651.6547               819.8516               871.8524
 Red. masses --      4.4987                 3.6946                 2.6712
 Frc consts  --      1.1256                 1.4632                 1.1963
 IR Inten    --      4.7345                29.5543                11.6942

                     10                     11                     12
                      A                      A                      A
 Frequencies --   1103.2596              1116.9277              1233.5525
 Red. masses --      1.8463                 1.3534                 1.5686
 Frc consts  --      1.3241                 0.9948                 1.4063
 IR Inten    --      0.0103                12.2125                 4.1238

                     13                     14                     15
                      A                      A                      A
 Frequencies --   1349.0863              1474.2629              1607.1369
 Red. masses --      3.3447                 1.1554                 1.3153
 Frc consts  --      3.5866                 1.4796                 2.0015
 IR Inten    --    195.5943                41.2289               159.3887

                     16                     17                     18
                      A                      A                      A
 Frequencies --   1719.5308              1824.6624              3071.0884
 Red. masses --      6.6244                 9.2996                 1.0568
 Frc consts  --     11.5403                18.2423                 5.8723
 IR Inten    --     40.3384               333.9946                20.3069

                     19                     20                     21
                      A                      A                      A
 Frequencies --   3181.8888              3622.0497              3767.6959
 Red. masses --      1.1162                 1.0443                 1.1068
 Frc consts  --      6.6584                 8.0721                 9.2567
 IR Inten    --     14.2697                64.2415                58.5398

 - Thermochemistry -
 -------------------
 Temperature   298.150 Kelvin.  Pressure   1.00000 Atm.
 Atom     1 has atomic number  6 and mass  12.00000

 Molecular mass:    72.03236 amu.
 Principal axes and moments of inertia in atomic units:
                           1         2         3
     Eigenvalues --   166.23458 382.65811 548.89260
           X            0.99888   0.04726  -0.00002
           Y           -0.04726   0.99888  -0.00001
           Z            0.00002   0.00001   1.00000
 This molecule is an asymmetric top.
 Rotational symmetry number  1.
 Rotational temperatures (Kelvin)      0.52103     0.22635     0.15780
 Rotational constants (GHZ):          10.85659     4.71633     3.28797
 Zero-point vibrational energy     178049.0 (Joules/Mol)
                                   42.55473 (Kcal/Mol)
 Warning -- explicit consideration of   5 degrees of freedom as
           vibrations may cause significant error
 Vibrational temperatures:    124.41   366.04   477.19   694.32   793.63
          (Kelvin)            929.80   937.58  1179.58  1254.40  1587.34
                             1607.01  1774.80  1941.03  2121.13  2312.31
                             2474.02  2625.28  4418.61  4578.02  5211.32
                             5420.87

 Zero-point correction=                           0.067815 (Hartree/Particle)
 Thermal correction to Energy=                    0.073183
 Thermal correction to Enthalpy=                  0.074128
 Thermal correction to Gibbs Free Energy=         0.039427
 Sum of electronic and zero-point Energies=           -263.278979
 Sum of electronic and thermal Energies=              -263.273611
 Sum of electronic and thermal Enthalpies=            -263.272667
 Sum of electronic and thermal Free Energies=         -263.307368

                     E (Thermal)             CV                S
                      KCal/Mol        Cal/Mol-Kelvin    Cal/Mol-Kelvin
 Total                   45.923             17.774             73.034
 Electronic               0.000              0.000              0.000
 Translational            0.889              2.981             38.740
 Rotational               0.889              2.981             25.060
 Vibrational             44.146             11.813              9.234
 Vibration     1          0.601              1.959              3.738
 Vibration     2          0.665              1.755              1.700
 Vibration     3          0.714              1.612              1.252
 Vibration     4          0.839              1.289              0.703
 Vibration     5          0.907              1.136              0.541

 Optimization completed.
    -- Stationary point found.
 Normal termination of Gaussian 09 at Thu Sep  8 15:15:47 2022.
