 Gaussian 09, Revision E.01,
 Gaussian 09:  ES64L-G09RevE.01 30-Nov-2015

 ----------------------------
 #P OPT Freq B3LYP/6-31G(d,p)
 ----------------------------

 --------
 Frag_783
 --------
 Symbolic Z-matrix:
 Charge =  0 Multiplicity = 1

 SCF Done:  E(RB3LYP) =  -363.042866538     A.U. after   14 cycles
 SCF Done:  E(RB3LYP) =  -363.042933031     A.U. after   11 cycles
 SCF Done:  E(RB3LYP) =  -363.042936244     A.U. after    8 cycles
 SCF Done:  E(RB3LYP) =  -363.042937652     A.U. after    8 cycles
 SCF Done:  E(RB3LYP) =  -363.042938314     A.U. after    8 cycles
 SCF Done:  E(RB3LYP) =  -363.042938686     A.U. after    8 cycles
 SCF Done:  E(RB3LYP) =  -363.042938891     A.U. after    8 cycles
 SCF Done:  E(RB3LYP) =  -363.042938970     A.U. after    7 cycles
 SCF Done:  E(RB3LYP) =  -363.042939030     A.U. after    7 cycles
 Optimization completed.
    -- Stationary point found.
 Normal termination of Gaussian 09 at Thu Sep  8 15:12:49 2022.

 ----------------------------------------------------------------------
 #P Geom=AllCheck Guess=TCheck SCRF=Check GenChk RB3LYP/6-31G(d,p) Freq
 ----------------------------------------------------------------------

 Structure from the checkpoint file:  "B3LYP6-31Gdp.Frag_783.chk"
 --------
 Frag_783
 --------
 Charge =  0 Multiplicity = 1

                         Standard orientation:
 ---------------------------------------------------------------------
 Center     Atomic      Atomic             Coordinates (Angstroms)
 Number     Number       Type             X           Y           Z
 ---------------------------------------------------------------------
      1          6           0        1.823925   -0.971656    0.049493
      2          6           0        0.931794    0.239424   -0.069595
      3          7           0        1.445817    1.396744   -0.198923
      4          6           0       -0.588694   -0.020447    0.026135
      5          6           0       -1.100886   -0.988156   -1.038567
      6          8           0       -1.216218    1.241256   -0.084119
      7          8           0       -0.894627   -0.616565    1.280368
      8          1           0        2.856622   -0.644619    0.175854
      9          1           0        1.764390   -1.591845   -0.852642
     10          1           0        1.521990   -1.599463    0.892987
     11          1           0        0.696484    2.093332   -0.269919
     12          1           0       -0.619215   -1.963967   -0.952727
     13          1           0       -0.916726   -0.580528   -2.035253
     14          1           0       -2.177958   -1.134891   -0.905263
     15          1           0       -2.167914    1.093445    0.001381
     16          1           0       -0.588461   -0.001191    1.963255
 ---------------------------------------------------------------------

 SCF Done:  E(RB3LYP) =  -363.042939030     A.U. after    1 cycles

 The electronic state is 1-A.
 Alpha  occ. eigenvalues --  -19.16502 -19.16165 -14.30904 -10.30018 -10.23074
 Alpha  occ. eigenvalues --  -10.18922 -10.17997  -1.07539  -1.00402  -0.89653
 Alpha  occ. eigenvalues --   -0.76227  -0.71999  -0.64345  -0.56025  -0.54356
 Alpha  occ. eigenvalues --   -0.50453  -0.45930  -0.43264  -0.41927  -0.40349
 Alpha  occ. eigenvalues --   -0.39497  -0.38933  -0.38378  -0.34343  -0.32390
 Alpha  occ. eigenvalues --   -0.29936  -0.29245  -0.24701
 Alpha virt. eigenvalues --    0.00250   0.06301   0.09075   0.11488   0.13952
 Alpha virt. eigenvalues --    0.15853   0.16113   0.16626   0.18064   0.19141
 Alpha virt. eigenvalues --    0.21791   0.23820   0.24500   0.26097   0.31737

 Mulliken charges:
               1
     1  C   -0.358179
     2  C    0.260427
     3  N   -0.524691
     4  C    0.417179
     5  C   -0.321230
     6  O   -0.552333
     7  O   -0.529947
     8  H    0.134779
     9  H    0.121952
    10  H    0.126055
    11  H    0.248862
    12  H    0.124379
    13  H    0.124677
    14  H    0.108374
    15  H    0.311095
    16  H    0.308600
 Sum of Mulliken charges =  -0.00000

 Dipole moment (field-independent basis, Debye):
    X=             -2.1830    Y=             -1.0357    Z=              0.1888  Tot=              2.4236
 Quadrupole moment (field-independent basis, Debye-Ang):
   XX=            -42.6624   YY=            -44.8252   ZZ=            -40.0895
   XY=             -5.5558   XZ=              1.5277   YZ=              2.8216

  Exact polarizability:  58.756   1.426  60.801   0.626  -0.425  45.585
 Approx polarizability:  77.044   7.023  93.486  -1.323  -3.809  64.154

                      1                      2                      3
                      A                      A                      A
 Frequencies --     54.8571               167.4838               221.8583
 Red. masses --      3.8278                 1.0613                 1.8089
 Frc consts  --      0.0068                 0.0175                 0.0525
 IR Inten    --      0.2707                 0.1688                 0.3024

                      4                      5                      6
                      A                      A                      A
 Frequencies --    270.5235               274.8053               287.4603
 Red. masses --      2.1332                 1.7614                 1.1111
 Frc consts  --      0.0920                 0.0784                 0.0541
 IR Inten    --      0.8299                 1.5069               123.6106

                      7                      8                      9
                      A                      A                      A
 Frequencies --    369.8852               391.5970               417.7728
 Red. masses --      2.8347                 2.4607                 2.1591
 Frc consts  --      0.2285                 0.2223                 0.2220
 IR Inten    --      5.6755                10.4476                34.0651

                     10                     11                     12
                      A                      A                      A
 Frequencies --    460.8573               553.5635               568.7655
 Red. masses --      2.1036                 3.0616                 3.3524
 Frc consts  --      0.2632                 0.5528                 0.6390
 IR Inten    --     28.4647                55.3909                46.4455

                     13                     14                     15
                      A                      A                      A
 Frequencies --    601.8653               707.7470               905.4370
 Red. masses --      2.5416                 3.6513                 2.0181
 Frc consts  --      0.5424                 1.0776                 0.9748
 IR Inten    --     21.7456                 1.8227                23.6436

                     16                     17                     18
                      A                      A                      A
 Frequencies --    943.2747               965.9926               994.4053
 Red. masses --      2.0936                 1.8156                 1.7112
 Frc consts  --      1.0975                 0.9982                 0.9970
 IR Inten    --     87.2824                54.2988                 6.4831

                     19                     20                     21
                      A                      A                      A
 Frequencies --   1060.2293              1092.0534              1112.4272
 Red. masses --      1.5727                 1.3867                 1.7545
 Frc consts  --      1.0416                 0.9744                 1.2792
 IR Inten    --     37.4587                 8.2770                29.8349

                     22                     23                     24
                      A                      A                      A
 Frequencies --   1145.4229              1187.1851              1339.0131
 Red. masses --      1.7842                 2.9502                 1.5545
 Frc consts  --      1.3792                 2.4499                 1.6421
 IR Inten    --    110.5417                88.7328                 5.7955

                     25                     26                     27
                      A                      A                      A
 Frequencies --   1368.3260              1394.6188              1425.8303
 Red. masses --      1.3709                 1.5685                 1.4997
 Frc consts  --      1.5123                 1.7974                 1.7963
 IR Inten    --    142.4470                24.9714                14.0602

                     28                     29                     30
                      A                      A                      A
 Frequencies --   1428.9276              1490.9514              1492.6252
 Red. masses --      1.5317                 1.0508                 1.0601
 Frc consts  --      1.8426                 1.3762                 1.3916
 IR Inten    --     59.7140                 6.6771                 7.0132

                     31                     32                     33
                      A                      A                      A
 Frequencies --   1499.9627              1515.4239              1741.9670
 Red. masses --      1.0524                 1.0696                 9.0870
 Frc consts  --      1.3950                 1.4473                16.2462
 IR Inten    --      4.2288                 3.0324                40.8613

                     34                     35                     36
                      A                      A                      A
 Frequencies --   3049.9380              3057.4396              3112.8959
 Red. masses --      1.0401                 1.0383                 1.0957
 Frc consts  --      5.7003                 5.7188                 6.2557
 IR Inten    --      7.7474                12.4279                12.0575

                     37                     38                     39
                      A                      A                      A
 Frequencies --   3133.1240              3157.8750              3164.3145
 Red. masses --      1.0990                 1.1041                 1.1028
 Frc consts  --      6.3563                 6.4869                 6.5059
 IR Inten    --     19.0398                11.8435                 8.2151

                     40                     41                     42
                      A                      A                      A
 Frequencies --   3443.6169              3784.1615              3814.5173
 Red. masses --      1.0724                 1.0657                 1.0659
 Frc consts  --      7.4926                 8.9917                 9.1375
 IR Inten    --      2.8033                19.1289                25.5182

 - Thermochemistry -
 -------------------
 Temperature   298.150 Kelvin.  Pressure   1.00000 Atm.
 Atom     1 has atomic number  6 and mass  12.00000

 Molecular mass:   103.06333 amu.
 Principal axes and moments of inertia in atomic units:
                           1         2         3
     Eigenvalues --   533.09975 754.94343 923.79959
           X            0.99751  -0.06449   0.02870
           Y            0.06239   0.99566   0.06900
           Z           -0.03303  -0.06704   0.99720
 This molecule is an asymmetric top.
 Rotational symmetry number  1.
 Warning -- assumption of classical behavior for rotation
           may cause significant error
 Rotational temperatures (Kelvin)      0.16247     0.11473     0.09376
 Rotational constants (GHZ):           3.38537     2.39056     1.95361
 Zero-point vibrational energy     353921.2 (Joules/Mol)
                                   84.58919 (Kcal/Mol)
 Warning -- explicit consideration of  13 degrees of freedom as
           vibrations may cause significant error
 Vibrational temperatures:     78.93   240.97   319.20   389.22   395.38
          (Kelvin)            413.59   532.18   563.42   601.08   663.07
                              796.45   818.33   865.95  1018.29  1302.72
                             1357.16  1389.85  1430.73  1525.43  1571.22
                             1600.53  1648.01  1708.09  1926.54  1968.71
                             2006.54  2051.45  2055.91  2145.14  2147.55
                             2158.11  2180.35  2506.30  4388.18  4398.97
                             4478.76  4507.86  4543.47  4552.74  4954.59
                             5444.56  5488.23

 Zero-point correction=                           0.134801 (Hartree/Particle)
 Thermal correction to Energy=                    0.143141
 Thermal correction to Enthalpy=                  0.144085
 Thermal correction to Gibbs Free Energy=         0.102593
 Sum of electronic and zero-point Energies=           -362.908138
 Sum of electronic and thermal Energies=              -362.899798
 Sum of electronic and thermal Enthalpies=            -362.898854
 Sum of electronic and thermal Free Energies=         -362.940346

                     E (Thermal)             CV                S
                      KCal/Mol        Cal/Mol-Kelvin    Cal/Mol-Kelvin
 Total                   89.822             30.581             87.327
 Electronic               0.000              0.000              0.000
 Translational            0.889              2.981             39.808
 Rotational               0.889              2.981             27.411
 Vibrational             88.045             24.619             20.108
 Vibration     1          0.596              1.976              4.634
 Vibration     2          0.624              1.882              2.464
 Vibration     3          0.648              1.808              1.944
 Vibration     4          0.674              1.728              1.593
 Vibration     5          0.677              1.720              1.566
 Vibration     6          0.685              1.697              1.489
 Vibration     7          0.742              1.534              1.080
 Vibration     8          0.759              1.488              0.994
 Vibration     9          0.781              1.432              0.900
 Vibration    10          0.819              1.337              0.764
 Vibration    11          0.909              1.132              0.537
 Vibration    12          0.925              1.099              0.507
 Vibration    13          0.960              1.028              0.446

 Normal termination of Gaussian 09 at Thu Sep  8 15:13:04 2022.
