 Gaussian 09, Revision E.01,
 Gaussian 09:  ES64L-G09RevE.01 30-Nov-2015

 ----------------------------
 #P OPT Freq B3LYP/6-31G(d,p)
 ----------------------------

 ---------
 Frag_1103
 ---------
 Symbolic Z-matrix:
 Charge =  0 Multiplicity = 1

 SCF Done:  E(RB3LYP) =  -301.676768553     A.U. after   12 cycles
 SCF Done:  E(RB3LYP) =  -301.676826485     A.U. after    8 cycles
 SCF Done:  E(RB3LYP) =  -301.676829297     A.U. after    7 cycles
 SCF Done:  E(RB3LYP) =  -301.676829966     A.U. after    7 cycles
 Optimization completed.
    -- Stationary point found.
 Normal termination of Gaussian 09 at Thu Sep  8 14:51:40 2022.

 ----------------------------------------------------------------------
 #P Geom=AllCheck Guess=TCheck SCRF=Check GenChk RB3LYP/6-31G(d,p) Freq
 ----------------------------------------------------------------------

 Structure from the checkpoint file:  "B3LYP6-31Gdp.Frag_1103.chk"
 ---------
 Frag_1103
 ---------
 Charge =  0 Multiplicity = 1

                         Standard orientation:
 ---------------------------------------------------------------------
 Center     Atomic      Atomic             Coordinates (Angstroms)
 Number     Number       Type             X           Y           Z
 ---------------------------------------------------------------------
      1          7           0       -1.255696   -0.020525    0.714410
      2          6           0        0.000009   -0.000007   -0.019987
      3          7           0        1.255868    0.021155    0.714114
      4          8           0       -0.078220    1.170639   -0.791902
      5          8           0        0.078004   -1.171324   -0.790936
      6          1           0       -1.202398   -0.693033    1.473205
      7          1           0       -1.450459    0.899373    1.098325
      8          1           0        1.202677    0.694093    1.472534
      9          1           0        1.450870   -0.898487    1.098513
     10          1           0        0.803082    1.267714   -1.180314
     11          1           0       -0.803301   -1.268557   -1.179301
 ---------------------------------------------------------------------

 SCF Done:  E(RB3LYP) =  -301.676829966     A.U. after    1 cycles

 The electronic state is 1-A.
 Alpha  occ. eigenvalues --  -19.14422 -19.14421 -14.32091 -14.32090 -10.33475
 Alpha  occ. eigenvalues --   -1.07495  -0.99528  -0.88862  -0.85238  -0.62203
 Alpha  occ. eigenvalues --   -0.56671  -0.50508  -0.49169  -0.45019  -0.44148
 Alpha  occ. eigenvalues --   -0.40325  -0.35008  -0.31093  -0.29532  -0.27978
 Alpha  occ. eigenvalues --   -0.23279
 Alpha virt. eigenvalues --    0.06440   0.11333   0.12527   0.12823   0.14096
 Alpha virt. eigenvalues --    0.17136   0.24469   0.25191   0.28848   0.30094
 Alpha virt. eigenvalues --    0.58051   0.61261   0.65562   0.67512   0.69294

 Mulliken charges:
               1
     1  N   -0.596401
     2  C    0.646734
     3  N   -0.596424
     4  O   -0.530065
     5  O   -0.530082
     6  H    0.237661
     7  H    0.249432
     8  H    0.237667
     9  H    0.249444
    10  H    0.316013
    11  H    0.316020
 Sum of Mulliken charges =   0.00000

 Dipole moment (field-independent basis, Debye):
    X=              0.0006    Y=              0.0008    Z=              2.2898  Tot=              2.2898
 Quadrupole moment (field-independent basis, Debye-Ang):
   XX=            -31.8455   YY=            -29.4628   ZZ=            -24.0993
   XY=              2.2688   XZ=              0.0002   YZ=              0.0023

  Exact polarizability:  32.134   0.181  32.795   0.000  -0.000  31.524
 Approx polarizability:  42.695  -1.124  46.188   0.001  -0.002  40.544

                      1                      2                      3
                      A                      A                      A
 Frequencies --    220.7385               253.3709               349.4577
 Red. masses --      1.1504                 1.1060                 1.8442
 Frc consts  --      0.0330                 0.0418                 0.1327
 IR Inten    --     19.5130                 0.6523                36.6445

                      4                      5                      6
                      A                      A                      A
 Frequencies --    424.4295               444.3030               498.3282
 Red. masses --      2.3721                 1.1843                 1.8999
 Frc consts  --      0.2518                 0.1377                 0.2780
 IR Inten    --     40.6247                73.1166                13.8334

                      7                      8                      9
                      A                      A                      A
 Frequencies --    549.5899               578.0847               579.2929
 Red. masses --      3.0894                 3.0570                 2.8501
 Frc consts  --      0.5498                 0.6019                 0.5635
 IR Inten    --      9.7428                87.4247                56.9210

                     10                     11                     12
                      A                      A                      A
 Frequencies --    798.0621               832.4069               871.6862
 Red. masses --      1.2664                 4.1115                 2.0000
 Frc consts  --      0.4752                 1.6785                 0.8954
 IR Inten    --    414.9727                 0.5376                 7.5689

                     13                     14                     15
                      A                      A                      A
 Frequencies --    986.5265              1025.9941              1108.1626
 Red. masses --      2.5212                 2.4136                 1.4605
 Frc consts  --      1.4457                 1.4970                 1.0567
 IR Inten    --    142.9275               139.5497               119.1839

                     16                     17                     18
                      A                      A                      A
 Frequencies --   1241.0350              1334.0369              1385.9338
 Red. masses --      1.6047                 1.6978                 2.0316
 Frc consts  --      1.4562                 1.7802                 2.2992
 IR Inten    --    180.3130                10.6974                65.9277

                     19                     20                     21
                      A                      A                      A
 Frequencies --   1428.2901              1640.1533              1645.3047
 Red. masses --      1.6461                 1.0985                 1.1645
 Frc consts  --      1.9785                 1.7410                 1.8573
 IR Inten    --    208.5991                54.7553                45.1124

                     22                     23                     24
                      A                      A                      A
 Frequencies --   3516.4584              3519.3567              3618.0009
 Red. masses --      1.0491                 1.0479                 1.0952
 Frc consts  --      7.6430                 7.6473                 8.4464
 IR Inten    --      2.6474                 0.6443                 0.5326

                     25                     26                     27
                      A                      A                      A
 Frequencies --   3619.2293              3808.0441              3810.3074
 Red. masses --      1.0946                 1.0650                 1.0648
 Frc consts  --      8.4473                 9.0990                 9.1087
 IR Inten    --      4.7800                57.5393                17.0066

 - Thermochemistry -
 -------------------
 Temperature   298.150 Kelvin.  Pressure   1.00000 Atm.
 Atom     1 has atomic number  7 and mass  14.00307

 Molecular mass:    78.04293 amu.
 Principal axes and moments of inertia in atomic units:
                           1         2         3
     Eigenvalues --   332.88004 346.40607 366.15532
           X            0.95360   0.30106   0.00001
           Y           -0.30106   0.95360   0.00028
           Z            0.00007  -0.00027   1.00000
 This molecule is an asymmetric top.
 Rotational symmetry number  1.
 Rotational temperatures (Kelvin)      0.26020     0.25004     0.23655
 Rotational constants (GHZ):           5.42160     5.20990     4.92890
 Zero-point vibrational energy     239771.0 (Joules/Mol)
                                   57.30665 (Kcal/Mol)
 Warning -- explicit consideration of   9 degrees of freedom as
           vibrations may cause significant error
 Vibrational temperatures:    317.59   364.54   502.79   610.66   639.25
          (Kelvin)            716.98   790.74   831.73   833.47  1148.23
                             1197.65  1254.16  1419.39  1476.17  1594.40
                             1785.57  1919.38  1994.05  2054.99  2359.81
                             2367.22  5059.39  5063.56  5205.49  5207.26
                             5478.92  5482.18

 Zero-point correction=                           0.091324 (Hartree/Particle)
 Thermal correction to Energy=                    0.097192
 Thermal correction to Enthalpy=                  0.098136
 Thermal correction to Gibbs Free Energy=         0.063059
 Sum of electronic and zero-point Energies=           -301.585506
 Sum of electronic and thermal Energies=              -301.579638
 Sum of electronic and thermal Enthalpies=            -301.578694
 Sum of electronic and thermal Free Energies=         -301.613771

                     E (Thermal)             CV                S
                      KCal/Mol        Cal/Mol-Kelvin    Cal/Mol-Kelvin
 Total                   60.989             21.861             73.827
 Electronic               0.000              0.000              0.000
 Translational            0.889              2.981             38.979
 Rotational               0.889              2.981             25.249
 Vibrational             59.212             15.899              9.599
 Vibration     1          0.647              1.810              1.953
 Vibration     2          0.665              1.757              1.707
 Vibration     3          0.727              1.576              1.169
 Vibration     4          0.786              1.417              0.877
 Vibration     5          0.804              1.373              0.813
 Vibration     6          0.854              1.254              0.662
 Vibration     7          0.905              1.141              0.545
 Vibration     8          0.935              1.079              0.489
 Vibration     9          0.936              1.076              0.487

 Normal termination of Gaussian 09 at Thu Sep  8 14:51:49 2022.
