 Gaussian 09, Revision E.01,
 Gaussian 09:  ES64L-G09RevE.01 30-Nov-2015

 --------------------------------
 #P OPT=calcfc Freq B3LYP/6-31G**
 --------------------------------

 --------
 Frag_324
 --------
 Symbolic Z-matrix:
 Charge =  0 Multiplicity = 1

 SCF Done:  E(RB3LYP) =  -298.799023471     A.U. after   14 cycles
 SCF Done:  E(RB3LYP) =  -298.825991892     A.U. after   13 cycles
 SCF Done:  E(RB3LYP) =  -298.827134665     A.U. after   14 cycles
 SCF Done:  E(RB3LYP) =  -298.817135049     A.U. after   14 cycles
 SCF Done:  E(RB3LYP) =  -298.828755285     A.U. after   11 cycles
 SCF Done:  E(RB3LYP) =  -298.798587922     A.U. after   14 cycles
 SCF Done:  E(RB3LYP) =  -298.829666024     A.U. after   10 cycles
 SCF Done:  E(RB3LYP) =  -298.830748508     A.U. after   12 cycles
 SCF Done:  E(RB3LYP) =  -298.830930294     A.U. after   12 cycles
 SCF Done:  E(RB3LYP) =  -298.831015999     A.U. after   11 cycles
 SCF Done:  E(RB3LYP) =  -298.831054974     A.U. after   11 cycles
 SCF Done:  E(RB3LYP) =  -298.831061644     A.U. after   10 cycles
 SCF Done:  E(RB3LYP) =  -298.831062818     A.U. after    9 cycles
 Optimization completed.
    -- Stationary point found.
 Normal termination of Gaussian 09 at Fri Sep 10 18:56:51 2021.

 ----------------------------------------------------------------------
 #P Geom=AllCheck Guess=TCheck SCRF=Check GenChk RB3LYP/6-31G(d,p) Freq
 ----------------------------------------------------------------------

 Structure from the checkpoint file:  "/public/home/users/caep010/.cache/gau_scr/Gau-104358.chk"
 --------
 Frag_324
 --------
 Charge =  0 Multiplicity = 1

                         Standard orientation:
 ---------------------------------------------------------------------
 Center     Atomic      Atomic             Coordinates (Angstroms)
 Number     Number       Type             X           Y           Z
 ---------------------------------------------------------------------
      1          7           0        1.386783   -1.189252   -0.223934
      2          6           0        0.753949   -0.095426   -0.020666
      3          7           0        1.278068    1.176595    0.142139
      4          6           0       -0.761871   -0.157361    0.004429
      5          7           0       -1.425476   -1.227619    0.198586
      6          7           0       -1.402137    1.077714   -0.118890
      7          1           0        2.400142   -1.052849   -0.185610
      8          1           0        0.712955    1.821519    0.678959
      9          1           0        2.271468    1.239045    0.318594
     10          1           0       -0.761894   -1.994688    0.334021
     11          1           0       -1.028736    1.676978   -0.845746
     12          1           0       -2.407071    0.964644   -0.188098
 ---------------------------------------------------------------------

 SCF Done:  E(RB3LYP) =  -298.831062818     A.U. after    1 cycles

 The electronic state is 1-A.
 Alpha  occ. eigenvalues --  -14.36324 -14.34752 -14.30777 -14.29477 -10.26965
 Alpha  occ. eigenvalues --  -10.25690  -0.97051  -0.92467  -0.86809  -0.83737
 Alpha  occ. eigenvalues --   -0.66125  -0.56372  -0.54825  -0.52228  -0.50254
 Alpha  occ. eigenvalues --   -0.44553  -0.42406  -0.40107  -0.34334  -0.27678
 Alpha  occ. eigenvalues --   -0.26227  -0.25881  -0.23938
 Alpha virt. eigenvalues --   -0.02042   0.06030   0.08985   0.11058   0.12295
 Alpha virt. eigenvalues --    0.13498   0.14915   0.17484   0.27444   0.28836
 Alpha virt. eigenvalues --    0.32961   0.39123   0.47709   0.55333   0.56325

 Mulliken charges:
               1
     1  N   -0.571556
     2  C    0.420841
     3  N   -0.635910
     4  C    0.439017
     5  N   -0.562152
     6  N   -0.637708
     7  H    0.212769
     8  H    0.279907
     9  H    0.261118
    10  H    0.252714
    11  H    0.266781
    12  H    0.274179
 Sum of Mulliken charges =  -0.00000

 Dipole moment (field-independent basis, Debye):
    X=              2.1665    Y=              3.8545    Z=              0.1831  Tot=              4.4255
 Quadrupole moment (field-independent basis, Debye-Ang):
   XX=            -31.0144   YY=            -35.7704   ZZ=            -36.0755
   XY=             -1.4092   XZ=              3.7045   YZ=             -0.9938

  Exact polarizability:  56.184  -0.778  60.502  -1.204  -0.464  23.645
 Approx polarizability:  76.580   0.219 104.510  -4.083  -0.362  34.531

                      1                      2                      3
                      A                      A                      A
 Frequencies --    100.2072               294.3679               327.0735
 Red. masses --      5.1155                 3.6823                 1.4936
 Frc consts  --      0.0303                 0.1880                 0.0941
 IR Inten    --      0.5900                 0.7719                50.5963

                      4                      5                      6
                      A                      A                      A
 Frequencies --    424.8587               445.3399               500.8285
 Red. masses --      3.6411                 1.7023                 1.4186
 Frc consts  --      0.3872                 0.1989                 0.2097
 IR Inten    --      9.4691                18.5365                38.0150

                      7                      8                      9
                      A                      A                      A
 Frequencies --    543.6488               583.5458               621.3653
 Red. masses --      1.7539                 2.5709                 1.4802
 Frc consts  --      0.3054                 0.5158                 0.3367
 IR Inten    --     10.1243                81.3290               163.8715

                     10                     11                     12
                      A                      A                      A
 Frequencies --    719.4316               769.8629               807.0071
 Red. masses --      1.7387                 2.7886                 3.4886
 Frc consts  --      0.5302                 0.9738                 1.3386
 IR Inten    --    160.8328                 7.2588               103.9669

                     13                     14                     15
                      A                      A                      A
 Frequencies --    861.2436               920.3423              1110.3795
 Red. masses --      1.2798                 1.1947                 1.5966
 Frc consts  --      0.5593                 0.5962                 1.1598
 IR Inten    --    129.1429                24.6282                 5.7256

                     16                     17                     18
                      A                      A                      A
 Frequencies --   1120.1063              1129.8339              1182.8109
 Red. masses --      2.0831                 1.4168                 1.3125
 Frc consts  --      1.5398                 1.0656                 1.0819
 IR Inten    --     53.1455                46.1748                50.4970

                     19                     20                     21
                      A                      A                      A
 Frequencies --   1373.3816              1459.2858              1623.1761
 Red. masses --      1.9261                 2.9747                 1.2423
 Frc consts  --      2.1405                 3.7323                 1.9285
 IR Inten    --    140.5972               112.4015               114.2102

                     22                     23                     24
                      A                      A                      A
 Frequencies --   1637.8325              1722.9745              1755.2155
 Red. masses --      1.1631                 7.0787                 6.1870
 Frc consts  --      1.8382                12.3812                11.2304
 IR Inten    --     37.1596               228.8254                27.5804

                     25                     26                     27
                      A                      A                      A
 Frequencies --   3462.4943              3478.1379              3541.2157
 Red. masses --      1.0753                 1.0732                 1.0472
 Frc consts  --      7.5952                 7.6491                 7.7375
 IR Inten    --      6.4149                 8.3160                13.5607

                     28                     29                     30
                      A                      A                      A
 Frequencies --   3561.0266              3652.6274              3680.4590
 Red. masses --      1.0466                 1.0982                 1.1010
 Frc consts  --      7.8197                 8.6330                 8.7872
 IR Inten    --     21.2481                19.6168                23.7978

 - Thermochemistry -
 -------------------
 Temperature   298.150 Kelvin.  Pressure   1.00000 Atm.
 Atom     1 has atomic number  7 and mass  14.00307

 Molecular mass:    86.05925 amu.
 Principal axes and moments of inertia in atomic units:
                           1         2         3
     Eigenvalues --   335.12266 506.34993 818.72915
           X            0.99974  -0.01854   0.01346
           Y            0.01861   0.99981  -0.00508
           Z           -0.01337   0.00533   0.99990
 This molecule is an asymmetric top.
 Rotational symmetry number  1.
 Rotational temperatures (Kelvin)      0.25845     0.17106     0.10579
 Rotational constants (GHZ):           5.38532     3.56422     2.20432
 Zero-point vibrational energy     259649.9 (Joules/Mol)
                                   62.05783 (Kcal/Mol)
 Warning -- explicit consideration of   8 degrees of freedom as
           vibrations may cause significant error
 Vibrational temperatures:    144.18   423.53   470.59   611.28   640.74
          (Kelvin)            720.58   782.19   839.59   894.00  1035.10
                             1107.66  1161.10  1239.14  1324.17  1597.59
                             1611.58  1625.58  1701.80  1975.99  2099.58
                             2335.39  2356.47  2478.97  2525.36  4981.75
                             5004.26  5095.01  5123.52  5255.31  5295.35

 Zero-point correction=                           0.098895 (Hartree/Particle)
 Thermal correction to Energy=                    0.105058
 Thermal correction to Enthalpy=                  0.106002
 Thermal correction to Gibbs Free Energy=         0.069439
 Sum of electronic and zero-point Energies=           -298.732167
 Sum of electronic and thermal Energies=              -298.726005
 Sum of electronic and thermal Enthalpies=            -298.725061
 Sum of electronic and thermal Free Energies=         -298.761623

                     E (Thermal)             CV                S
                      KCal/Mol        Cal/Mol-Kelvin    Cal/Mol-Kelvin
 Total                   65.925             22.987             76.952
 Electronic               0.000              0.000              0.000
 Translational            0.889              2.981             39.271
 Rotational               0.889              2.981             26.432
 Vibrational             64.147             17.025             11.249
 Vibration     1          0.604              1.949              3.450
 Vibration     2          0.689              1.684              1.449
 Vibration     3          0.711              1.621              1.275
 Vibration     4          0.787              1.416              0.876
 Vibration     5          0.805              1.371              0.810
 Vibration     6          0.856              1.248              0.656
 Vibration     7          0.899              1.154              0.557
 Vibration     8          0.940              1.067              0.479

 Normal termination of Gaussian 09 at Fri Sep 10 18:57:00 2021.
