 Gaussian 09, Revision D.01,
 Gaussian 09:  ES64L-G09RevD.01 24-Apr-2013

 -------------------------
 #P OPT Freq B3LYP/6-31G**
 -------------------------

 -------
 Frag_36
 -------
 Symbolic Z-matrix:
 Charge =  0 Multiplicity = 1

 SCF Done:  E(RB3LYP) =  -171.024473164     A.U. after   13 cycles
 Optimization completed.
    -- Stationary point found.
 Normal termination of Gaussian 09 at Thu Jul 22 23:10:00 2021.

 ----------------------------------------------------------------------
 #P Geom=AllCheck Guess=TCheck SCRF=Check GenChk RB3LYP/6-31G(d,p) Freq
 ----------------------------------------------------------------------

 Structure from the checkpoint file:  "/vol2/users/liuj201281/HOFBenchmark/IsodesmicSplit/Sample60/Ring26/Running/Gau-474680.chk"
 -------
 Frag_36
 -------
 Charge =  0 Multiplicity = 1

                         Standard orientation:
 ---------------------------------------------------------------------
 Center     Atomic      Atomic             Coordinates (Angstroms)
 Number     Number       Type             X           Y           Z
 ---------------------------------------------------------------------
      1          6           0       -1.169791   -0.205288    0.000008
      2          8           0        0.011819    0.579096   -0.000092
      3          7           0        1.145907   -0.315919    0.000108
      4          1           0       -1.237100   -0.842387   -0.891492
      5          1           0       -1.237100   -0.842087    0.891708
      6          1           0       -1.997382    0.510323   -0.000092
      7          1           0        1.687311   -0.007227    0.810708
      8          1           0        1.687111   -0.008227   -0.810892
 ---------------------------------------------------------------------

 SCF Done:  E(RB3LYP) =  -171.024473164     A.U. after    1 cycles

 The electronic state is 1-A.
 Alpha  occ. eigenvalues --  -19.16551 -14.36519 -10.21817  -1.04940  -0.81596
 Alpha  occ. eigenvalues --   -0.65101  -0.50045  -0.48548  -0.43444  -0.41627
 Alpha  occ. eigenvalues --   -0.35796  -0.25643  -0.25334
 Alpha virt. eigenvalues --    0.08305   0.10047   0.14148   0.15289   0.17047
 Alpha virt. eigenvalues --    0.18453   0.20742   0.53723   0.56369   0.58222
 Alpha virt. eigenvalues --    0.63956   0.72633   0.75431   0.81524   0.83138

 Mulliken charges:
               1
     1  C   -0.026055
     2  O   -0.425058
     3  N   -0.364704
     4  H    0.096180
     5  H    0.096196
     6  H    0.106065
     7  H    0.258687
     8  H    0.258690
 Sum of Mulliken charges =   0.00000

 Dipole moment (field-independent basis, Debye):
    X=              0.5658    Y=              0.0041    Z=             -0.0006  Tot=              0.5658
 Quadrupole moment (field-independent basis, Debye-Ang):
   XX=            -13.8221   YY=            -21.5626   ZZ=            -17.7611
   XY=              1.2516   XZ=             -0.0009   YZ=              0.0020

  Exact polarizability:  30.973  -0.812  19.274   0.000   0.003  21.895
 Approx polarizability:  36.743  -2.251  26.859   0.001   0.004  28.295

                      1                      2                      3
                      A                      A                      A
 Frequencies --    140.5687               232.7588               454.6424
 Red. masses --      1.0908                 1.2241                 2.9105
 Frc consts  --      0.0127                 0.0391                 0.3544
 IR Inten    --     43.4132                16.7724                15.9691

                      4                      5                      6
                      A                      A                      A
 Frequencies --    884.3313              1026.2810              1179.7096
 Red. masses --      5.9665                 2.9177                 1.2525
 Frc consts  --      2.7491                 1.8106                 1.0271
 IR Inten    --      0.3611                83.4171                 0.9212

                      7                      8                      9
                      A                      A                      A
 Frequencies --   1199.3784              1259.5540              1317.3302
 Red. masses --      1.4729                 1.6881                 1.1210
 Frc consts  --      1.2483                 1.5779                 1.1462
 IR Inten    --     23.3510                37.3408                 1.5425

                     10                     11                     12
                      A                      A                      A
 Frequencies --   1471.3795              1485.7740              1525.5454
 Red. masses --      1.1391                 1.0511                 1.0552
 Frc consts  --      1.4530                 1.3671                 1.4468
 IR Inten    --      3.2583                 2.7386                 9.3309

                     13                     14                     15
                      A                      A                      A
 Frequencies --   1658.2738              3011.8674              3072.1458
 Red. masses --      1.0671                 1.0317                 1.1064
 Frc consts  --      1.7289                 5.5140                 6.1526
 IR Inten    --     13.1738                53.1391                62.0704

                     16                     17                     18
                      A                      A                      A
 Frequencies --   3123.1477              3417.6497              3505.4357
 Red. masses --      1.1018                 1.0478                 1.0955
 Frc consts  --      6.3319                 7.2105                 7.9312
 IR Inten    --     31.7408                 3.2502                 0.7118

 - Thermochemistry -
 -------------------
 Temperature   298.150 Kelvin.  Pressure   1.00000 Atm.
 Atom     1 has atomic number  6 and mass  12.00000

 Molecular mass:    47.03711 amu.
 Principal axes and moments of inertia in atomic units:
                           1         2         3
     Eigenvalues --    42.24104 180.64277 201.97577
           X            0.99963   0.02733  -0.00003
           Y           -0.02733   0.99963   0.00008
           Z            0.00003  -0.00008   1.00000
 This molecule is an asymmetric top.
 Rotational symmetry number  1.
 Rotational temperatures (Kelvin)      2.05047     0.47948     0.42883
 Rotational constants (GHZ):          42.72483     9.99066     8.93543
 Zero-point vibrational energy     179235.1 (Joules/Mol)
                                   42.83822 (Kcal/Mol)
 Warning -- explicit consideration of   3 degrees of freedom as
           vibrations may cause significant error
 Vibrational temperatures:    202.25   334.89   654.13  1272.35  1476.59
          (Kelvin)           1697.34  1725.64  1812.21  1895.34  2116.98
                             2137.69  2194.92  2385.88  4333.40  4420.13
                             4493.51  4917.23  5043.53

 Zero-point correction=                           0.068267 (Hartree/Particle)
 Thermal correction to Energy=                    0.072697
 Thermal correction to Enthalpy=                  0.073642
 Thermal correction to Gibbs Free Energy=         0.042623
 Sum of electronic and zero-point Energies=           -170.956206
 Sum of electronic and thermal Energies=              -170.951776
 Sum of electronic and thermal Enthalpies=            -170.950832
 Sum of electronic and thermal Free Energies=         -170.981850

                     E (Thermal)             CV                S
                      KCal/Mol        Cal/Mol-Kelvin    Cal/Mol-Kelvin
 Total                   45.618             12.893             65.284
 Electronic               0.000              0.000              0.000
 Translational            0.889              2.981             37.470
 Rotational               0.889              2.981             21.960
 Vibrational             43.841              6.931              5.855
 Vibration     1          0.615              1.913              2.796
 Vibration     2          0.654              1.791              1.858
 Vibration     3          0.813              1.351              0.782

 Optimization completed.
    -- Stationary point found.
 Normal termination of Gaussian 09 at Thu Jul 22 23:10:38 2021.
