 Gaussian 09, Revision E.01,
 Gaussian 09:  ES64L-G09RevE.01 30-Nov-2015

 ----------------------------
 #P OPT Freq B3LYP/6-31G(d,p)
 ----------------------------

 --------
 Frag_601
 --------
 Symbolic Z-matrix:
 Charge =  0 Multiplicity = 1

 SCF Done:  E(RB3LYP) =  -323.696294934     A.U. after   14 cycles
 SCF Done:  E(RB3LYP) =  -323.696411895     A.U. after    9 cycles
 SCF Done:  E(RB3LYP) =  -323.696427688     A.U. after    9 cycles
 SCF Done:  E(RB3LYP) =  -323.696434138     A.U. after    9 cycles
 SCF Done:  E(RB3LYP) =  -323.696440970     A.U. after    9 cycles
 SCF Done:  E(RB3LYP) =  -323.696450961     A.U. after    9 cycles
 SCF Done:  E(RB3LYP) =  -323.696473479     A.U. after   11 cycles
 SCF Done:  E(RB3LYP) =  -323.696483250     A.U. after    9 cycles
 SCF Done:  E(RB3LYP) =  -323.696485451     A.U. after    8 cycles
 SCF Done:  E(RB3LYP) =  -323.696485750     A.U. after    7 cycles
 SCF Done:  E(RB3LYP) =  -323.696485952     A.U. after    7 cycles
 SCF Done:  E(RB3LYP) =  -323.696486009     A.U. after    7 cycles
 Optimization completed.
    -- Stationary point found.
 Normal termination of Gaussian 09 at Thu Sep  8 15:18:13 2022.

 ----------------------------------------------------------------------
 #P Geom=AllCheck Guess=TCheck SCRF=Check GenChk RB3LYP/6-31G(d,p) Freq
 ----------------------------------------------------------------------

 Structure from the checkpoint file:  "B3LYP6-31Gdp.Frag_601.chk"
 --------
 Frag_601
 --------
 Charge =  0 Multiplicity = 1

                         Standard orientation:
 ---------------------------------------------------------------------
 Center     Atomic      Atomic             Coordinates (Angstroms)
 Number     Number       Type             X           Y           Z
 ---------------------------------------------------------------------
      1          6           0        1.680827    0.977356   -0.029065
      2          6           0        0.723716   -0.195576   -0.017392
      3          8           0        1.097171   -1.369172    0.093317
      4          7           0       -0.605821    0.059183   -0.183029
      5          6           0       -1.335567    1.274696    0.094643
      6          8           0       -1.428245   -1.071819   -0.027912
      7          1           0        1.457710    1.688944   -0.828251
      8          1           0        2.685068    0.578703   -0.172085
      9          1           0        1.652300    1.514010    0.925554
     10          1           0       -0.690939    2.133890   -0.089616
     11          1           0       -2.198858    1.332037   -0.573372
     12          1           0       -1.690880    1.296273    1.132516
     13          1           0       -0.738914   -1.769060    0.074104
 ---------------------------------------------------------------------

 SCF Done:  E(RB3LYP) =  -323.696486009     A.U. after    1 cycles

 The electronic state is 1-A.
 Alpha  occ. eigenvalues --  -19.17932 -19.12368 -14.41563 -10.29511 -10.23707
 Alpha  occ. eigenvalues --  -10.20388  -1.09979  -1.01550  -0.87790  -0.75267
 Alpha  occ. eigenvalues --   -0.71126  -0.59330  -0.50375  -0.49857  -0.48588
 Alpha  occ. eigenvalues --   -0.43705  -0.43210  -0.42003  -0.40547  -0.38554
 Alpha  occ. eigenvalues --   -0.37698  -0.33160  -0.26904  -0.22376
 Alpha virt. eigenvalues --    0.01452   0.07926   0.09056   0.13012   0.14252
 Alpha virt. eigenvalues --    0.14809   0.16294   0.16433   0.16912   0.19576
 Alpha virt. eigenvalues --    0.23785   0.33518   0.36943   0.46480   0.49662

 Mulliken charges:
               1
     1  C   -0.401404
     2  C    0.567891
     3  O   -0.541751
     4  N   -0.182682
     5  C   -0.166178
     6  O   -0.440563
     7  H    0.132024
     8  H    0.153096
     9  H    0.138722
    10  H    0.124393
    11  H    0.143613
    12  H    0.132483
    13  H    0.340355
 Sum of Mulliken charges =  -0.00000

 Dipole moment (field-independent basis, Debye):
    X=             -0.1198    Y=              3.5135    Z=              0.2387  Tot=              3.5236
 Quadrupole moment (field-independent basis, Debye-Ang):
   XX=            -37.2891   YY=            -34.8515   ZZ=            -35.8344
   XY=              1.4530   XZ=             -0.5861   YZ=              0.0600

  Exact polarizability:  56.475  -1.907  51.519   0.299  -0.467  31.633
 Approx polarizability:  80.058  -7.516  76.775   2.534  -2.199  45.072

                      1                      2                      3
                      A                      A                      A
 Frequencies --    103.9485               112.6167               159.1145
 Red. masses --      1.3027                 1.9664                 1.4007
 Frc consts  --      0.0083                 0.0147                 0.0209
 IR Inten    --      1.6595                 4.1590                 0.0178

                      4                      5                      6
                      A                      A                      A
 Frequencies --    246.1244               292.7149               400.4386
 Red. masses --      2.4864                 3.0323                 3.8807
 Frc consts  --      0.0887                 0.1531                 0.3666
 IR Inten    --      6.3786                 7.1897                24.2124

                      7                      8                      9
                      A                      A                      A
 Frequencies --    452.3774               489.3837               607.6516
 Red. masses --      3.3413                 1.3043                 2.4802
 Frc consts  --      0.4029                 0.1841                 0.5396
 IR Inten    --      3.2945                63.3102                39.0544

                     10                     11                     12
                      A                      A                      A
 Frequencies --    620.4770               740.7018               980.7997
 Red. masses --      3.9068                 4.1756                 2.4815
 Frc consts  --      0.8862                 1.3498                 1.4064
 IR Inten    --     18.4082                15.2886                30.3321

                     13                     14                     15
                      A                      A                      A
 Frequencies --   1025.7613              1049.5141              1153.3478
 Red. masses --      1.7014                 1.6344                 1.3074
 Frc consts  --      1.0548                 1.0607                 1.0246
 IR Inten    --      9.4508                 7.6845                14.2432

                     16                     17                     18
                      A                      A                      A
 Frequencies --   1177.5820              1237.7834              1386.4436
 Red. masses --      1.9998                 4.1792                 1.5009
 Frc consts  --      1.6339                 3.7725                 1.6998
 IR Inten    --     11.0567                67.1941                57.9316

                     19                     20                     21
                      A                      A                      A
 Frequencies --   1418.0923              1461.9992              1478.7213
 Red. masses --      1.7828                 1.1822                 1.0574
 Frc consts  --      2.1123                 1.4888                 1.3622
 IR Inten    --    135.3813                 2.7585                19.6062

                     22                     23                     24
                      A                      A                      A
 Frequencies --   1487.4120              1500.5261              1518.8823
 Red. masses --      1.1028                 1.0502                 1.1776
 Frc consts  --      1.4376                 1.3931                 1.6007
 IR Inten    --     29.5498                 7.1565                51.7336

                     25                     26                     27
                      A                      A                      A
 Frequencies --   1571.7910              1727.0461              3036.8570
 Red. masses --      1.6203                 7.9526                 1.0435
 Frc consts  --      2.3585                13.9755                 5.6702
 IR Inten    --     34.4893               245.3709                44.9959

                     28                     29                     30
                      A                      A                      A
 Frequencies --   3057.6748              3112.7107              3126.8034
 Red. masses --      1.0395                 1.0960                 1.0995
 Frc consts  --      5.7259                 6.2567                 6.3333
 IR Inten    --      5.3515                19.1821                 8.8995

                     31                     32                     33
                      A                      A                      A
 Frequencies --   3170.1580              3174.0346              3505.1618
 Red. masses --      1.1008                 1.1012                 1.0638
 Frc consts  --      6.5183                 6.5365                 7.7009
 IR Inten    --     11.4511                 3.5025                81.6517

 - Thermochemistry -
 -------------------
 Temperature   298.150 Kelvin.  Pressure   1.00000 Atm.
 Atom     1 has atomic number  6 and mass  12.00000

 Molecular mass:    89.04768 amu.
 Principal axes and moments of inertia in atomic units:
                           1         2         3
     Eigenvalues --   357.07561 512.63714 841.45632
           X            0.99957   0.02890  -0.00571
           Y           -0.02888   0.99958   0.00337
           Z            0.00580  -0.00320   0.99998
 This molecule is an asymmetric top.
 Rotational symmetry number  1.
 Rotational temperatures (Kelvin)      0.24256     0.16896     0.10293
 Rotational constants (GHZ):           5.05423     3.52050     2.14478
 Zero-point vibrational energy     278638.1 (Joules/Mol)
                                   66.59610 (Kcal/Mol)
 Warning -- explicit consideration of  10 degrees of freedom as
           vibrations may cause significant error
 Vibrational temperatures:    149.56   162.03   228.93   354.12   421.15
          (Kelvin)            576.14   650.87   704.11   874.27   892.73
                             1065.70  1411.15  1475.84  1510.01  1659.41
                             1694.28  1780.89  1994.78  2040.32  2103.49
                             2127.55  2140.05  2158.92  2185.33  2261.45
                             2484.83  4369.35  4399.31  4478.49  4498.77
                             4561.14  4566.72  5043.14

 Zero-point correction=                           0.106128 (Hartree/Particle)
 Thermal correction to Energy=                    0.113354
 Thermal correction to Enthalpy=                  0.114299
 Thermal correction to Gibbs Free Energy=         0.075177
 Sum of electronic and zero-point Energies=           -323.590358
 Sum of electronic and thermal Energies=              -323.583132
 Sum of electronic and thermal Enthalpies=            -323.582188
 Sum of electronic and thermal Free Energies=         -323.621309

                     E (Thermal)             CV                S
                      KCal/Mol        Cal/Mol-Kelvin    Cal/Mol-Kelvin
 Total                   71.131             24.457             82.338
 Electronic               0.000              0.000              0.000
 Translational            0.889              2.981             39.372
 Rotational               0.889              2.981             26.535
 Vibrational             69.353             18.495             16.431
 Vibration     1          0.605              1.946              3.379
 Vibration     2          0.607              1.939              3.223
 Vibration     3          0.621              1.892              2.560
 Vibration     4          0.661              1.769              1.758
 Vibration     5          0.688              1.687              1.458
 Vibration     6          0.766              1.469              0.961
 Vibration     7          0.811              1.356              0.789
 Vibration     8          0.845              1.274              0.685
 Vibration     9          0.966              1.016              0.437
 Vibration    10          0.981              0.989              0.416

 Normal termination of Gaussian 09 at Thu Sep  8 15:18:23 2022.
