 Gaussian 09, Revision E.01,
 Gaussian 09:  ES64L-G09RevE.01 30-Nov-2015

 ----------------------------
 #P OPT Freq B3LYP/6-31G(d,p)
 ----------------------------

 ---------
 Frag_1153
 ---------
 Symbolic Z-matrix:
 Charge =  0 Multiplicity = 1

 SCF Done:  E(RB3LYP) =  -220.082502365     A.U. after   14 cycles
 SCF Done:  E(RB3LYP) =  -220.082588735     A.U. after   13 cycles
 SCF Done:  E(RB3LYP) =  -220.082576701     A.U. after   13 cycles
 SCF Done:  E(RB3LYP) =  -220.082597288     A.U. after    6 cycles
 SCF Done:  E(RB3LYP) =  -220.082601584     A.U. after    9 cycles
 SCF Done:  E(RB3LYP) =  -220.082603265     A.U. after    9 cycles
 SCF Done:  E(RB3LYP) =  -220.082604137     A.U. after    9 cycles
 SCF Done:  E(RB3LYP) =  -220.082604883     A.U. after    9 cycles
 Optimization completed.
    -- Stationary point found.
 Normal termination of Gaussian 09 at Thu Sep  8 14:54:28 2022.

 ----------------------------------------------------------------------
 #P Geom=AllCheck Guess=TCheck SCRF=Check GenChk RB3LYP/6-31G(d,p) Freq
 ----------------------------------------------------------------------

 Structure from the checkpoint file:  "B3LYP6-31Gdp.Frag_1153.chk"
 ---------
 Frag_1153
 ---------
 Charge =  0 Multiplicity = 1

                         Standard orientation:
 ---------------------------------------------------------------------
 Center     Atomic      Atomic             Coordinates (Angstroms)
 Number     Number       Type             X           Y           Z
 ---------------------------------------------------------------------
      1          7           0        1.386354   -0.416504    0.193617
      2          7           0        0.643119    0.455124   -0.284635
      3          7           0       -0.643118    0.455121    0.284634
      4          7           0       -1.386354   -0.416510   -0.193611
      5          1           0        2.303454   -0.270327   -0.259428
      6          1           0       -2.303467   -0.270293    0.259395
 ---------------------------------------------------------------------

 SCF Done:  E(RB3LYP) =  -220.082604883     A.U. after    1 cycles

 The electronic state is 1-A.
 Alpha  occ. eigenvalues --  -14.43802 -14.43784 -14.40261 -14.40261  -1.11255
 Alpha  occ. eigenvalues --   -1.01613  -0.78949  -0.60475  -0.53533  -0.49492
 Alpha  occ. eigenvalues --   -0.46982  -0.39126  -0.38172  -0.28915  -0.25410
 Alpha virt. eigenvalues --   -0.06621  -0.05909   0.09204   0.09507   0.19826
 Alpha virt. eigenvalues --    0.32586   0.34256   0.57854   0.61038   0.62869
 Alpha virt. eigenvalues --    0.63237   0.65556   0.68298   0.70695   0.72915

 Mulliken charges:
               1
     1  N   -0.232570
     2  N   -0.042265
     3  N   -0.042266
     4  N   -0.232572
     5  H    0.274836
     6  H    0.274836
 Sum of Mulliken charges =   0.00000

 Dipole moment (field-independent basis, Debye):
    X=              0.0000    Y=              0.1823    Z=             -0.0000  Tot=              0.1823
 Quadrupole moment (field-independent basis, Debye-Ang):
   XX=            -13.9800   YY=            -25.2220   ZZ=            -23.8518
   XY=             -0.0001   XZ=             -2.2875   YZ=              0.0000

  Exact polarizability:  47.386  -0.000  19.659  -1.608   0.000  15.525
 Approx polarizability:  68.948  -0.000  37.167  -0.154  -0.000  24.552

                      1                      2                      3
                      A                      A                      A
 Frequencies --    142.2392               457.8697               586.3995
 Red. masses --      9.2022                 4.5036                 2.6894
 Frc consts  --      0.1097                 0.5563                 0.5449
 IR Inten    --      1.8373                22.9914                23.3953

                      4                      5                      6
                      A                      A                      A
 Frequencies --    696.7934              1028.4558              1031.8660
 Red. masses --      7.0868                 1.2685                 1.3904
 Frc consts  --      2.0273                 0.7905                 0.8723
 IR Inten    --     18.9886                25.6127                39.9751

                      7                      8                      9
                      A                      A                      A
 Frequencies --   1455.4787              1463.1501              1622.3024
 Red. masses --      1.2561                 1.2074                11.6601
 Frc consts  --      1.5677                 1.5229                18.0807
 IR Inten    --     81.3257                35.3833                 4.0435

                     10                     11                     12
                      A                      A                      A
 Frequencies --   1650.6255              3318.7479              3319.0341
 Red. masses --      9.8120                 1.0750                 1.0743
 Frc consts  --     15.7509                 6.9757                 6.9725
 IR Inten    --     25.3348                 9.4901                 0.1596

 - Thermochemistry -
 -------------------
 Temperature   298.150 Kelvin.  Pressure   1.00000 Atm.
 Atom     1 has atomic number  7 and mass  14.00307

 Molecular mass:    58.02795 amu.
 Principal axes and moments of inertia in atomic units:
                           1         2         3
     Eigenvalues --    50.84112 284.11372 310.42093
           X            0.99987  -0.00000  -0.01632
           Y            0.00000   1.00000   0.00000
           Z            0.01632  -0.00000   0.99987
 This molecule is an asymmetric top.
 Rotational symmetry number  1.
 Rotational temperatures (Kelvin)      1.70362     0.30486     0.27902
 Rotational constants (GHZ):          35.49766     6.35218     5.81385
 Zero-point vibrational energy     100324.6 (Joules/Mol)
                                   23.97815 (Kcal/Mol)
 Warning -- explicit consideration of   3 degrees of freedom as
           vibrations may cause significant error
 Vibrational temperatures:    204.65   658.77   843.70  1002.53  1479.72
          (Kelvin)           1484.62  2094.11  2105.14  2334.13  2374.88
                             4774.93  4775.34

 Zero-point correction=                           0.038212 (Hartree/Particle)
 Thermal correction to Energy=                    0.042323
 Thermal correction to Enthalpy=                  0.043267
 Thermal correction to Gibbs Free Energy=         0.012073
 Sum of electronic and zero-point Energies=           -220.044393
 Sum of electronic and thermal Energies=              -220.040282
 Sum of electronic and thermal Enthalpies=            -220.039338
 Sum of electronic and thermal Free Energies=         -220.070532

                     E (Thermal)             CV                S
                      KCal/Mol        Cal/Mol-Kelvin    Cal/Mol-Kelvin
 Total                   26.558             12.068             65.653
 Electronic               0.000              0.000              0.000
 Translational            0.889              2.981             38.096
 Rotational               0.889              2.981             23.021
 Vibrational             24.780              6.106              4.536
 Vibration     1          0.616              1.911              2.774
 Vibration     2          0.816              1.343              0.772
 Vibration     3          0.943              1.061              0.474

 Optimization completed.
    -- Stationary point found.
 Normal termination of Gaussian 09 at Thu Sep  8 14:54:34 2022.
