 Gaussian 09, Revision E.01,
 Gaussian 09:  ES64L-G09RevE.01 30-Nov-2015

 ----------------------------
 #P OPT Freq B3LYP/6-31G(d,p)
 ----------------------------

 --------
 Frag_852
 --------
 Symbolic Z-matrix:
 Charge =  0 Multiplicity = 1

 SCF Done:  E(RB3LYP) =  -229.740318653     A.U. after   13 cycles
 SCF Done:  E(RB3LYP) =  -229.740366624     A.U. after    8 cycles
 SCF Done:  E(RB3LYP) =  -229.740368857     A.U. after    8 cycles
 SCF Done:  E(RB3LYP) =  -229.740369210     A.U. after    7 cycles
 Optimization completed.
    -- Stationary point found.
 Normal termination of Gaussian 09 at Thu Sep  8 15:25:26 2022.

 ----------------------------------------------------------------------
 #P Geom=AllCheck Guess=TCheck SCRF=Check GenChk RB3LYP/6-31G(d,p) Freq
 ----------------------------------------------------------------------

 Structure from the checkpoint file:  "B3LYP6-31Gdp.Frag_852.chk"
 --------
 Frag_852
 --------
 Charge =  0 Multiplicity = 1

                         Standard orientation:
 ---------------------------------------------------------------------
 Center     Atomic      Atomic             Coordinates (Angstroms)
 Number     Number       Type             X           Y           Z
 ---------------------------------------------------------------------
      1          6           0        0.718681    1.226592   -0.425133
      2          7           0       -0.002421    0.000000    0.069654
      3          6           0        0.718682   -1.226592   -0.425133
      4          6           0       -1.388109   -0.000001   -0.483393
      5          7           0       -0.184271    0.000000    1.504731
      6          1           0        0.183514    2.084591   -0.022124
      7          1           0        0.771154    1.266761   -1.520216
      8          1           0        1.726217    1.203986   -0.007431
      9          1           0        0.771156   -1.266761   -1.520215
     10          1           0        0.183515   -2.084591   -0.022123
     11          1           0        1.726217   -1.203985   -0.007430
     12          1           0       -1.886461   -0.885198   -0.091937
     13          1           0       -1.368634   -0.000002   -1.576442
     14          1           0       -1.886462    0.885197   -0.091939
     15          1           0        0.791104    0.000001    1.841112
 ---------------------------------------------------------------------

 SCF Done:  E(RB3LYP) =  -229.740369210     A.U. after    1 cycles

 The electronic state is 1-A.
 Alpha  occ. eigenvalues --  -14.44429 -14.22701 -10.22286 -10.22286 -10.21926
 Alpha  occ. eigenvalues --   -0.99565  -0.73856  -0.73110  -0.73076  -0.60277
 Alpha  occ. eigenvalues --   -0.50115  -0.49667  -0.47504  -0.42796  -0.42576
 Alpha  occ. eigenvalues --   -0.39041  -0.38865  -0.38262  -0.36873  -0.21908
 Alpha  occ. eigenvalues --   -0.13319
 Alpha virt. eigenvalues --    0.05848   0.11094   0.12222   0.12550   0.13144
 Alpha virt. eigenvalues --    0.14961   0.15131   0.17520   0.17562   0.19029
 Alpha virt. eigenvalues --    0.19042   0.20278   0.21618   0.24920   0.47762

 Mulliken charges:
               1
     1  C   -0.147847
     2  N   -0.260238
     3  C   -0.147847
     4  C   -0.131253
     5  N   -0.593247
     6  H    0.145066
     7  H    0.098561
     8  H    0.123604
     9  H    0.098561
    10  H    0.145066
    11  H    0.123604
    12  H    0.145773
    13  H    0.099760
    14  H    0.145773
    15  H    0.154664
 Sum of Mulliken charges =  -0.00000

 Dipole moment (field-independent basis, Debye):
    X=              1.3373    Y=              0.0000    Z=             -4.2738  Tot=              4.4781
 Quadrupole moment (field-independent basis, Debye-Ang):
   XX=            -30.3422   YY=            -31.3932   ZZ=            -39.3038
   XY=              0.0000   XZ=              3.1342   YZ=              0.0000

  Exact polarizability:  49.047   0.000  47.139   0.008   0.000  54.043
 Approx polarizability:  66.769   0.000  61.664  -2.133   0.000  81.431

                      1                      2                      3
                      A                      A                      A
 Frequencies --    213.7422               286.6824               297.1782
 Red. masses --      1.0181                 1.0680                 1.0569
 Frc consts  --      0.0274                 0.0517                 0.0550
 IR Inten    --      3.7782                 3.0617                 0.0802

                      4                      5                      6
                      A                      A                      A
 Frequencies --    365.1897               373.9950               402.4243
 Red. masses --      2.3041                 2.4139                 1.1339
 Frc consts  --      0.1810                 0.1989                 0.1082
 IR Inten    --      2.4879                 6.2071                62.7766

                      7                      8                      9
                      A                      A                      A
 Frequencies --    445.2870               485.4254               491.4250
 Red. masses --      2.3510                 3.1006                 2.7929
 Frc consts  --      0.2746                 0.4305                 0.3974
 IR Inten    --      6.5947                33.0839                21.1479

                     10                     11                     12
                      A                      A                      A
 Frequencies --    747.7951               794.3462               885.7267
 Red. masses --      4.0516                 6.3168                 2.1093
 Frc consts  --      1.3349                 2.3484                 0.9750
 IR Inten    --      2.3377                11.8914                 0.0031

                     13                     14                     15
                      A                      A                      A
 Frequencies --    959.2275              1061.9465              1108.5190
 Red. masses --      2.2566                 1.1892                 1.3276
 Frc consts  --      1.2234                 0.7902                 0.9612
 IR Inten    --      5.5438                 0.0000                 9.8006

                     16                     17                     18
                      A                      A                      A
 Frequencies --   1122.1928              1222.5581              1245.4398
 Red. masses --      1.4011                 1.5923                 1.6656
 Frc consts  --      1.0396                 1.4022                 1.5222
 IR Inten    --      4.5197                12.3986                 2.1396

                     19                     20                     21
                      A                      A                      A
 Frequencies --   1274.3079              1414.5243              1419.3949
 Red. masses --      2.0427                 1.1613                 1.1663
 Frc consts  --      1.9544                 1.3691                 1.3844
 IR Inten    --      0.3319                 0.5172                 2.3817

                     22                     23                     24
                      A                      A                      A
 Frequencies --   1458.2046              1466.7614              1467.0623
 Red. masses --      1.2237                 1.1582                 1.0531
 Frc consts  --      1.5331                 1.4681                 1.3355
 IR Inten    --      5.3188                 5.0120                 0.2212

                     25                     26                     27
                      A                      A                      A
 Frequencies --   1482.2062              1496.0436              1501.2309
 Red. masses --      1.0462                 1.0410                 1.0579
 Frc consts  --      1.3542                 1.3727                 1.4047
 IR Inten    --      0.0574                 0.1950                19.8849

                     28                     29                     30
                      A                      A                      A
 Frequencies --   1524.3287              1527.5976              3023.1882
 Red. masses --      1.1963                 1.0480                 1.0444
 Frc consts  --      1.6377                 1.4409                 5.6239
 IR Inten    --     30.8382                 7.0481                24.3104

                     31                     32                     33
                      A                      A                      A
 Frequencies --   3035.3347              3073.0609              3137.1715
 Red. masses --      1.0430                 1.0363                 1.0920
 Frc consts  --      5.6615                 5.7662                 6.3323
 IR Inten    --     64.9270                33.9898                 0.0936

                     34                     35                     36
                      A                      A                      A
 Frequencies --   3144.5036              3174.7247              3187.5842
 Red. masses --      1.0931                 1.1004                 1.1053
 Frc consts  --      6.3681                 6.5346                 6.6170
 IR Inten    --     29.1192                11.8594                 1.4234

                     37                     38                     39
                      A                      A                      A
 Frequencies --   3191.6701              3199.0514              3325.2543
 Red. masses --      1.1051                 1.1059                 1.0739
 Frc consts  --      6.6326                 6.6681                 6.9964
 IR Inten    --      9.8294                 6.6823                72.0404

 - Thermochemistry -
 -------------------
 Temperature   298.150 Kelvin.  Pressure   1.00000 Atm.
 Atom     1 has atomic number  6 and mass  12.00000

 Molecular mass:    74.08440 amu.
 Principal axes and moments of inertia in atomic units:
                           1         2         3
     Eigenvalues --   362.20118 365.44918 378.94865
           X            0.93746   0.00000   0.34809
           Y           -0.00000   1.00000   0.00000
           Z           -0.34809  -0.00000   0.93746
 This molecule is an asymmetric top.
 Rotational symmetry number  1.
 Rotational temperatures (Kelvin)      0.23913     0.23701     0.22856
 Rotational constants (GHZ):           4.98270     4.93842     4.76250
 Zero-point vibrational energy     359072.9 (Joules/Mol)
                                   85.82049 (Kcal/Mol)
 Warning -- explicit consideration of   9 degrees of freedom as
           vibrations may cause significant error
 Vibrational temperatures:    307.53   412.47   427.57   525.43   538.09
          (Kelvin)            579.00   640.67   698.42   707.05  1075.91
                             1142.89  1274.36  1380.11  1527.90  1594.91
                             1614.58  1758.99  1791.91  1833.44  2035.18
                             2042.19  2098.03  2110.34  2110.77  2132.56
                             2152.47  2159.93  2193.17  2197.87  4349.69
                             4367.16  4421.44  4513.68  4524.23  4567.72
                             4586.22  4592.10  4602.72  4784.29

 Zero-point correction=                           0.136764 (Hartree/Particle)
 Thermal correction to Energy=                    0.143165
 Thermal correction to Enthalpy=                  0.144109
 Thermal correction to Gibbs Free Energy=         0.108173
 Sum of electronic and zero-point Energies=           -229.603606
 Sum of electronic and thermal Energies=              -229.597204
 Sum of electronic and thermal Enthalpies=            -229.596260
 Sum of electronic and thermal Free Energies=         -229.632196

                     E (Thermal)             CV                S
                      KCal/Mol        Cal/Mol-Kelvin    Cal/Mol-Kelvin
 Total                   89.837             24.160             75.633
 Electronic               0.000              0.000              0.000
 Translational            0.889              2.981             38.824
 Rotational               0.889              2.981             25.420
 Vibrational             88.060             18.199             11.389
 Vibration     1          0.644              1.820              2.011
 Vibration     2          0.684              1.698              1.493
 Vibration     3          0.691              1.679              1.433
 Vibration     4          0.738              1.544              1.100
 Vibration     5          0.745              1.525              1.063
 Vibration     6          0.768              1.465              0.954
 Vibration     7          0.805              1.371              0.810
 Vibration     8          0.841              1.282              0.696
 Vibration     9          0.847              1.269              0.680

 Optimization completed.
    -- Stationary point found.
 Normal termination of Gaussian 09 at Thu Sep  8 15:25:38 2022.
