 Gaussian 09, Revision E.01,
 Gaussian 09:  ES64L-G09RevE.01 30-Nov-2015

 ----------------------------
 #P OPT Freq B3LYP/6-31G(d,p)
 ----------------------------

 --------
 Frag_650
 --------
 Symbolic Z-matrix:
 Charge =  0 Multiplicity = 1

 SCF Done:  E(RB3LYP) =  -116.663996815     A.U. after   11 cycles
 SCF Done:  E(RB3LYP) =  -116.664059472     A.U. after    8 cycles
 SCF Done:  E(RB3LYP) =  -116.663580131     A.U. after   11 cycles
 SCF Done:  E(RB3LYP) =  -116.664062402     A.U. after    6 cycles
 SCF Done:  E(RB3LYP) =  -116.664064009     A.U. after    6 cycles
 SCF Done:  E(RB3LYP) =  -116.664061798     A.U. after    7 cycles
 SCF Done:  E(RB3LYP) =  -116.664064078     A.U. after    7 cycles
 Optimization completed.
    -- Stationary point found.
 Normal termination of Gaussian 09 at Thu Sep  8 15:19:31 2022.

 ----------------------------------------------------------------------
 #P Geom=AllCheck Guess=TCheck SCRF=Check GenChk RB3LYP/6-31G(d,p) Freq
 ----------------------------------------------------------------------

 Structure from the checkpoint file:  "B3LYP6-31Gdp.Frag_650.chk"
 --------
 Frag_650
 --------
 Charge =  0 Multiplicity = 1

                         Standard orientation:
 ---------------------------------------------------------------------
 Center     Atomic      Atomic             Coordinates (Angstroms)
 Number     Number       Type             X           Y           Z
 ---------------------------------------------------------------------
      1          6           0       -1.306458    0.000143    0.000107
      2          6           0       -0.000000   -0.000161   -0.000107
      3          6           0        1.306459   -0.000036    0.000097
      4          1           0       -1.873521   -0.646976    0.664825
      5          1           0       -1.873441    0.646722   -0.665204
      6          1           0        1.873633   -0.664742   -0.646936
      7          1           0        1.873328    0.665320    0.646730
 ---------------------------------------------------------------------

 SCF Done:  E(RB3LYP) =  -116.664064078     A.U. after    1 cycles

 The electronic state is 1-A.
 Alpha  occ. eigenvalues --  -10.20564 -10.19047 -10.19043  -0.78644  -0.70026
 Alpha  occ. eigenvalues --   -0.51951  -0.44874  -0.43916  -0.43915  -0.26302
 Alpha  occ. eigenvalues --   -0.26301
 Alpha virt. eigenvalues --    0.02026   0.02026   0.12669   0.14013   0.21331
 Alpha virt. eigenvalues --    0.21331   0.30794   0.33031   0.42881   0.53916
 Alpha virt. eigenvalues --    0.53917   0.65158   0.65329   0.65329   0.67593

 Mulliken charges:
               1
     1  C   -0.402489
     2  C    0.301136
     3  C   -0.402489
     4  H    0.125960
     5  H    0.125961
     6  H    0.125945
     7  H    0.125977
 Sum of Mulliken charges =  -0.00000

 Dipole moment (field-independent basis, Debye):
    X=             -0.0000    Y=              0.0000    Z=             -0.0008  Tot=              0.0008
 Quadrupole moment (field-independent basis, Debye-Ang):
   XX=            -15.5588   YY=            -18.8205   ZZ=            -18.8206
   XY=              0.0018   XZ=              0.0001   YZ=              0.0000

  Exact polarizability:  57.169  -0.002  17.699  -0.001  -0.000  17.699
 Approx polarizability:  92.961  -0.009  22.875  -0.004  -0.000  22.874

                      1                      2                      3
                      A                      A                      A
 Frequencies --    383.9793               383.9806               863.3782
 Red. masses --      2.4939                 2.4939                 1.3074
 Frc consts  --      0.2166                 0.2166                 0.5742
 IR Inten    --      2.9629                 2.9629                54.5295

                      4                      5                      6
                      A                      A                      A
 Frequencies --    863.3796               886.2997              1025.3412
 Red. masses --      1.3074                 1.0078                 1.5334
 Frc consts  --      0.5742                 0.4664                 0.9498
 IR Inten    --     54.5293                 0.0000                 0.0040

                      7                      8                      9
                      A                      A                      A
 Frequencies --   1025.3422              1119.1263              1439.1725
 Red. masses --      1.5334                 2.3883                 1.0803
 Frc consts  --      0.9498                 1.7624                 1.3183
 IR Inten    --      0.0040                 0.0000                 2.1851

                     10                     11                     12
                      A                      A                      A
 Frequencies --   1498.8944              2073.4533              3140.0123
 Red. masses --      1.4194                 9.3855                 1.0593
 Frc consts  --      1.8788                23.7735                 6.1534
 IR Inten    --      0.0000                54.7339                 3.4748

                     13                     14                     15
                      A                      A                      A
 Frequencies --   3143.5837              3217.1136              3217.1156
 Red. masses --      1.0587                 1.1154                 1.1154
 Frc consts  --      6.1641                 6.8018                 6.8018
 IR Inten    --      0.0000                 3.4021                 3.4020

 - Thermochemistry -
 -------------------
 Temperature   298.150 Kelvin.  Pressure   1.00000 Atm.
 Atom     1 has atomic number  6 and mass  12.00000

 Molecular mass:    40.03130 amu.
 Principal axes and moments of inertia in atomic units:
                           1         2         3
     Eigenvalues --    12.39007 203.00907 203.00937
           X            1.00000   0.00003   0.00000
           Y           -0.00003   1.00000  -0.00206
           Z           -0.00000   0.00206   1.00000
 This molecule is an asymmetric top.
 Rotational symmetry number  1.
 Rotational temperatures (Kelvin)      6.99058     0.42665     0.42665
 Rotational constants (GHZ):         145.66029     8.88995     8.88994
 Zero-point vibrational energy     145227.7 (Joules/Mol)
                                   34.71025 (Kcal/Mol)
 Warning -- explicit consideration of   2 degrees of freedom as
           vibrations may cause significant error
 Vibrational temperatures:    552.46   552.46  1242.21  1242.21  1275.19
          (Kelvin)           1475.24  1475.24  1610.17  2070.65  2156.57
                             2983.23  4517.77  4522.91  4628.70  4628.71

 Zero-point correction=                           0.055314 (Hartree/Particle)
 Thermal correction to Energy=                    0.059080
 Thermal correction to Enthalpy=                  0.060024
 Thermal correction to Gibbs Free Energy=         0.031220
 Sum of electronic and zero-point Energies=           -116.608750
 Sum of electronic and thermal Energies=              -116.604984
 Sum of electronic and thermal Enthalpies=            -116.604040
 Sum of electronic and thermal Free Energies=         -116.632844

                     E (Thermal)             CV                S
                      KCal/Mol        Cal/Mol-Kelvin    Cal/Mol-Kelvin
 Total                   37.073             11.735             60.623
 Electronic               0.000              0.000              0.000
 Translational            0.889              2.981             36.989
 Rotational               0.889              2.981             20.862
 Vibrational             35.296              5.773              2.772
 Vibration     1          0.753              1.504              1.023
 Vibration     2          0.753              1.504              1.023

 Optimization completed.
    -- Stationary point found.
 Normal termination of Gaussian 09 at Thu Sep  8 15:19:36 2022.
