 Gaussian 09, Revision D.01,
 Gaussian 09:  ES64L-G09RevD.01 24-Apr-2013

 -------------------------
 #P OPT Freq B3LYP/6-31G**
 -------------------------

 -------
 Frag_53
 -------
 Symbolic Z-matrix:
 Charge =  0 Multiplicity = 1

 SCF Done:  E(RB3LYP) =  -193.141586160     A.U. after   13 cycles
 Optimization completed.
    -- Stationary point found.
 Normal termination of Gaussian 09 at Thu Jul 22 16:06:54 2021.

 ----------------------------------------------------------------------
 #P Geom=AllCheck Guess=TCheck SCRF=Check GenChk RB3LYP/6-31G(d,p) Freq
 ----------------------------------------------------------------------

 Structure from the checkpoint file:  "/vol2/users/liuj201281/HOFBenchmark/IsodesmicSplit/Sample60/Ring26/Running/Gau-238490.chk"
 -------
 Frag_53
 -------
 Charge =  0 Multiplicity = 1

                         Standard orientation:
 ---------------------------------------------------------------------
 Center     Atomic      Atomic             Coordinates (Angstroms)
 Number     Number       Type             X           Y           Z
 ---------------------------------------------------------------------
      1          6           0        0.991400   -1.033081   -0.000006
      2          6           0        0.084980   -0.048807    0.000294
      3          6           0       -1.401635   -0.239685   -0.000006
      4          8           0        0.400290    1.285167   -0.000106
      5          1           0        0.680915   -2.069756   -0.000506
      6          1           0        2.059316   -0.832169   -0.000006
      7          1           0       -1.845696    0.235351    0.881794
      8          1           0       -1.662522   -1.299064   -0.001606
      9          1           0       -1.845996    0.237851   -0.880406
     10          1           0        1.363197    1.375888   -0.000106
 ---------------------------------------------------------------------

 SCF Done:  E(RB3LYP) =  -193.141586160     A.U. after    1 cycles

 The electronic state is 1-A.
 Alpha  occ. eigenvalues --  -19.17116 -10.24404 -10.18287 -10.16158  -1.05045
 Alpha  occ. eigenvalues --   -0.77082  -0.68940  -0.58474  -0.48624  -0.45568
 Alpha  occ. eigenvalues --   -0.42756  -0.39389  -0.36731  -0.35661  -0.35440
 Alpha  occ. eigenvalues --   -0.22068
 Alpha virt. eigenvalues --    0.04462   0.07256   0.12859   0.13999   0.16269
 Alpha virt. eigenvalues --    0.18521   0.19184   0.23957   0.30754   0.38481
 Alpha virt. eigenvalues --    0.52316   0.52919   0.56411   0.60405   0.63125

 Mulliken charges:
               1
     1  C   -0.327639
     2  C    0.360270
     3  C   -0.354757
     4  O   -0.530922
     5  H    0.093270
     6  H    0.074186
     7  H    0.128213
     8  H    0.115000
     9  H    0.128204
    10  H    0.314174
 Sum of Mulliken charges =   0.00000

 Dipole moment (field-independent basis, Debye):
    X=              0.5403    Y=             -0.1782    Z=             -0.0001  Tot=              0.5689
 Quadrupole moment (field-independent basis, Debye-Ang):
   XX=            -20.8614   YY=            -25.3356   ZZ=            -26.3910
   XY=              2.5879   XZ=             -0.0002   YZ=              0.0015

  Exact polarizability:  43.458  -5.053  41.168  -0.001   0.003  21.075
 Approx polarizability:  57.865 -12.262  62.680  -0.004   0.007  28.836

                      1                      2                      3
                      A                      A                      A
 Frequencies --    179.1493               407.1418               439.5066
 Red. masses --      1.0671                 2.2953                 1.0900
 Frc consts  --      0.0202                 0.2242                 0.1241
 IR Inten    --      1.5339                 1.4243               115.1634

                      4                      5                      6
                      A                      A                      A
 Frequencies --    480.6826               504.7002               728.3235
 Red. masses --      2.5148                 2.0115                 1.1923
 Frc consts  --      0.3424                 0.3019                 0.3726
 IR Inten    --     18.9299                 1.6547                 2.3941

                      7                      8                      9
                      A                      A                      A
 Frequencies --    803.0751               867.6073               986.4034
 Red. masses --      1.3694                 3.3347                 1.5780
 Frc consts  --      0.5203                 1.4790                 0.9046
 IR Inten    --     66.2032                 4.0965                10.7393

                     10                     11                     12
                      A                      A                      A
 Frequencies --   1025.5835              1079.3342              1213.0114
 Red. masses --      1.5632                 1.5119                 1.5003
 Frc consts  --      0.9688                 1.0377                 1.3006
 IR Inten    --     30.1058                 1.6341               150.3764

                     13                     14                     15
                      A                      A                      A
 Frequencies --   1376.4506              1427.2688              1464.2081
 Red. masses --      1.8586                 1.3781                 1.2836
 Frc consts  --      2.0747                 1.6541                 1.6214
 IR Inten    --      9.2326                33.0100                 2.8047

                     16                     17                     18
                      A                      A                      A
 Frequencies --   1485.3335              1505.1270              1741.0580
 Red. masses --      1.0437                 1.0589                 5.3903
 Frc consts  --      1.3567                 1.4134                 9.6270
 IR Inten    --      6.7981                 5.3693               136.3024

                     19                     20                     21
                      A                      A                      A
 Frequencies --   3047.8707              3103.4839              3154.4139
 Red. masses --      1.0378                 1.1006                 1.1010
 Frc consts  --      5.6800                 6.2455                 6.4545
 IR Inten    --     18.6545                16.6829                15.5377

                     22                     23                     24
                      A                      A                      A
 Frequencies --   3162.8471              3261.7318              3807.3415
 Red. masses --      1.0650                 1.1125                 1.0655
 Frc consts  --      6.2770                 6.9735                 9.1003
 IR Inten    --      5.4488                10.9582                18.5252

 - Thermochemistry -
 -------------------
 Temperature   298.150 Kelvin.  Pressure   1.00000 Atm.
 Atom     1 has atomic number  6 and mass  12.00000

 Molecular mass:    58.04186 amu.
 Principal axes and moments of inertia in atomic units:
                           1         2         3
     Eigenvalues --   179.08906 199.35885 367.27170
           X            0.99987   0.01600   0.00001
           Y           -0.01600   0.99987   0.00002
           Z           -0.00001  -0.00002   1.00000
 This molecule is an asymmetric top.
 Rotational symmetry number  1.
 Rotational temperatures (Kelvin)      0.48364     0.43446     0.23583
 Rotational constants (GHZ):          10.07734     9.05273     4.91391
 Zero-point vibrational energy     222814.4 (Joules/Mol)
                                   53.25391 (Kcal/Mol)
 Warning -- explicit consideration of   5 degrees of freedom as
           vibrations may cause significant error
 Vibrational temperatures:    257.76   585.79   632.35   691.59   726.15
          (Kelvin)           1047.89  1155.44  1248.29  1419.21  1475.58
                             1552.92  1745.25  1980.40  2053.52  2106.67
                             2137.06  2165.54  2504.99  4385.20  4465.22
                             4538.49  4550.63  4692.90  5477.91

 Zero-point correction=                           0.084866 (Hartree/Particle)
 Thermal correction to Energy=                    0.089715
 Thermal correction to Enthalpy=                  0.090659
 Thermal correction to Gibbs Free Energy=         0.058043
 Sum of electronic and zero-point Energies=           -193.056721
 Sum of electronic and thermal Energies=              -193.051871
 Sum of electronic and thermal Enthalpies=            -193.050927
 Sum of electronic and thermal Free Energies=         -193.083543

                     E (Thermal)             CV                S
                      KCal/Mol        Cal/Mol-Kelvin    Cal/Mol-Kelvin
 Total                   56.297             16.886             68.646
 Electronic               0.000              0.000              0.000
 Translational            0.889              2.981             38.096
 Rotational               0.889              2.981             24.087
 Vibrational             54.519             10.924              6.463
 Vibration     1          0.629              1.868              2.337
 Vibration     2          0.772              1.455              0.937
 Vibration     3          0.800              1.384              0.828
 Vibration     4          0.837              1.293              0.708
 Vibration     5          0.860              1.240              0.646

 Normal termination of Gaussian 09 at Thu Jul 22 16:07:06 2021.
