 Gaussian 09, Revision E.01,
 Gaussian 09:  ES64L-G09RevE.01 30-Nov-2015

 ----------------------------
 #P OPT Freq B3LYP/6-31G(d,p)
 ----------------------------

 ---------
 Frag_1143
 ---------
 Symbolic Z-matrix:
 Charge =  0 Multiplicity = 1

 SCF Done:  E(RB3LYP) =  -423.456823502     A.U. after   12 cycles
 SCF Done:  E(RB3LYP) =  -423.456884840     A.U. after   10 cycles
 SCF Done:  E(RB3LYP) =  -423.456863113     A.U. after    9 cycles
 SCF Done:  E(RB3LYP) =  -423.456876595     A.U. after    9 cycles
 SCF Done:  E(RB3LYP) =  -423.456883362     A.U. after    7 cycles
 SCF Done:  E(RB3LYP) =  -423.456889937     A.U. after    7 cycles
 SCF Done:  E(RB3LYP) =  -423.456912958     A.U. after    6 cycles
 SCF Done:  E(RB3LYP) =  -423.456915822     A.U. after    6 cycles
 SCF Done:  E(RB3LYP) =  -423.456900063     A.U. after    6 cycles
 Optimization completed.
    -- Stationary point found.
 Normal termination of Gaussian 09 at Thu Sep  8 14:47:50 2022.

 ----------------------------------------------------------------------
 #P Geom=AllCheck Guess=TCheck SCRF=Check GenChk RB3LYP/6-31G(d,p) Freq
 ----------------------------------------------------------------------

 Structure from the checkpoint file:  "B3LYP6-31Gdp.Frag_1143.chk"
 ---------
 Frag_1143
 ---------
 Charge =  0 Multiplicity = 1

                         Standard orientation:
 ---------------------------------------------------------------------
 Center     Atomic      Atomic             Coordinates (Angstroms)
 Number     Number       Type             X           Y           Z
 ---------------------------------------------------------------------
      1          6           0        1.285303    0.502255   -1.366010
      2          6           0        0.782667   -0.000046    0.000043
      3          6           0        1.285598    0.931828    1.117926
      4          6           0        1.285592   -1.434053    0.248204
      5          6           0       -0.768170   -0.000010   -0.000050
      6          8           0       -1.267254    1.312465   -0.160185
      7          8           0       -1.266996   -0.795070   -1.056461
      8          8           0       -1.268118   -0.517682    1.216278
      9          1           0        0.940506    1.522081   -1.559107
     10          1           0        0.933196   -0.141222   -2.176979
     11          1           0        2.380117    0.504832   -1.384244
     12          1           0        2.380414    0.945479    1.129435
     13          1           0        0.940527    0.589418    2.097689
     14          1           0        0.934108    1.956029    0.965736
     15          1           0        2.380444   -1.450846    0.253436
     16          1           0        0.934757   -1.813777    1.211748
     17          1           0        0.939962   -2.111968   -0.537428
     18          1           0       -1.857810    1.265307   -0.924655
     19          1           0       -1.858344   -1.432883   -0.633448
     20          1           0       -1.854864    0.170006    1.560082
 ---------------------------------------------------------------------

 SCF Done:  E(RB3LYP) =  -423.456900063     A.U. after    1 cycles

 The electronic state is 1-A.
 Alpha  occ. eigenvalues --  -19.15902 -19.15901 -19.15899 -10.33354 -10.19086
 Alpha  occ. eigenvalues --  -10.16193 -10.16189 -10.16188  -1.10372  -1.00328
 Alpha  occ. eigenvalues --   -1.00323  -0.80511  -0.67366  -0.67365  -0.65874
 Alpha  occ. eigenvalues --   -0.54764  -0.54757  -0.53905  -0.47330  -0.42523
 Alpha  occ. eigenvalues --   -0.42514  -0.40487  -0.39431  -0.39420  -0.37280
 Alpha  occ. eigenvalues --   -0.37275  -0.35689  -0.34672  -0.31708  -0.31706
 Alpha  occ. eigenvalues --   -0.30178  -0.30164  -0.27531
 Alpha virt. eigenvalues --    0.06712   0.10460   0.10461   0.11657   0.14552
 Alpha virt. eigenvalues --    0.16455   0.16458   0.17772   0.17776   0.19585
 Alpha virt. eigenvalues --    0.19592   0.22941   0.23674   0.24139   0.24148

 Mulliken charges:
               1
     1  C   -0.315359
     2  C    0.035686
     3  C   -0.315462
     4  C   -0.315381
     5  C    0.697573
     6  O   -0.556905
     7  O   -0.556873
     8  O   -0.557088
     9  H    0.104490
    10  H    0.114182
    11  H    0.093881
    12  H    0.093979
    13  H    0.104392
    14  H    0.114187
    15  H    0.093919
    16  H    0.114146
    17  H    0.104527
    18  H    0.315302
    19  H    0.315386
    20  H    0.315420
 Sum of Mulliken charges =   0.00000

 Dipole moment (field-independent basis, Debye):
    X=             -1.5830    Y=              0.0039    Z=              0.0029  Tot=              1.5830
 Quadrupole moment (field-independent basis, Debye-Ang):
   XX=            -43.0281   YY=            -50.5728   ZZ=            -50.5576
   XY=             -0.0064   XZ=              0.0049   YZ=              0.0074

  Exact polarizability:  65.231   0.002  62.523   0.001   0.005  62.526
 Approx polarizability:  85.357   0.006  87.682  -0.005   0.013  87.678

                      1                      2                      3
                      A                      A                      A
 Frequencies --     97.8149               120.0623               132.8529
 Red. masses --      3.5444                 1.2895                 1.3029
 Frc consts  --      0.0200                 0.0110                 0.0135
 IR Inten    --      0.2044                49.3795                48.9788

                      4                      5                      6
                      A                      A                      A
 Frequencies --    215.8519               250.1587               251.4373
 Red. masses --      1.0508                 1.8623                 2.0112
 Frc consts  --      0.0288                 0.0687                 0.0749
 IR Inten    --      0.0252                 0.4553                 0.2710

                      7                      8                      9
                      A                      A                      A
 Frequencies --    269.5463               273.4754               341.5427
 Red. masses --      1.3338                 1.2689                 3.2482
 Frc consts  --      0.0571                 0.0559                 0.2232
 IR Inten    --      0.7746                 0.9478                 6.3242

                     10                     11                     12
                      A                      A                      A
 Frequencies --    349.5501               351.0021               443.6917
 Red. masses --      2.4631                 2.4843                 2.6107
 Frc consts  --      0.1773                 0.1803                 0.3028
 IR Inten    --      2.3096                 2.2755                11.0139

                     13                     14                     15
                      A                      A                      A
 Frequencies --    444.5638               450.6749               553.7682
 Red. masses --      2.7767                 1.0898                 2.8765
 Frc consts  --      0.3233                 0.1304                 0.5197
 IR Inten    --      5.2376               131.1860                13.0009

                     16                     17                     18
                      A                      A                      A
 Frequencies --    559.4612               560.0849               728.2275
 Red. masses --      4.4983                 4.4915                 4.1628
 Frc consts  --      0.8295                 0.8301                 1.3007
 IR Inten    --      6.0260                 5.8906                10.5598

                     19                     20                     21
                      A                      A                      A
 Frequencies --    850.2299               947.8239               948.5247
 Red. masses --      2.5716                 1.6437                 1.6441
 Frc consts  --      1.0953                 0.8700                 0.8715
 IR Inten    --      0.5869                 1.0612                 1.1008

                     22                     23                     24
                      A                      A                      A
 Frequencies --    969.0125              1013.2307              1013.4193
 Red. masses --      1.1994                 2.3134                 2.3281
 Frc consts  --      0.6636                 1.3993                 1.4087
 IR Inten    --      0.0831               114.6550               115.1561

                     25                     26                     27
                      A                      A                      A
 Frequencies --   1017.5072              1060.7259              1062.2219
 Red. masses --      2.6861                 1.5677                 1.5454
 Frc consts  --      1.6385                 1.0393                 1.0274
 IR Inten    --    205.3590                43.7587                39.5328

                     28                     29                     30
                      A                      A                      A
 Frequencies --   1255.2369              1256.0643              1266.7635
 Red. masses --      2.6350                 2.6263                 1.9596
 Frc consts  --      2.4462                 2.4413                 1.8528
 IR Inten    --     14.5296                14.7551                 0.6477

                     31                     32                     33
                      A                      A                      A
 Frequencies --   1355.1295              1356.0024              1391.6399
 Red. masses --      1.7364                 1.7328                 1.9204
 Frc consts  --      1.8788                 1.8772                 2.1913
 IR Inten    --    159.0422               159.4535                 1.5827

                     34                     35                     36
                      A                      A                      A
 Frequencies --   1405.9058              1407.0865              1443.8253
 Red. masses --      1.2683                 1.2663                 1.2912
 Frc consts  --      1.4770                 1.4771                 1.5859
 IR Inten    --      1.6654                 1.6424                15.5490

                     37                     38                     39
                      A                      A                      A
 Frequencies --   1492.3110              1510.2170              1512.1840
 Red. masses --      1.0480                 1.0460                 1.0458
 Frc consts  --      1.3751                 1.4056                 1.4090
 IR Inten    --      0.0787                 0.3868                 0.2351

                     40                     41                     42
                      A                      A                      A
 Frequencies --   1517.1068              1517.7663              1546.6034
 Red. masses --      1.0528                 1.0533                 1.0766
 Frc consts  --      1.4277                 1.4295                 1.5173
 IR Inten    --      3.1691                 3.2188                17.5654

                     43                     44                     45
                      A                      A                      A
 Frequencies --   3047.2534              3047.3771              3054.9680
 Red. masses --      1.0352                 1.0353                 1.0362
 Frc consts  --      5.6635                 5.6645                 5.6976
 IR Inten    --     23.7402                23.5115                21.7455

                     46                     47                     48
                      A                      A                      A
 Frequencies --   3117.2484              3117.3720              3123.1670
 Red. masses --      1.1017                 1.1017                 1.1010
 Frc consts  --      6.3076                 6.3077                 6.3273
 IR Inten    --      5.6023                 5.8012                61.2525

                     49                     50                     51
                      A                      A                      A
 Frequencies --   3131.6338              3134.7834              3135.0845
 Red. masses --      1.1035                 1.1024                 1.1024
 Frc consts  --      6.3760                 6.3829                 6.3841
 IR Inten    --      2.0357                33.2399                33.0844

                     52                     53                     54
                      A                      A                      A
 Frequencies --   3815.5296              3819.9310              3820.2869
 Red. masses --      1.0657                 1.0655                 1.0655
 Frc consts  --      9.1406                 9.1600                 9.1617
 IR Inten    --     67.1046                48.7576                48.9548

 - Thermochemistry -
 -------------------
 Temperature   298.150 Kelvin.  Pressure   1.00000 Atm.
 Atom     1 has atomic number  6 and mass  12.00000

 Molecular mass:   120.07864 amu.
 Principal axes and moments of inertia in atomic units:
                           1         2         3
     Eigenvalues --   724.434351017.317191017.36441
           X            1.00000  -0.00005   0.00003
           Y            0.00005   0.99576   0.09195
           Z           -0.00004  -0.09195   0.99576
 This molecule is an asymmetric top.
 Rotational symmetry number  1.
 Warning -- assumption of classical behavior for rotation
           may cause significant error
 Rotational temperatures (Kelvin)      0.11956     0.08514     0.08514
 Rotational constants (GHZ):           2.49124     1.77402     1.77394
 Zero-point vibrational energy     453832.9 (Joules/Mol)
                                  108.46867 (Kcal/Mol)
 Warning -- explicit consideration of  17 degrees of freedom as
           vibrations may cause significant error
 Vibrational temperatures:    140.73   172.74   191.15   310.56   359.92
          (Kelvin)            361.76   387.82   393.47   491.40   502.92
                              505.01   638.37   639.63   648.42   796.75
                              804.94   805.84  1047.76  1223.29  1363.71
                             1364.71  1394.19  1457.81  1458.08  1463.96
                             1526.15  1528.30  1806.00  1807.19  1822.59
                             1949.73  1950.98  2002.26  2022.78  2024.48
                             2077.34  2147.10  2172.86  2175.69  2182.78
                             2183.72  2225.21  4384.31  4384.49  4395.41
                             4485.02  4485.20  4493.54  4505.72  4510.25
                             4510.68  5489.69  5496.02  5496.53

 Zero-point correction=                           0.172856 (Hartree/Particle)
 Thermal correction to Energy=                    0.183241
 Thermal correction to Enthalpy=                  0.184185
 Thermal correction to Gibbs Free Energy=         0.138812
 Sum of electronic and zero-point Energies=           -423.284044
 Sum of electronic and thermal Energies=              -423.273659
 Sum of electronic and thermal Enthalpies=            -423.272715
 Sum of electronic and thermal Free Energies=         -423.318088

                     E (Thermal)             CV                S
                      KCal/Mol        Cal/Mol-Kelvin    Cal/Mol-Kelvin
 Total                  114.985             38.709             95.496
 Electronic               0.000              0.000              0.000
 Translational            0.889              2.981             40.263
 Rotational               0.889              2.981             28.107
 Vibrational            113.208             32.748             27.125
 Vibration     1          0.603              1.951              3.497
 Vibration     2          0.609              1.933              3.099
 Vibration     3          0.613              1.921              2.904
 Vibration     4          0.645              1.817              1.994
 Vibration     5          0.663              1.762              1.729
 Vibration     6          0.663              1.760              1.720
 Vibration     7          0.674              1.729              1.599
 Vibration     8          0.676              1.722              1.574
 Vibration     9          0.721              1.592              1.205
 Vibration    10          0.727              1.576              1.168
 Vibration    11          0.728              1.573              1.162
 Vibration    12          0.803              1.375              0.815
 Vibration    13          0.804              1.373              0.812
 Vibration    14          0.809              1.359              0.794
 Vibration    15          0.909              1.131              0.536
 Vibration    16          0.915              1.119              0.525
 Vibration    17          0.916              1.118              0.524

 Normal termination of Gaussian 09 at Thu Sep  8 14:48:12 2022.
