 Gaussian 09, Revision E.01,
 Gaussian 09:  ES64L-G09RevE.01 30-Nov-2015

 --------------------------------
 #P OPT=calcfc Freq B3LYP/6-31G**
 --------------------------------

 --------
 Frag_404
 --------
 Symbolic Z-matrix:
 Charge =  0 Multiplicity = 1

 SCF Done:  E(RB3LYP) =  -205.292981705     A.U. after   14 cycles
 SCF Done:  E(RB3LYP) =  -205.302577110     A.U. after   13 cycles
 SCF Done:  E(RB3LYP) =  -205.302394808     A.U. after   13 cycles
 SCF Done:  E(RB3LYP) =  -205.303240130     A.U. after   11 cycles
 SCF Done:  E(RB3LYP) =  -205.303979710     A.U. after   12 cycles
 SCF Done:  E(RB3LYP) =  -205.304043297     A.U. after   12 cycles
 SCF Done:  E(RB3LYP) =  -205.304048471     A.U. after   12 cycles
 SCF Done:  E(RB3LYP) =  -205.304062754     A.U. after   10 cycles
 SCF Done:  E(RB3LYP) =  -205.304063485     A.U. after    8 cycles
 SCF Done:  E(RB3LYP) =  -205.304063595     A.U. after    7 cycles
 Optimization completed.
    -- Stationary point found.
 Normal termination of Gaussian 09 at Fri Sep 10 15:31:33 2021.

 ----------------------------------------------------------------------
 #P Geom=AllCheck Guess=TCheck SCRF=Check GenChk RB3LYP/6-31G(d,p) Freq
 ----------------------------------------------------------------------

 Structure from the checkpoint file:  "/public/home/users/caep010/.cache/gau_scr/Gau-202988.chk"
 --------
 Frag_404
 --------
 Charge =  0 Multiplicity = 1

                         Standard orientation:
 ---------------------------------------------------------------------
 Center     Atomic      Atomic             Coordinates (Angstroms)
 Number     Number       Type             X           Y           Z
 ---------------------------------------------------------------------
      1          6           0        1.355246    0.452769    0.012543
      2          7           0        0.566337   -0.788611   -0.024387
      3          7           0       -0.680431   -0.708195   -0.005962
      4          7           0       -1.283642    0.525813    0.083875
      5          1           0        2.408092    0.174840    0.060154
      6          1           0        1.206396    1.065748   -0.890362
      7          1           0        1.101367    1.065759    0.888388
      8          1           0       -0.806745    1.323430   -0.328175
      9          1           0       -2.256432    0.450560   -0.179942
 ---------------------------------------------------------------------

 SCF Done:  E(RB3LYP) =  -205.304063595     A.U. after    1 cycles

 The electronic state is 1-A.
 Alpha  occ. eigenvalues --  -14.40765 -14.37882 -14.35648 -10.21372  -1.05329
 Alpha  occ. eigenvalues --   -0.88820  -0.74553  -0.60962  -0.54303  -0.50827
 Alpha  occ. eigenvalues --   -0.45784  -0.42406  -0.38402  -0.33194  -0.26678
 Alpha  occ. eigenvalues --   -0.23304
 Alpha virt. eigenvalues --   -0.01376   0.06378   0.11579   0.14601   0.15313
 Alpha virt. eigenvalues --    0.17267   0.19014   0.24828   0.40838   0.52181
 Alpha virt. eigenvalues --    0.55826   0.56653   0.63653   0.66597   0.68784

 Mulliken charges:
               1
     1  C   -0.227794
     2  N   -0.215215
     3  N   -0.047743
     4  N   -0.425053
     5  H    0.136890
     6  H    0.110137
     7  H    0.129636
     8  H    0.256321
     9  H    0.282819
 Sum of Mulliken charges =  -0.00000

 Dipole moment (field-independent basis, Debye):
    X=             -0.5421    Y=              3.3771    Z=             -0.9357  Tot=              3.5460
 Quadrupole moment (field-independent basis, Debye-Ang):
   XX=            -20.2523   YY=            -26.5507   ZZ=            -24.9700
   XY=             -0.4045   XZ=              1.6016   YZ=             -1.1691

  Exact polarizability:  46.190  -2.271  30.849  -0.060  -0.655  21.029
 Approx polarizability:  71.934  -7.987  48.140  -1.657  -0.340  29.613

                      1                      2                      3
                      A                      A                      A
 Frequencies --    234.1327               356.2451               417.5186
 Red. masses --      1.0913                 2.2015                 1.3954
 Frc consts  --      0.0352                 0.1646                 0.1433
 IR Inten    --      1.0843                 2.7740                21.3017

                      4                      5                      6
                      A                      A                      A
 Frequencies --    586.5993               602.3066               684.9504
 Red. masses --      2.9927                 1.2556                 2.5039
 Frc consts  --      0.6067                 0.2684                 0.6921
 IR Inten    --     45.8024               234.4728                 1.8522

                      7                      8                      9
                      A                      A                      A
 Frequencies --    934.9326              1047.6813              1063.8041
 Red. masses --      5.2013                 3.5712                 1.4749
 Frc consts  --      2.6787                 2.3095                 0.9834
 IR Inten    --      3.1366                59.9113                 6.4647

                     10                     11                     12
                      A                      A                      A
 Frequencies --   1144.6187              1272.8007              1415.7846
 Red. masses --      1.4863                 1.6383                 1.1863
 Frc consts  --      1.1473                 1.5637                 1.4011
 IR Inten    --     10.0642                22.7977                 6.9500

                     13                     14                     15
                      A                      A                      A
 Frequencies --   1493.3303              1510.1299              1626.5147
 Red. masses --      1.0531                 1.0462                 3.0527
 Frc consts  --      1.3837                 1.4057                 4.7582
 IR Inten    --      5.3088                 8.3342                92.5715

                     16                     17                     18
                      A                      A                      A
 Frequencies --   1653.0292              2990.5922              3057.2065
 Red. masses --      1.4045                 1.0437                 1.0969
 Frc consts  --      2.2612                 5.4997                 6.0402
 IR Inten    --     11.3536                20.2440                27.9494

                     19                     20                     21
                      A                      A                      A
 Frequencies --   3155.7486              3500.7163              3662.3499
 Red. masses --      1.0969                 1.0479                 1.0971
 Frc consts  --      6.4361                 7.5662                 8.6697
 IR Inten    --     14.4323                 4.2807                26.2761

 - Thermochemistry -
 -------------------
 Temperature   298.150 Kelvin.  Pressure   1.00000 Atm.
 Atom     1 has atomic number  6 and mass  12.00000

 Molecular mass:    59.04835 amu.
 Principal axes and moments of inertia in atomic units:
                           1         2         3
     Eigenvalues --    99.61283 257.88683 344.45475
           X            0.99973   0.02076   0.00996
           Y           -0.02054   0.99955  -0.02164
           Z           -0.01040   0.02143   0.99972
 This molecule is an asymmetric top.
 Rotational symmetry number  1.
 Rotational temperatures (Kelvin)      0.86950     0.33586     0.25145
 Rotational constants (GHZ):          18.11756     6.99819     5.23941
 Zero-point vibrational energy     193860.8 (Joules/Mol)
                                   46.33384 (Kcal/Mol)
 Warning -- explicit consideration of   5 degrees of freedom as
           vibrations may cause significant error
 Vibrational temperatures:    336.86   512.56   600.72   843.98   866.58
          (Kelvin)            985.49  1345.16  1507.38  1530.57  1646.85
                             1831.27  2037.00  2148.57  2172.74  2340.19
                             2378.34  4302.79  4398.63  4540.41  5036.74
                             5269.30

 Zero-point correction=                           0.073838 (Hartree/Particle)
 Thermal correction to Energy=                    0.078434
 Thermal correction to Enthalpy=                  0.079378
 Thermal correction to Gibbs Free Energy=         0.047364
 Sum of electronic and zero-point Energies=           -205.230226
 Sum of electronic and thermal Energies=              -205.225630
 Sum of electronic and thermal Enthalpies=            -205.224686
 Sum of electronic and thermal Free Energies=         -205.256700

                     E (Thermal)             CV                S
                      KCal/Mol        Cal/Mol-Kelvin    Cal/Mol-Kelvin
 Total                   49.218             15.532             67.380
 Electronic               0.000              0.000              0.000
 Translational            0.889              2.981             38.148
 Rotational               0.889              2.981             23.696
 Vibrational             47.441              9.570              5.536
 Vibration     1          0.654              1.789              1.847
 Vibration     2          0.732              1.562              1.138
 Vibration     3          0.781              1.432              0.900
 Vibration     4          0.944              1.060              0.473
 Vibration     5          0.961              1.027              0.446

 Optimization completed.
    -- Stationary point found.
 Normal termination of Gaussian 09 at Fri Sep 10 15:31:39 2021.
