 Gaussian 09, Revision E.01,
 Gaussian 09:  ES64L-G09RevE.01 30-Nov-2015

 -------------------------
 #P OPT Freq B3LYP/6-31G**
 -------------------------

 --------
 Frag_166
 --------
 Symbolic Z-matrix:
 Charge =  0 Multiplicity = 1

 SCF Done:  E(RB3LYP) =  -250.676607574     A.U. after   14 cycles
 SCF Done:  E(RB3LYP) =  -250.685071309     A.U. after   12 cycles
 SCF Done:  E(RB3LYP) =  -250.686132767     A.U. after   12 cycles
 SCF Done:  E(RB3LYP) =  -250.687184590     A.U. after   13 cycles
 SCF Done:  E(RB3LYP) =  -250.687496420     A.U. after   12 cycles
 SCF Done:  E(RB3LYP) =  -250.687535758     A.U. after   11 cycles
 SCF Done:  E(RB3LYP) =  -250.687538482     A.U. after    9 cycles
 SCF Done:  E(RB3LYP) =  -250.687539476     A.U. after    7 cycles
 SCF Done:  E(RB3LYP) =  -250.687539679     A.U. after    7 cycles
 SCF Done:  E(RB3LYP) =  -250.687539711     A.U. after    6 cycles
 Optimization completed.
    -- Stationary point found.
 Normal termination of Gaussian 09 at Sat Aug 21 01:34:28 2021.

 ----------------------------------------------------------------------
 #P Geom=AllCheck Guess=TCheck SCRF=Check GenChk RB3LYP/6-31G(d,p) Freq
 ----------------------------------------------------------------------

 Structure from the checkpoint file:  "/public/home/users/caep010/.cache/gau_scr/Gau-189588.chk"
 --------
 Frag_166
 --------
 Charge =  0 Multiplicity = 1

                         Standard orientation:
 ---------------------------------------------------------------------
 Center     Atomic      Atomic             Coordinates (Angstroms)
 Number     Number       Type             X           Y           Z
 ---------------------------------------------------------------------
      1          6           0       -0.900882    1.585901   -0.000077
      2          6           0       -0.683464    0.262067   -0.000038
      3          6           0       -1.836169   -0.714227    0.000089
      4          6           0        0.703217   -0.300269   -0.000025
      5          6           0        1.876721    0.654927    0.000086
      6          7           0        0.974276   -1.554031   -0.000090
      7          1           0       -0.093519    2.308997   -0.000079
      8          1           0       -1.908798    1.990152   -0.000085
      9          1           0       -1.812442   -1.365142   -0.882190
     10          1           0       -2.792281   -0.186604   -0.000005
     11          1           0       -1.812391   -1.364903    0.882539
     12          1           0        1.863008    1.303381   -0.882673
     13          1           0        1.862849    1.303288    0.882911
     14          1           0        2.799272    0.074261    0.000096
     15          1           0        0.117836   -2.115603   -0.000093
 ---------------------------------------------------------------------

 SCF Done:  E(RB3LYP) =  -250.687539711     A.U. after    1 cycles

 The electronic state is 1-A.
 Alpha  occ. eigenvalues --  -14.31075 -10.23383 -10.20777 -10.19331 -10.19263
 Alpha  occ. eigenvalues --  -10.17839  -0.90264  -0.79876  -0.72940  -0.68824
 Alpha  occ. eigenvalues --   -0.60226  -0.52546  -0.49475  -0.44293  -0.43390
 Alpha  occ. eigenvalues --   -0.41221  -0.40790  -0.39554  -0.36978  -0.35730
 Alpha  occ. eigenvalues --   -0.31435  -0.25737  -0.25541
 Alpha virt. eigenvalues --   -0.03660   0.07474   0.08832   0.11956   0.12557
 Alpha virt. eigenvalues --    0.15343   0.16182   0.17091   0.18279   0.19217
 Alpha virt. eigenvalues --    0.19326   0.23725   0.26006   0.32831   0.36350

 Mulliken charges:
               1
     1  C   -0.286610
     2  C    0.158149
     3  C   -0.397065
     4  C    0.253951
     5  C   -0.366287
     6  N   -0.528264
     7  H    0.105323
     8  H    0.100144
     9  H    0.126163
    10  H    0.113958
    11  H    0.126173
    12  H    0.119754
    13  H    0.119755
    14  H    0.135344
    15  H    0.219514
 Sum of Mulliken charges =  -0.00000

 Dipole moment (field-independent basis, Debye):
    X=             -1.8587    Y=              1.4137    Z=              0.0002  Tot=              2.3352
 Quadrupole moment (field-independent basis, Debye-Ang):
   XX=            -37.5266   YY=            -37.5109   ZZ=            -38.6386
   XY=              4.4999   XZ=              0.0002   YZ=             -0.0002

  Exact polarizability:  63.364  -3.933  79.237   0.000  -0.000  34.993
 Approx polarizability:  81.192 -15.516 137.859  -0.000   0.000  50.780

                      1                      2                      3
                      A                      A                      A
 Frequencies --     75.3458               208.4375               222.6839
 Red. masses --      3.0050                 1.0189                 1.0507
 Frc consts  --      0.0101                 0.0261                 0.0307
 IR Inten    --      0.3865                 1.1115                 0.0431

                      4                      5                      6
                      A                      A                      A
 Frequencies --    299.7216               345.7044               402.4755
 Red. masses --      2.9320                 3.1241                 2.7508
 Frc consts  --      0.1552                 0.2200                 0.2625
 IR Inten    --      1.1621                 0.0012                 0.5207

                      7                      8                      9
                      A                      A                      A
 Frequencies --    475.4297               542.4280               576.4965
 Red. masses --      2.4709                 3.2187                 1.8573
 Frc consts  --      0.3291                 0.5580                 0.3637
 IR Inten    --      2.4474                 8.5995                 0.0222

                     10                     11                     12
                      A                      A                      A
 Frequencies --    713.7757               727.4814               929.3685
 Red. masses --      1.0796                 3.4031                 1.3349
 Frc consts  --      0.3241                 1.0611                 0.6793
 IR Inten    --     10.5514                 0.9077                62.8541

                     13                     14                     15
                      A                      A                      A
 Frequencies --    931.3141               952.4903               994.9972
 Red. masses --      2.3704                 1.3454                 1.4138
 Frc consts  --      1.2113                 0.7192                 0.8247
 IR Inten    --      5.6388                26.6660                 3.0243

                     16                     17                     18
                      A                      A                      A
 Frequencies --   1042.5176              1074.4449              1080.7774
 Red. masses --      1.4784                 1.4802                 1.4912
 Frc consts  --      0.9467                 1.0068                 1.0262
 IR Inten    --      1.0790                 0.1069                 3.4752

                     19                     20                     21
                      A                      A                      A
 Frequencies --   1109.8859              1274.9347              1382.5385
 Red. masses --      1.6181                 1.9308                 1.4732
 Frc consts  --      1.1744                 1.8491                 1.6591
 IR Inten    --     19.1371                36.7506                37.0919

                     22                     23                     24
                      A                      A                      A
 Frequencies --   1420.0879              1435.1152              1458.9285
 Red. masses --      1.2496                 1.8928                 1.2329
 Frc consts  --      1.4848                 2.2968                 1.5461
 IR Inten    --     12.5489                57.2447                 3.1603

                     25                     26                     27
                      A                      A                      A
 Frequencies --   1494.1124              1495.3942              1501.1390
 Red. masses --      1.0702                 1.0437                 1.0455
 Frc consts  --      1.4075                 1.3752                 1.3881
 IR Inten    --      6.9067                 7.6505                 6.5535

                     28                     29                     30
                      A                      A                      A
 Frequencies --   1514.4038              1684.8614              1713.5077
 Red. masses --      1.0587                 6.2918                 5.4127
 Frc consts  --      1.4306                10.5233                 9.3635
 IR Inten    --      6.8286                58.3806                 6.1659

                     31                     32                     33
                      A                      A                      A
 Frequencies --   3035.9524              3049.5736              3088.8499
 Red. masses --      1.0391                 1.0385                 1.1005
 Frc consts  --      5.6426                 5.6901                 6.1866
 IR Inten    --     14.8321                10.5024                17.2797

                     34                     35                     36
                      A                      A                      A
 Frequencies --   3108.0453              3136.5569              3165.5100
 Red. masses --      1.1003                 1.0993                 1.1004
 Frc consts  --      6.2622                 6.3719                 6.4967
 IR Inten    --     16.4044                13.4630                 6.8263

                     37                     38                     39
                      A                      A                      A
 Frequencies --   3169.1078              3256.5765              3448.2056
 Red. masses --      1.0623                 1.1140                 1.0734
 Frc consts  --      6.2859                 6.9611                 7.5194
 IR Inten    --      8.0398                10.3052                 4.9666

 - Thermochemistry -
 -------------------
 Temperature   298.150 Kelvin.  Pressure   1.00000 Atm.
 Atom     1 has atomic number  6 and mass  12.00000

 Molecular mass:    83.07350 amu.
 Principal axes and moments of inertia in atomic units:
                           1         2         3
     Eigenvalues --   359.39356 550.61036 887.57649
           X            0.99322   0.11627   0.00000
           Y           -0.11627   0.99322  -0.00000
           Z           -0.00000   0.00000   1.00000
 This molecule is an asymmetric top.
 Rotational symmetry number  1.
 Rotational temperatures (Kelvin)      0.24100     0.15731     0.09758
 Rotational constants (GHZ):           5.02163     3.27771     2.03334
 Zero-point vibrational energy     344160.7 (Joules/Mol)
                                   82.25638 (Kcal/Mol)
 Warning -- explicit consideration of   9 degrees of freedom as
           vibrations may cause significant error
 Vibrational temperatures:    108.41   299.89   320.39   431.23   497.39
          (Kelvin)            579.07   684.04   780.43   829.45  1026.96
                             1046.68  1337.15  1339.95  1370.42  1431.58
                             1499.95  1545.88  1555.00  1596.88  1834.34
                             1989.16  2043.19  2064.81  2099.07  2149.69
                             2151.54  2159.80  2178.89  2424.14  2465.35
                             4368.05  4387.65  4444.16  4471.78  4512.80
                             4554.46  4559.63  4685.48  4961.19

 Zero-point correction=                           0.131084 (Hartree/Particle)
 Thermal correction to Energy=                    0.138038
 Thermal correction to Enthalpy=                  0.138982
 Thermal correction to Gibbs Free Energy=         0.100679
 Sum of electronic and zero-point Energies=           -250.556456
 Sum of electronic and thermal Energies=              -250.549502
 Sum of electronic and thermal Enthalpies=            -250.548558
 Sum of electronic and thermal Free Energies=         -250.586861

                     E (Thermal)             CV                S
                      KCal/Mol        Cal/Mol-Kelvin    Cal/Mol-Kelvin
 Total                   86.620             25.272             80.615
 Electronic               0.000              0.000              0.000
 Translational            0.889              2.981             39.165
 Rotational               0.889              2.981             26.665
 Vibrational             84.843             19.310             14.785
 Vibration     1          0.599              1.965              4.009
 Vibration     2          0.642              1.828              2.057
 Vibration     3          0.648              1.807              1.937
 Vibration     4          0.692              1.674              1.418
 Vibration     5          0.724              1.584              1.186
 Vibration     6          0.768              1.465              0.954
 Vibration     7          0.832              1.305              0.722
 Vibration     8          0.898              1.156              0.560
 Vibration     9          0.933              1.082              0.492

 Optimization completed.
    -- Stationary point found.
 Normal termination of Gaussian 09 at Sat Aug 21 01:34:41 2021.
