 Gaussian 09, Revision E.01,
 Gaussian 09:  ES64L-G09RevE.01 30-Nov-2015

 ----------------------------
 #P OPT Freq B3LYP/6-31G(d,p)
 ----------------------------

 ---------
 Frag_1026
 ---------
 Symbolic Z-matrix:
 Charge =  0 Multiplicity = 1

 SCF Done:  E(RB3LYP) =  -344.395458691     A.U. after   12 cycles
 SCF Done:  E(RB3LYP) =  -344.395497915     A.U. after   10 cycles
 SCF Done:  E(RB3LYP) =  -344.395503861     A.U. after    9 cycles
 SCF Done:  E(RB3LYP) =  -344.395508231     A.U. after    8 cycles
 SCF Done:  E(RB3LYP) =  -344.395509272     A.U. after    7 cycles
 SCF Done:  E(RB3LYP) =  -344.395509543     A.U. after    7 cycles
 SCF Done:  E(RB3LYP) =  -344.395509684     A.U. after    6 cycles
 SCF Done:  E(RB3LYP) =  -344.395509795     A.U. after    7 cycles
 SCF Done:  E(RB3LYP) =  -344.395509850     A.U. after    6 cycles
 SCF Done:  E(RB3LYP) =  -344.395509910     A.U. after    7 cycles
 SCF Done:  E(RB3LYP) =  -344.395509946     A.U. after    7 cycles
 Optimization completed.
    -- Stationary point found.
 Normal termination of Gaussian 09 at Thu Sep  8 14:50:51 2022.

 ----------------------------------------------------------------------
 #P Geom=AllCheck Guess=TCheck SCRF=Check GenChk RB3LYP/6-31G(d,p) Freq
 ----------------------------------------------------------------------

 Structure from the checkpoint file:  "B3LYP6-31Gdp.Frag_1026.chk"
 ---------
 Frag_1026
 ---------
 Charge =  0 Multiplicity = 1

                         Standard orientation:
 ---------------------------------------------------------------------
 Center     Atomic      Atomic             Coordinates (Angstroms)
 Number     Number       Type             X           Y           Z
 ---------------------------------------------------------------------
      1          6           0        1.554150    1.299281   -0.040358
      2          6           0        0.837943    0.003785   -0.449989
      3          6           0        1.619372   -1.230010    0.022857
      4          6           0       -0.646895   -0.041314    0.006583
      5          7           0       -0.729914   -0.035138    1.461377
      6          7           0       -1.500284    1.021168   -0.553776
      7          8           0       -1.169082   -1.252285   -0.503987
      8          1           0        1.703932    1.356017    1.044632
      9          1           0        1.010713    2.195293   -0.359515
     10          1           0        2.547456    1.341655   -0.497649
     11          1           0        0.788045   -0.023251   -1.547268
     12          1           0        1.669277   -1.259455    1.115082
     13          1           0        2.641728   -1.210222   -0.370822
     14          1           0        1.134233   -2.147628   -0.314242
     15          1           0       -0.254434    0.779117    1.842849
     16          1           0       -1.708796    0.043368    1.731406
     17          1           0       -1.369339    1.075777   -1.563153
     18          1           0       -1.254290    1.928708   -0.167168
     19          1           0       -2.131902   -1.153762   -0.470016
 ---------------------------------------------------------------------

 SCF Done:  E(RB3LYP) =  -344.395509946     A.U. after    1 cycles

 The electronic state is 1-A.
 Alpha  occ. eigenvalues --  -19.13492 -14.31914 -14.31084 -10.28391 -10.18499
 Alpha  occ. eigenvalues --  -10.17943 -10.15756  -1.03036  -0.89486  -0.83892
 Alpha  occ. eigenvalues --   -0.78116  -0.67849  -0.63712  -0.55427  -0.50854
 Alpha  occ. eigenvalues --   -0.50484  -0.48237  -0.45556  -0.42849  -0.41831
 Alpha  occ. eigenvalues --   -0.38859  -0.37527  -0.36360  -0.33821  -0.32894
 Alpha  occ. eigenvalues --   -0.31922  -0.28047  -0.24965  -0.24627
 Alpha virt. eigenvalues --    0.05874   0.10527   0.11086   0.12099   0.13685
 Alpha virt. eigenvalues --    0.15316   0.15885   0.17453   0.17986   0.19417
 Alpha virt. eigenvalues --    0.20530   0.21575   0.23379   0.24793   0.26636

 Mulliken charges:
               1
     1  C   -0.326587
     2  C   -0.052235
     3  C   -0.303443
     4  C    0.462152
     5  N   -0.574131
     6  N   -0.609188
     7  O   -0.536659
     8  H    0.102051
     9  H    0.082664
    10  H    0.110107
    11  H    0.085282
    12  H    0.113679
    13  H    0.083498
    14  H    0.127201
    15  H    0.230406
    16  H    0.233698
    17  H    0.239705
    18  H    0.229908
    19  H    0.301888
 Sum of Mulliken charges =  -0.00000

 Dipole moment (field-independent basis, Debye):
    X=             -0.3241    Y=              2.6147    Z=             -0.2257  Tot=              2.6443
 Quadrupole moment (field-independent basis, Debye-Ang):
   XX=            -42.7460   YY=            -45.0403   ZZ=            -43.4134
   XY=              0.5076   XZ=             -0.8985   YZ=              1.2126

  Exact polarizability:  65.330   0.443  60.712  -0.004   0.626  57.766
 Approx polarizability:  84.469   1.440  83.270   1.016   2.412  84.007

                      1                      2                      3
                      A                      A                      A
 Frequencies --     69.5967               165.4582               215.6946
 Red. masses --      2.6333                 1.1399                 1.1031
 Frc consts  --      0.0075                 0.0184                 0.0302
 IR Inten    --      4.9681                19.2167                 1.0756

                      4                      5                      6
                      A                      A                      A
 Frequencies --    254.1618               260.4220               280.4119
 Red. masses --      1.5525                 1.4897                 2.2874
 Frc consts  --      0.0591                 0.0595                 0.1060
 IR Inten    --      8.1791                 5.5216                 4.6087

                      7                      8                      9
                      A                      A                      A
 Frequencies --    311.7860               345.3236               369.8955
 Red. masses --      1.2869                 2.1860                 1.6960
 Frc consts  --      0.0737                 0.1536                 0.1367
 IR Inten    --     28.2317                15.5761                20.7737

                     10                     11                     12
                      A                      A                      A
 Frequencies --    418.1661               481.7436               505.7855
 Red. masses --      2.2397                 2.0825                 2.4315
 Frc consts  --      0.2308                 0.2848                 0.3665
 IR Inten    --     24.1410                25.8268                58.8251

                     13                     14                     15
                      A                      A                      A
 Frequencies --    545.3139               589.6644               735.9081
 Red. masses --      3.1500                 2.8339                 3.0801
 Frc consts  --      0.5519                 0.5806                 0.9828
 IR Inten    --      3.0776                10.0632                 5.9282

                     16                     17                     18
                      A                      A                      A
 Frequencies --    852.0889               880.2496               909.4778
 Red. masses --      1.5323                 1.7149                 1.9277
 Frc consts  --      0.6555                 0.7829                 0.9395
 IR Inten    --    120.9579               119.2709                76.6678

                     19                     20                     21
                      A                      A                      A
 Frequencies --    937.8286               969.6978               986.1584
 Red. masses --      1.1853                 1.3989                 2.0131
 Frc consts  --      0.6142                 0.7750                 1.1535
 IR Inten    --      0.1857                 2.2891               129.3000

                     22                     23                     24
                      A                      A                      A
 Frequencies --   1015.7775              1067.5440              1126.4670
 Red. masses --      2.0556                 2.0706                 1.8904
 Frc consts  --      1.2496                 1.3903                 1.4133
 IR Inten    --     56.3695                44.6000                11.0905

                     25                     26                     27
                      A                      A                      A
 Frequencies --   1164.1486              1201.2838              1244.7985
 Red. masses --      1.5942                 1.9451                 1.5913
 Frc consts  --      1.2729                 1.6538                 1.4528
 IR Inten    --     18.4709                 9.0388               107.5393

                     28                     29                     30
                      A                      A                      A
 Frequencies --   1305.0641              1353.8428              1372.6755
 Red. masses --      1.8796                 1.3929                 1.5680
 Frc consts  --      1.8861                 1.5042                 1.7408
 IR Inten    --     18.3384                 0.9465                52.3755

                     31                     32                     33
                      A                      A                      A
 Frequencies --   1411.9205              1425.4426              1440.0972
 Red. masses --      1.2939                 1.4827                 1.4413
 Frc consts  --      1.5197                 1.7751                 1.7611
 IR Inten    --      0.5157                 7.0234                26.3624

                     34                     35                     36
                      A                      A                      A
 Frequencies --   1501.3302              1505.2964              1522.1795
 Red. masses --      1.0483                 1.0449                 1.0463
 Frc consts  --      1.3921                 1.3950                 1.4284
 IR Inten    --      2.1637                 0.3401                 3.6080

                     37                     38                     39
                      A                      A                      A
 Frequencies --   1530.6136              1646.1950              1667.0831
 Red. masses --      1.0614                 1.1098                 1.1123
 Frc consts  --      1.4650                 1.7719                 1.8213
 IR Inten    --     11.9873                32.4983                34.7377

                     40                     41                     42
                      A                      A                      A
 Frequencies --   3028.2495              3036.5329              3050.0119
 Red. masses --      1.0831                 1.0379                 1.0401
 Frc consts  --      5.8522                 5.6385                 5.7009
 IR Inten    --     18.3889                29.8934                30.1897

                     43                     44                     45
                      A                      A                      A
 Frequencies --   3101.7104              3112.5902              3120.9250
 Red. masses --      1.1009                 1.1004                 1.0988
 Frc consts  --      6.2404                 6.2814                 6.3058
 IR Inten    --     36.1248                22.1065                40.2948

                     46                     47                     48
                      A                      A                      A
 Frequencies --   3152.9821              3477.7850              3487.0753
 Red. masses --      1.1008                 1.0501                 1.0493
 Frc consts  --      6.4476                 7.4833                 7.5176
 IR Inten    --     14.9247                 0.8416                 0.4015

                     49                     50                     51
                      A                      A                      A
 Frequencies --   3575.7168              3578.2773              3784.8024
 Red. masses --      1.0923                 1.0915                 1.0652
 Frc consts  --      8.2286                 8.2345                 8.9898
 IR Inten    --      0.3450                 0.2080                17.9400

 - Thermochemistry -
 -------------------
 Temperature   298.150 Kelvin.  Pressure   1.00000 Atm.
 Atom     1 has atomic number  6 and mass  12.00000

 Molecular mass:   104.09496 amu.
 Principal axes and moments of inertia in atomic units:
                           1         2         3
     Eigenvalues --   558.51962 796.82328 960.71466
           X            0.99978  -0.02036  -0.00520
           Y            0.02034   0.99978  -0.00457
           Z            0.00529   0.00446   0.99998
 This molecule is an asymmetric top.
 Rotational symmetry number  1.
 Warning -- assumption of classical behavior for rotation
           may cause significant error
 Rotational temperatures (Kelvin)      0.15508     0.10870     0.09016
 Rotational constants (GHZ):           3.23129     2.26492     1.87854
 Zero-point vibrational energy     449157.4 (Joules/Mol)
                                  107.35119 (Kcal/Mol)
 Warning -- explicit consideration of  14 degrees of freedom as
           vibrations may cause significant error
 Vibrational temperatures:    100.13   238.06   310.34   365.68   374.69
          (Kelvin)            403.45   448.59   496.84   532.20   601.65
                              693.12   727.71   784.58   848.39  1058.81
                             1225.96  1266.48  1308.53  1349.32  1395.18
                             1418.86  1461.48  1535.96  1620.73  1674.95
                             1728.38  1790.99  1877.69  1947.88  1974.97
                             2031.44  2050.89  2071.98  2160.08  2165.78
                             2190.07  2202.21  2368.50  2398.56  4356.97
                             4368.89  4388.28  4462.66  4478.32  4490.31
                             4536.43  5003.75  5017.12  5144.65  5148.34
                             5445.48

 Zero-point correction=                           0.171075 (Hartree/Particle)
 Thermal correction to Energy=                    0.180082
 Thermal correction to Enthalpy=                  0.181026
 Thermal correction to Gibbs Free Energy=         0.138563
 Sum of electronic and zero-point Energies=           -344.224435
 Sum of electronic and thermal Energies=              -344.215428
 Sum of electronic and thermal Enthalpies=            -344.214484
 Sum of electronic and thermal Free Energies=         -344.256947

                     E (Thermal)             CV                S
                      KCal/Mol        Cal/Mol-Kelvin    Cal/Mol-Kelvin
 Total                  113.003             33.962             89.372
 Electronic               0.000              0.000              0.000
 Translational            0.889              2.981             39.838
 Rotational               0.889              2.981             27.549
 Vibrational            111.226             28.000             21.985
 Vibration     1          0.598              1.969              4.165
 Vibration     2          0.624              1.885              2.486
 Vibration     3          0.645              1.817              1.995
 Vibration     4          0.665              1.756              1.702
 Vibration     5          0.668              1.745              1.659
 Vibration     6          0.680              1.710              1.531
 Vibration     7          0.700              1.651              1.353
 Vibration     8          0.724              1.585              1.187
 Vibration     9          0.742              1.534              1.080
 Vibration    10          0.781              1.431              0.898
 Vibration    11          0.838              1.291              0.705
 Vibration    12          0.861              1.237              0.644
 Vibration    13          0.900              1.150              0.554
 Vibration    14          0.947              1.054              0.468

 Optimization completed.
    -- Stationary point found.
 Normal termination of Gaussian 09 at Thu Sep  8 14:51:11 2022.
