 Gaussian 09, Revision E.01,
 Gaussian 09:  ES64L-G09RevE.01 30-Nov-2015

 --------------------------------
 #P OPT=calcfc Freq B3LYP/6-31G**
 --------------------------------

 --------
 Frag_327
 --------
 Symbolic Z-matrix:
 Charge =  0 Multiplicity = 1

 SCF Done:  E(RB3LYP) =  -227.382856365     A.U. after   15 cycles
 SCF Done:  E(RB3LYP) =  -227.398317120     A.U. after   14 cycles
 SCF Done:  E(RB3LYP) =  -227.395632971     A.U. after   14 cycles
 SCF Done:  E(RB3LYP) =  -227.398516680     A.U. after   11 cycles
 SCF Done:  E(RB3LYP) =  -227.399361814     A.U. after   14 cycles
 SCF Done:  E(RB3LYP) =  -227.398219025     A.U. after   14 cycles
 SCF Done:  E(RB3LYP) =  -227.399472507     A.U. after   11 cycles
 SCF Done:  E(RB3LYP) =  -227.398659270     A.U. after   13 cycles
 SCF Done:  E(RB3LYP) =  -227.399570998     A.U. after    9 cycles
 SCF Done:  E(RB3LYP) =  -227.399613318     A.U. after   12 cycles
 SCF Done:  E(RB3LYP) =  -227.399614486     A.U. after    8 cycles
 Optimization completed.
    -- Stationary point found.
 Normal termination of Gaussian 09 at Fri Sep 10 15:24:54 2021.

 ----------------------------------------------------------------------
 #P Geom=AllCheck Guess=TCheck SCRF=Check GenChk RB3LYP/6-31G(d,p) Freq
 ----------------------------------------------------------------------

 Structure from the checkpoint file:  "/public/home/users/caep010/.cache/gau_scr/Gau-161912.chk"
 --------
 Frag_327
 --------
 Charge =  0 Multiplicity = 1

                         Standard orientation:
 ---------------------------------------------------------------------
 Center     Atomic      Atomic             Coordinates (Angstroms)
 Number     Number       Type             X           Y           Z
 ---------------------------------------------------------------------
      1          6           0        0.608425    1.414224    0.052405
      2          6           0        0.459880    0.076653    0.035348
      3          7           0        1.517057   -0.837284   -0.020631
      4          6           0       -0.874936   -0.569198    0.192080
      5          7           0       -2.016373   -0.108898   -0.137598
      6          1           0        1.577643    1.885881   -0.073783
      7          1           0       -0.235241    2.062659    0.254131
      8          1           0        2.413846   -0.432102   -0.255738
      9          1           0        1.334003   -1.670406   -0.566311
     10          1           0       -0.847844   -1.569027    0.641297
     11          1           0       -1.907409    0.816199   -0.570998
 ---------------------------------------------------------------------

 SCF Done:  E(RB3LYP) =  -227.399614486     A.U. after    1 cycles

 The electronic state is 1-A.
 Alpha  occ. eigenvalues --  -14.35002 -14.32369 -10.23476 -10.23434 -10.17697
 Alpha  occ. eigenvalues --   -0.92894  -0.89394  -0.74316  -0.64980  -0.55711
 Alpha  occ. eigenvalues --   -0.52815  -0.48869  -0.44799  -0.40878  -0.39763
 Alpha  occ. eigenvalues --   -0.36231  -0.30796  -0.26601  -0.21898
 Alpha virt. eigenvalues --   -0.03445   0.06171   0.09239   0.10872   0.12785
 Alpha virt. eigenvalues --    0.14295   0.18060   0.18950   0.26449   0.33698
 Alpha virt. eigenvalues --    0.35738   0.38138   0.53545   0.55468   0.57039

 Mulliken charges:
               1
     1  C   -0.312801
     2  C    0.291726
     3  N   -0.640124
     4  C    0.084203
     5  N   -0.466184
     6  H    0.089439
     7  H    0.099395
     8  H    0.259322
     9  H    0.260615
    10  H    0.107718
    11  H    0.226690
 Sum of Mulliken charges =  -0.00000

 Dipole moment (field-independent basis, Debye):
    X=              2.7674    Y=             -0.0215    Z=             -1.2247  Tot=              3.0263
 Quadrupole moment (field-independent basis, Debye-Ang):
   XX=            -32.8578   YY=            -27.0528   ZZ=            -31.7546
   XY=             -2.6334   XZ=             -1.9912   YZ=              0.9545

  Exact polarizability:  54.354  -0.266  56.849   0.783  -1.816  22.075
 Approx polarizability:  80.260  -1.649  92.564   3.878  -3.949  31.780

                      1                      2                      3
                      A                      A                      A
 Frequencies --    125.8112               292.0544               332.1325
 Red. masses --      2.0729                 2.9917                 1.1636
 Frc consts  --      0.0193                 0.1503                 0.0756
 IR Inten    --      0.8113                 5.4338                40.2366

                      4                      5                      6
                      A                      A                      A
 Frequencies --    441.5261               445.9983               581.8683
 Red. masses --      2.1425                 2.1841                 1.9639
 Frc consts  --      0.2461                 0.2560                 0.3918
 IR Inten    --      7.7130                11.7238               154.8771

                      7                      8                      9
                      A                      A                      A
 Frequencies --    647.4257               735.7398               819.8148
 Red. masses --      1.4290                 1.3296                 1.3745
 Frc consts  --      0.3529                 0.4241                 0.5443
 IR Inten    --     92.1165                46.2824                65.2642

                     10                     11                     12
                      A                      A                      A
 Frequencies --    865.5461               881.2785               992.7818
 Red. masses --      2.6668                 2.8039                 1.5795
 Frc consts  --      1.1771                 1.2830                 0.9172
 IR Inten    --     11.5744                 8.6963                11.3463

                     13                     14                     15
                      A                      A                      A
 Frequencies --   1129.6925              1151.0298              1246.9768
 Red. masses --      1.4248                 1.0900                 1.2075
 Frc consts  --      1.0713                 0.8509                 1.1063
 IR Inten    --      2.3933                45.7515                82.4654

                     16                     17                     18
                      A                      A                      A
 Frequencies --   1347.0106              1438.4788              1455.5533
 Red. masses --      2.4585                 1.4357                 1.1801
 Frc consts  --      2.6282                 1.7503                 1.4730
 IR Inten    --     72.2867                14.4277                 1.2642

                     19                     20                     21
                      A                      A                      A
 Frequencies --   1658.9039              1691.4216              1734.0962
 Red. masses --      1.2481                 4.3870                 5.9534
 Frc consts  --      2.0236                 7.3947                10.5478
 IR Inten    --     19.5608               113.0977                32.6762

                     22                     23                     24
                      A                      A                      A
 Frequencies --   3084.8239              3171.9939              3261.4324
 Red. masses --      1.0875                 1.0603                 1.1155
 Frc consts  --      6.0973                 6.2858                 6.9907
 IR Inten    --     37.9588                 3.4463                 7.3005

                     25                     26                     27
                      A                      A                      A
 Frequencies --   3411.8782              3551.5613              3658.4178
 Red. masses --      1.0730                 1.0480                 1.0979
 Frc consts  --      7.3595                 7.7881                 8.6579
 IR Inten    --      5.1949                 9.9894                 9.7633

 - Thermochemistry -
 -------------------
 Temperature   298.150 Kelvin.  Pressure   1.00000 Atm.
 Atom     1 has atomic number  6 and mass  12.00000

 Molecular mass:    70.05310 amu.
 Principal axes and moments of inertia in atomic units:
                           1         2         3
     Eigenvalues --   192.43499 435.11567 613.61488
           X            0.99986  -0.01415  -0.00860
           Y            0.01414   0.99990  -0.00062
           Z            0.00861   0.00050   0.99996
 This molecule is an asymmetric top.
 Rotational symmetry number  1.
 Rotational temperatures (Kelvin)      0.45009     0.19906     0.14115
 Rotational constants (GHZ):           9.37845     4.14773     2.94116
 Zero-point vibrational energy     240181.7 (Joules/Mol)
                                   57.40481 (Kcal/Mol)
 Warning -- explicit consideration of   6 degrees of freedom as
           vibrations may cause significant error
 Vibrational temperatures:    181.01   420.20   477.86   635.26   641.69
          (Kelvin)            837.18   931.50  1058.56  1179.53  1245.33
                             1267.96  1428.39  1625.37  1656.07  1794.12
                             1938.05  2069.65  2094.21  2386.79  2433.58
                             2494.97  4438.37  4563.79  4692.47  4908.93
                             5109.90  5263.64

 Zero-point correction=                           0.091480 (Hartree/Particle)
 Thermal correction to Energy=                    0.097069
 Thermal correction to Enthalpy=                  0.098013
 Thermal correction to Gibbs Free Energy=         0.063148
 Sum of electronic and zero-point Energies=           -227.308134
 Sum of electronic and thermal Energies=              -227.302545
 Sum of electronic and thermal Enthalpies=            -227.301601
 Sum of electronic and thermal Free Energies=         -227.336467

                     E (Thermal)             CV                S
                      KCal/Mol        Cal/Mol-Kelvin    Cal/Mol-Kelvin
 Total                   60.912             19.873             73.381
 Electronic               0.000              0.000              0.000
 Translational            0.889              2.981             38.657
 Rotational               0.889              2.981             25.444
 Vibrational             59.134             13.912              9.280
 Vibration     1          0.611              1.927              3.009
 Vibration     2          0.687              1.689              1.462
 Vibration     3          0.714              1.611              1.250
 Vibration     4          0.801              1.380              0.822
 Vibration     5          0.805              1.370              0.808
 Vibration     6          0.939              1.071              0.482

 Optimization completed.
    -- Stationary point found.
 Normal termination of Gaussian 09 at Fri Sep 10 15:25:02 2021.
