 Gaussian 09, Revision E.01,
 Gaussian 09:  ES64L-G09RevE.01 30-Nov-2015

 ----------------------------
 #P OPT Freq B3LYP/6-31G(d,p)
 ----------------------------

 --------
 Frag_543
 --------
 Symbolic Z-matrix:
 Charge =  0 Multiplicity = 1

 SCF Done:  E(RB3LYP) =  -342.386860057     A.U. after   15 cycles
 SCF Done:  E(RB3LYP) =  -342.386992571     A.U. after    9 cycles
 SCF Done:  E(RB3LYP) =  -342.386999015     A.U. after    9 cycles
 SCF Done:  E(RB3LYP) =  -342.386999531     A.U. after    8 cycles
 SCF Done:  E(RB3LYP) =  -342.386998829     A.U. after    9 cycles
 Optimization completed.
    -- Stationary point found.
 Normal termination of Gaussian 09 at Thu Sep  8 15:08:35 2022.

 ----------------------------------------------------------------------
 #P Geom=AllCheck Guess=TCheck SCRF=Check GenChk RB3LYP/6-31G(d,p) Freq
 ----------------------------------------------------------------------

 Structure from the checkpoint file:  "B3LYP6-31Gdp.Frag_543.chk"
 --------
 Frag_543
 --------
 Charge =  0 Multiplicity = 1

                         Standard orientation:
 ---------------------------------------------------------------------
 Center     Atomic      Atomic             Coordinates (Angstroms)
 Number     Number       Type             X           Y           Z
 ---------------------------------------------------------------------
      1          6           0       -1.507239    1.125179   -0.000211
      2          6           0       -0.714945    0.052193    0.000271
      3          8           0       -1.118196   -1.261775    0.000034
      4          6           0        0.786591    0.174071    0.001218
      5          8           0        1.362152    1.235170   -0.000367
      6          8           0        1.448273   -1.001063   -0.000419
      7          1           0       -1.051661    2.106030    0.000075
      8          1           0       -2.589880    1.049823   -0.000815
      9          1           0       -2.083042   -1.317340   -0.000472
     10          1           0        0.800310   -1.725827   -0.000437
 ---------------------------------------------------------------------

 SCF Done:  E(RB3LYP) =  -342.386998829     A.U. after    1 cycles

 The electronic state is 1-A.
 Alpha  occ. eigenvalues --  -19.21451 -19.19354 -19.13469 -10.32408 -10.27520
 Alpha  occ. eigenvalues --  -10.20239  -1.11047  -1.08059  -1.01894  -0.78687
 Alpha  occ. eigenvalues --   -0.67500  -0.61108  -0.55796  -0.51606  -0.45826
 Alpha  occ. eigenvalues --   -0.44468  -0.43928  -0.40725  -0.40232  -0.37781
 Alpha  occ. eigenvalues --   -0.31705  -0.27762  -0.26027
 Alpha virt. eigenvalues --   -0.04245   0.03943   0.09452   0.10447   0.12450
 Alpha virt. eigenvalues --    0.14903   0.23211   0.26263   0.33175   0.33970
 Alpha virt. eigenvalues --    0.36270   0.50580   0.53969   0.56473   0.58882

 Mulliken charges:
               1
     1  C   -0.281508
     2  C    0.295886
     3  O   -0.578556
     4  C    0.585614
     5  O   -0.452641
     6  O   -0.491258
     7  H    0.149830
     8  H    0.099031
     9  H    0.331485
    10  H    0.342115
 Sum of Mulliken charges =  -0.00000

 Dipole moment (field-independent basis, Debye):
    X=             -4.5703    Y=             -2.1717    Z=              0.0019  Tot=              5.0600
 Quadrupole moment (field-independent basis, Debye-Ang):
   XX=            -32.4168   YY=            -32.6587   ZZ=            -34.5617
   XY=             -0.9286   XZ=              0.0067   YZ=              0.0027

  Exact polarizability:  48.543  -4.421  50.853   0.002  -0.003  17.783
 Approx polarizability:  69.288  -8.405  86.854  -0.003  -0.015  25.545

                      1                      2                      3
                      A                      A                      A
 Frequencies --     83.8880               288.3059               323.3681
 Red. masses --      6.5058                 4.2737                 1.1096
 Frc consts  --      0.0270                 0.2093                 0.0684
 IR Inten    --      8.7726                 9.6510               126.5752

                      4                      5                      6
                      A                      A                      A
 Frequencies --    413.5776               424.8974               540.9977
 Red. masses --      3.5439                 3.6823                 7.1374
 Frc consts  --      0.3571                 0.3917                 1.2308
 IR Inten    --      6.5507                41.6597                 5.9948

                      7                      8                      9
                      A                      A                      A
 Frequencies --    593.5038               595.7273               728.2268
 Red. masses --      3.7299                 1.1290                 1.4707
 Frc consts  --      0.7741                 0.2361                 0.4595
 IR Inten    --     12.8384                77.4748                 1.0875

                     10                     11                     12
                      A                      A                      A
 Frequencies --    784.2670               807.6871               880.9563
 Red. masses --      3.0750                 5.8319                 1.3482
 Frc consts  --      1.1143                 2.2415                 0.6165
 IR Inten    --     13.8812                 9.5295                48.4865

                     13                     14                     15
                      A                      A                      A
 Frequencies --    965.5289              1157.4534              1185.1385
 Red. masses --      1.8507                 1.6057                 2.8428
 Frc consts  --      1.0165                 1.2674                 2.3525
 IR Inten    --     15.1501               140.5573                35.1443

                     16                     17                     18
                      A                      A                      A
 Frequencies --   1362.7295              1395.9637              1437.8868
 Red. masses --      1.4039                 2.9447                 1.2683
 Frc consts  --      1.5361                 3.3809                 1.5450
 IR Inten    --    298.6648               254.9466                75.5874

                     19                     20                     21
                      A                      A                      A
 Frequencies --   1730.8528              1868.2293              3179.5993
 Red. masses --      6.3163                10.2632                 1.0634
 Frc consts  --     11.1489                21.1054                 6.3343
 IR Inten    --     71.8737               190.0576                 7.5399

                     22                     23                     24
                      A                      A                      A
 Frequencies --   3289.3900              3737.0297              3824.0701
 Red. masses --      1.1145                 1.0650                 1.0662
 Frc consts  --      7.1048                 8.7628                 9.1862
 IR Inten    --      0.9233                97.2549                36.3148

 - Thermochemistry -
 -------------------
 Temperature   298.150 Kelvin.  Pressure   1.00000 Atm.
 Atom     1 has atomic number  6 and mass  12.00000

 Molecular mass:    88.01604 amu.
 Principal axes and moments of inertia in atomic units:
                           1         2         3
     Eigenvalues --   326.89165 489.04651 815.93798
           X            0.99694  -0.07821   0.00002
           Y            0.07821   0.99694   0.00001
           Z           -0.00002  -0.00000   1.00000
 This molecule is an asymmetric top.
 Rotational symmetry number  1.
 Rotational temperatures (Kelvin)      0.26496     0.17711     0.10615
 Rotational constants (GHZ):           5.52092     3.69033     2.21186
 Zero-point vibrational energy     189005.6 (Joules/Mol)
                                   45.17343 (Kcal/Mol)
 Warning -- explicit consideration of   8 degrees of freedom as
           vibrations may cause significant error
 Vibrational temperatures:    120.70   414.81   465.25   595.05   611.33
          (Kelvin)            778.37   853.92   857.12  1047.75  1128.38
                             1162.08  1267.50  1389.18  1665.32  1705.15
                             1960.66  2008.48  2068.80  2490.31  2687.96
                             4574.73  4732.69  5376.75  5501.98

 Zero-point correction=                           0.071988 (Hartree/Particle)
 Thermal correction to Energy=                    0.077942
 Thermal correction to Enthalpy=                  0.078886
 Thermal correction to Gibbs Free Energy=         0.042462
 Sum of electronic and zero-point Energies=           -342.315010
 Sum of electronic and thermal Energies=              -342.309057
 Sum of electronic and thermal Enthalpies=            -342.308113
 Sum of electronic and thermal Free Energies=         -342.344537

                     E (Thermal)             CV                S
                      KCal/Mol        Cal/Mol-Kelvin    Cal/Mol-Kelvin
 Total                   48.909             21.205             76.661
 Electronic               0.000              0.000              0.000
 Translational            0.889              2.981             39.338
 Rotational               0.889              2.981             26.370
 Vibrational             47.132             15.244             10.954
 Vibration     1          0.601              1.960              3.798
 Vibration     2          0.685              1.695              1.484
 Vibration     3          0.708              1.629              1.293
 Vibration     4          0.777              1.441              0.914
 Vibration     5          0.787              1.416              0.875
 Vibration     6          0.896              1.159              0.563
 Vibration     7          0.951              1.046              0.461
 Vibration     8          0.953              1.041              0.457

 Optimization completed.
    -- Stationary point found.
 Normal termination of Gaussian 09 at Thu Sep  8 15:08:43 2022.
