 Gaussian 09, Revision D.01,
 Gaussian 09:  ES64L-G09RevD.01 24-Apr-2013

 --------------------------------
 #P OPT=calcfc Freq B3LYP/6-31G**
 --------------------------------

 --------
 Frag_106
 --------
 Symbolic Z-matrix:
 Charge =  0 Multiplicity = 1

 SCF Done:  E(RB3LYP) =  -173.264262075     A.U. after   13 cycles
 SCF Done:  E(RB3LYP) =  -173.266535809     A.U. after   13 cycles
 SCF Done:  E(RB3LYP) =  -173.269700401     A.U. after   13 cycles
 SCF Done:  E(RB3LYP) =  -173.229287592     A.U. after   13 cycles
 SCF Done:  E(RB3LYP) =  -173.269727125     A.U. after    8 cycles
 SCF Done:  E(RB3LYP) =  -173.272693197     A.U. after   11 cycles
 SCF Done:  E(RB3LYP) =  -173.273106446     A.U. after   11 cycles
 SCF Done:  E(RB3LYP) =  -173.273251307     A.U. after   13 cycles
 SCF Done:  E(RB3LYP) =  -173.265782740     A.U. after   12 cycles
 SCF Done:  E(RB3LYP) =  -173.273355907     A.U. after    9 cycles
 SCF Done:  E(RB3LYP) =  -173.273497282     A.U. after   11 cycles
 SCF Done:  E(RB3LYP) =  -173.273537189     A.U. after    9 cycles
 SCF Done:  E(RB3LYP) =  -173.273549357     A.U. after    9 cycles
 SCF Done:  E(RB3LYP) =  -173.273552508     A.U. after    9 cycles
 SCF Done:  E(RB3LYP) =  -173.273552875     A.U. after    7 cycles
 SCF Done:  E(RB3LYP) =  -173.273552904     A.U. after    7 cycles
 Optimization completed.
    -- Stationary point found.
 Normal termination of Gaussian 09 at Fri Jul 23 16:01:38 2021.

 ----------------------------------------------------------------------
 #P Geom=AllCheck Guess=TCheck SCRF=Check GenChk RB3LYP/6-31G(d,p) Freq
 ----------------------------------------------------------------------

 Structure from the checkpoint file:  "/vol2/users/liuj201281/HOFBenchmark/IsodesmicSplit/Sample60/Ring26/Running/Gau-533017.chk"
 --------
 Frag_106
 --------
 Charge =  0 Multiplicity = 1

                         Standard orientation:
 ---------------------------------------------------------------------
 Center     Atomic      Atomic             Coordinates (Angstroms)
 Number     Number       Type             X           Y           Z
 ---------------------------------------------------------------------
      1          6           0        1.568641   -0.475634    0.006627
      2          6           0        0.613586    0.685948    0.010830
      3          6           0       -0.726253    0.607616    0.000522
      4          7           0       -1.510463   -0.547404   -0.093370
      5          1           0        2.428099   -0.282050    0.658657
      6          1           0        1.103764   -1.404040    0.360332
      7          1           0        1.970201   -0.682158   -0.995070
      8          1           0        1.047898    1.681482   -0.007245
      9          1           0       -1.314787    1.522419    0.000052
     10          1           0       -2.378898   -0.501361    0.424309
     11          1           0       -1.018870   -1.410040    0.104682
 ---------------------------------------------------------------------

 SCF Done:  E(RB3LYP) =  -173.273552904     A.U. after    1 cycles

 The electronic state is 1-A.
 Alpha  occ. eigenvalues --  -14.33161 -10.20294 -10.17486 -10.15918  -0.89666
 Alpha  occ. eigenvalues --   -0.75295  -0.66677  -0.54918  -0.51365  -0.44342
 Alpha  occ. eigenvalues --   -0.42266  -0.39975  -0.36027  -0.34320  -0.31867
 Alpha  occ. eigenvalues --   -0.19166
 Alpha virt. eigenvalues --    0.05639   0.07713   0.11047   0.13791   0.17404
 Alpha virt. eigenvalues --    0.18131   0.19831   0.21958   0.23902   0.34857
 Alpha virt. eigenvalues --    0.42348   0.51010   0.53738   0.55122   0.60581

 Mulliken charges:
               1
     1  C   -0.349913
     2  C   -0.097999
     3  C    0.074067
     4  N   -0.603836
     5  H    0.109153
     6  H    0.085302
     7  H    0.117374
     8  H    0.071970
     9  H    0.088397
    10  H    0.254005
    11  H    0.251478
 Sum of Mulliken charges =   0.00000

 Dipole moment (field-independent basis, Debye):
    X=             -0.6299    Y=             -0.6226    Z=              1.0654  Tot=              1.3854
 Quadrupole moment (field-independent basis, Debye-Ang):
   XX=            -22.7265   YY=            -23.4805   ZZ=            -27.9188
   XY=              0.1582   XZ=             -2.5614   YZ=             -0.8948

  Exact polarizability:  56.961   1.692  38.886  -0.990   0.018  23.241
 Approx polarizability:  83.457   5.776  52.246  -0.322   0.599  31.869

                      1                      2                      3
                      A                      A                      A
 Frequencies --     95.2776               272.8712               293.6302
 Red. masses --      1.0941                 2.0598                 1.2936
 Frc consts  --      0.0059                 0.0904                 0.0657
 IR Inten    --      1.0423                 5.3380                28.2570

                      4                      5                      6
                      A                      A                      A
 Frequencies --    464.6333               622.2349               661.1834
 Red. masses --      1.9119                 2.1766                 1.2504
 Frc consts  --      0.2432                 0.4965                 0.3221
 IR Inten    --     41.0761                17.8272               288.1639

                      7                      8                      9
                      A                      A                      A
 Frequencies --    739.0703               919.1480               960.6831
 Red. masses --      1.4620                 2.4381                 1.2365
 Frc consts  --      0.4705                 1.2136                 0.6723
 IR Inten    --     30.5226                 0.5957                 3.9102

                     10                     11                     12
                      A                      A                      A
 Frequencies --   1047.3591              1065.6740              1099.2914
 Red. masses --      1.4706                 1.5008                 1.6958
 Frc consts  --      0.9504                 1.0042                 1.2074
 IR Inten    --     10.9160                 5.4304                16.3070

                     13                     14                     15
                      A                      A                      A
 Frequencies --   1220.8099              1325.3376              1416.8598
 Red. masses --      1.5054                 1.3652                 1.1984
 Frc consts  --      1.3219                 1.4128                 1.4175
 IR Inten    --      2.4063                29.2113                 7.1731

                     16                     17                     18
                      A                      A                      A
 Frequencies --   1452.2647              1496.5627              1512.1138
 Red. masses --      1.4434                 1.0457                 1.0681
 Frc consts  --      1.7936                 1.3799                 1.4390
 IR Inten    --      5.0891                 3.6589                 1.7503

                     19                     20                     21
                      A                      A                      A
 Frequencies --   1657.0189              1753.6254              3016.2584
 Red. masses --      1.1526                 5.0815                 1.0388
 Frc consts  --      1.8646                 9.2070                 5.5681
 IR Inten    --     32.3965                87.1082                41.4091

                     22                     23                     24
                      A                      A                      A
 Frequencies --   3066.0545              3090.0712              3167.8971
 Red. masses --      1.0981                 1.1002                 1.0851
 Frc consts  --      6.0822                 6.1894                 6.4158
 IR Inten    --     36.8418                32.0540                 4.2262

                     25                     26                     27
                      A                      A                      A
 Frequencies --   3191.2481              3548.0493              3652.7446
 Red. masses --      1.0948                 1.0474                 1.0974
 Frc consts  --      6.5690                 7.7682                 8.6266
 IR Inten    --     31.1041                 3.4847                 4.7309

 - Thermochemistry -
 -------------------
 Temperature   298.150 Kelvin.  Pressure   1.00000 Atm.
 Atom     1 has atomic number  6 and mass  12.00000

 Molecular mass:    57.05785 amu.
 Principal axes and moments of inertia in atomic units:
                           1         2         3
     Eigenvalues --   102.80521 338.67529 428.20100
           X            0.99976  -0.01866  -0.01145
           Y            0.01848   0.99972  -0.01509
           Z            0.01173   0.01488   0.99982
 This molecule is an asymmetric top.
 Rotational symmetry number  1.
 Rotational temperatures (Kelvin)      0.84250     0.25574     0.20227
 Rotational constants (GHZ):          17.55496     5.32882     4.21471
 Zero-point vibrational energy     256048.5 (Joules/Mol)
                                   61.19707 (Kcal/Mol)
 Warning -- explicit consideration of   4 degrees of freedom as
           vibrations may cause significant error
 Vibrational temperatures:    137.08   392.60   422.47   668.50   895.26
          (Kelvin)            951.29  1063.36  1322.45  1382.21  1506.91
                             1533.27  1581.63  1756.47  1906.86  2038.54
                             2089.48  2153.22  2175.59  2384.08  2523.07
                             4339.72  4411.36  4445.92  4557.89  4591.49
                             5104.85  5255.48

 Zero-point correction=                           0.097524 (Hartree/Particle)
 Thermal correction to Energy=                    0.102840
 Thermal correction to Enthalpy=                  0.103784
 Thermal correction to Gibbs Free Energy=         0.069954
 Sum of electronic and zero-point Energies=           -173.176029
 Sum of electronic and thermal Energies=              -173.170713
 Sum of electronic and thermal Enthalpies=            -173.169769
 Sum of electronic and thermal Free Energies=         -173.203599

                     E (Thermal)             CV                S
                      KCal/Mol        Cal/Mol-Kelvin    Cal/Mol-Kelvin
 Total                   64.533             17.852             71.201
 Electronic               0.000              0.000              0.000
 Translational            0.889              2.981             38.046
 Rotational               0.889              2.981             24.215
 Vibrational             62.756             11.890              8.941
 Vibration     1          0.603              1.953              3.549
 Vibration     2          0.676              1.723              1.578
 Vibration     3          0.688              1.686              1.453
 Vibration     4          0.822              1.329              0.753

 Optimization completed.
    -- Stationary point found.
 Normal termination of Gaussian 09 at Fri Jul 23 16:01:46 2021.
