 Gaussian 09, Revision E.01,
 Gaussian 09:  ES64L-G09RevE.01 30-Nov-2015

 --------------------------------
 #P OPT=calcfc Freq B3LYP/6-31G**
 --------------------------------

 --------
 Frag_288
 --------
 Symbolic Z-matrix:
 Charge =  0 Multiplicity = 1

 SCF Done:  E(RB3LYP) =  -227.398888554     A.U. after   14 cycles
 SCF Done:  E(RB3LYP) =  -227.414244071     A.U. after   14 cycles
 SCF Done:  E(RB3LYP) =  -227.409983655     A.U. after   13 cycles
 SCF Done:  E(RB3LYP) =  -227.414281858     A.U. after   10 cycles
 SCF Done:  E(RB3LYP) =  -227.414671086     A.U. after   12 cycles
 SCF Done:  E(RB3LYP) =  -227.414643944     A.U. after   13 cycles
 SCF Done:  E(RB3LYP) =  -227.414770624     A.U. after   10 cycles
 SCF Done:  E(RB3LYP) =  -227.414795125     A.U. after    9 cycles
 SCF Done:  E(RB3LYP) =  -227.414795566     A.U. after    8 cycles
 Optimization completed.
    -- Stationary point found.
 Normal termination of Gaussian 09 at Fri Sep 10 20:07:40 2021.

 ----------------------------------------------------------------------
 #P Geom=AllCheck Guess=TCheck SCRF=Check GenChk RB3LYP/6-31G(d,p) Freq
 ----------------------------------------------------------------------

 Structure from the checkpoint file:  "/public/home/users/caep010/.cache/gau_scr/Gau-80446.chk"
 --------
 Frag_288
 --------
 Charge =  0 Multiplicity = 1

                         Standard orientation:
 ---------------------------------------------------------------------
 Center     Atomic      Atomic             Coordinates (Angstroms)
 Number     Number       Type             X           Y           Z
 ---------------------------------------------------------------------
      1          6           0       -1.944034    0.049643   -0.114059
      2          6           0       -0.822712   -0.630487    0.140846
      3          6           0        0.554927   -0.088638    0.023847
      4          7           0        1.614489   -0.807280   -0.094018
      5          7           0        0.664109    1.295074   -0.014472
      6          1           0       -1.922591    1.082303   -0.448738
      7          1           0       -2.920060   -0.416036   -0.021617
      8          1           0       -0.877908   -1.676171    0.436891
      9          1           0        1.362462   -1.795838   -0.142040
     10          1           0        0.052007    1.802285    0.609757
     11          1           0        1.626814    1.605793    0.021368
 ---------------------------------------------------------------------

 SCF Done:  E(RB3LYP) =  -227.414795566     A.U. after    1 cycles

 The electronic state is 1-A.
 Alpha  occ. eigenvalues --  -14.33916 -14.29384 -10.25606 -10.20499 -10.20068
 Alpha  occ. eigenvalues --   -0.94015  -0.84270  -0.77863  -0.62640  -0.56743
 Alpha  occ. eigenvalues --   -0.53059  -0.45937  -0.45211  -0.43452  -0.37739
 Alpha  occ. eigenvalues --   -0.37148  -0.27766  -0.25738  -0.23604
 Alpha virt. eigenvalues --   -0.03101   0.07779   0.09757   0.10895   0.13415
 Alpha virt. eigenvalues --    0.14556   0.17542   0.19509   0.28399   0.31108
 Alpha virt. eigenvalues --    0.37281   0.40927   0.52596   0.53669   0.55002

 Mulliken charges:
               1
     1  C   -0.241887
     2  C   -0.061751
     3  C    0.423709
     4  N   -0.570013
     5  N   -0.613074
     6  H    0.114842
     7  H    0.110348
     8  H    0.094167
     9  H    0.218181
    10  H    0.255810
    11  H    0.269670
 Sum of Mulliken charges =   0.00000

 Dipole moment (field-independent basis, Debye):
    X=             -2.2163    Y=              0.6772    Z=              1.1414  Tot=              2.5833
 Quadrupole moment (field-independent basis, Debye-Ang):
   XX=            -32.4564   YY=            -24.5341   ZZ=            -32.1152
   XY=              2.2352   XZ=              0.5243   YZ=              1.4347

  Exact polarizability:  63.332  -8.255  50.597   0.366  -1.618  20.635
 Approx polarizability: 101.071 -25.133  77.385   1.337  -3.434  29.601

                      1                      2                      3
                      A                      A                      A
 Frequencies --    130.2308               284.4635               407.5439
 Red. masses --      2.4506                 2.9451                 1.2017
 Frc consts  --      0.0245                 0.1404                 0.1176
 IR Inten    --      1.8825                 2.5193                32.7334

                      4                      5                      6
                      A                      A                      A
 Frequencies --    467.5503               518.6936               566.7109
 Red. masses --      1.5884                 2.8261                 2.1542
 Frc consts  --      0.2046                 0.4480                 0.4076
 IR Inten    --     26.2753                 6.9826                38.8689

                      7                      8                      9
                      A                      A                      A
 Frequencies --    649.1482               797.0529               833.4522
 Red. masses --      1.3157                 3.1365                 2.5159
 Frc consts  --      0.3267                 1.1740                 1.0297
 IR Inten    --    185.1025                50.5182                 2.7455

                     10                     11                     12
                      A                      A                      A
 Frequencies --    855.7413               967.9514              1028.5138
 Red. masses --      1.1850                 1.3769                 1.0929
 Frc consts  --      0.5113                 0.7601                 0.6812
 IR Inten    --     42.6071                27.0286                20.6782

                     13                     14                     15
                      A                      A                      A
 Frequencies --   1055.2205              1154.9921              1175.7537
 Red. masses --      1.5867                 1.4966                 1.3023
 Frc consts  --      1.0410                 1.1763                 1.0607
 IR Inten    --     12.7479                19.5436                89.3779

                     16                     17                     18
                      A                      A                      A
 Frequencies --   1326.7456              1426.0168              1471.6652
 Red. masses --      1.3132                 1.5522                 1.7785
 Frc consts  --      1.3619                 1.8597                 2.2694
 IR Inten    --      5.0278                22.8427                48.0237

                     19                     20                     21
                      A                      A                      A
 Frequencies --   1626.0280              1680.9521              1730.8533
 Red. masses --      1.3974                 3.6786                 4.6448
 Frc consts  --      2.1769                 6.1242                 8.1985
 IR Inten    --     52.6731               104.0949                73.8212

                     22                     23                     24
                      A                      A                      A
 Frequencies --   3161.6802              3173.2706              3251.4835
 Red. masses --      1.0609                 1.0903                 1.1165
 Frc consts  --      6.2484                 6.4688                 6.9545
 IR Inten    --      5.7871                 5.3684                 9.3336

                     25                     26                     27
                      A                      A                      A
 Frequencies --   3485.9721              3563.7557              3680.3872
 Red. masses --      1.0749                 1.0468                 1.0991
 Frc consts  --      7.6963                 7.8330                 8.7718
 IR Inten    --      1.5456                14.8945                16.1351

 - Thermochemistry -
 -------------------
 Temperature   298.150 Kelvin.  Pressure   1.00000 Atm.
 Atom     1 has atomic number  6 and mass  12.00000

 Molecular mass:    70.05310 amu.
 Principal axes and moments of inertia in atomic units:
                           1         2         3
     Eigenvalues --   186.10370 423.90516 600.62390
           X            0.99992   0.01254   0.00343
           Y           -0.01256   0.99991   0.00373
           Z           -0.00339  -0.00377   0.99999
 This molecule is an asymmetric top.
 Rotational symmetry number  1.
 Rotational temperatures (Kelvin)      0.46541     0.20432     0.14421
 Rotational constants (GHZ):           9.69750     4.25742     3.00478
 Zero-point vibrational energy     242075.3 (Joules/Mol)
                                   57.85738 (Kcal/Mol)
 Warning -- explicit consideration of   6 degrees of freedom as
           vibrations may cause significant error
 Vibrational temperatures:    187.37   409.28   586.36   672.70   746.28
          (Kelvin)            815.37   933.98  1146.78  1199.15  1231.22
                             1392.66  1479.80  1518.22  1661.77  1691.65
                             1908.89  2051.72  2117.40  2339.49  2418.51
                             2490.31  4548.95  4565.62  4678.15  5015.53
                             5127.44  5295.25

 Zero-point correction=                           0.092202 (Hartree/Particle)
 Thermal correction to Energy=                    0.097613
 Thermal correction to Enthalpy=                  0.098557
 Thermal correction to Gibbs Free Energy=         0.064046
 Sum of electronic and zero-point Energies=           -227.322594
 Sum of electronic and thermal Energies=              -227.317182
 Sum of electronic and thermal Enthalpies=            -227.316238
 Sum of electronic and thermal Free Energies=         -227.350749

                     E (Thermal)             CV                S
                      KCal/Mol        Cal/Mol-Kelvin    Cal/Mol-Kelvin
 Total                   61.253             19.394             72.634
 Electronic               0.000              0.000              0.000
 Translational            0.889              2.981             38.657
 Rotational               0.889              2.981             25.364
 Vibrational             59.476             13.433              8.614
 Vibration     1          0.612              1.923              2.943
 Vibration     2          0.683              1.702              1.507
 Vibration     3          0.772              1.454              0.935
 Vibration     4          0.825              1.322              0.744
 Vibration     5          0.874              1.209              0.613
 Vibration     6          0.923              1.103              0.511

 Optimization completed.
    -- Stationary point found.
 Normal termination of Gaussian 09 at Fri Sep 10 20:07:48 2021.
