 Gaussian 09, Revision E.01,
 Gaussian 09:  ES64L-G09RevE.01 30-Nov-2015

 ----------------------------
 #P OPT Freq B3LYP/6-31G(d,p)
 ----------------------------

 --------
 Frag_774
 --------
 Symbolic Z-matrix:
 Charge =  0 Multiplicity = 1

 SCF Done:  E(RB3LYP) =  -280.485136494     A.U. after   15 cycles
 SCF Done:  E(RB3LYP) =  -280.485212644     A.U. after   12 cycles
 SCF Done:  E(RB3LYP) =  -280.485230832     A.U. after   10 cycles
 SCF Done:  E(RB3LYP) =  -280.485249980     A.U. after   11 cycles
 SCF Done:  E(RB3LYP) =  -280.485261231     A.U. after    9 cycles
 SCF Done:  E(RB3LYP) =  -280.485265346     A.U. after   11 cycles
 SCF Done:  E(RB3LYP) =  -280.485268405     A.U. after    9 cycles
 Optimization completed.
    -- Stationary point found.
 Normal termination of Gaussian 09 at Thu Sep  8 15:19:59 2022.

 ----------------------------------------------------------------------
 #P Geom=AllCheck Guess=TCheck SCRF=Check GenChk RB3LYP/6-31G(d,p) Freq
 ----------------------------------------------------------------------

 Structure from the checkpoint file:  "B3LYP6-31Gdp.Frag_774.chk"
 --------
 Frag_774
 --------
 Charge =  0 Multiplicity = 1

                         Standard orientation:
 ---------------------------------------------------------------------
 Center     Atomic      Atomic             Coordinates (Angstroms)
 Number     Number       Type             X           Y           Z
 ---------------------------------------------------------------------
      1          6           0       -1.665950   -0.517350    0.127426
      2          7           0       -0.372458   -0.006547   -0.287963
      3          8           0       -0.217103    1.354158    0.014504
      4          7           0        0.685845   -0.786710   -0.092566
      5          7           0        1.745920   -0.118293    0.112565
      6          1           0       -1.813442   -0.387989    1.206105
      7          1           0       -1.697659   -1.575358   -0.133389
      8          1           0       -2.444361    0.023316   -0.413148
      9          1           0        0.764216    1.386829    0.157177
     10          1           0        2.508621   -0.795110    0.178411
 ---------------------------------------------------------------------

 SCF Done:  E(RB3LYP) =  -280.485268405     A.U. after    1 cycles

 The electronic state is 1-A.
 Alpha  occ. eigenvalues --  -19.18460 -14.44297 -14.42264 -14.35740 -10.23285
 Alpha  occ. eigenvalues --   -1.13031  -1.00956  -0.88193  -0.74097  -0.61774
 Alpha  occ. eigenvalues --   -0.54472  -0.49909  -0.49031  -0.45537  -0.42179
 Alpha  occ. eigenvalues --   -0.40024  -0.37350  -0.33943  -0.26571  -0.22974
 Alpha virt. eigenvalues --   -0.02659   0.08944   0.11109   0.11721   0.15132
 Alpha virt. eigenvalues --    0.16204   0.18374   0.18848   0.28206   0.35146
 Alpha virt. eigenvalues --    0.51606   0.52378   0.54564   0.62713   0.65561

 Mulliken charges:
               1
     1  C   -0.153587
     2  N    0.021550
     3  O   -0.439148
     4  N   -0.051116
     5  N   -0.411800
     6  H    0.130723
     7  H    0.143001
     8  H    0.141942
     9  H    0.354350
    10  H    0.264084
 Sum of Mulliken charges =  -0.00000

 Dipole moment (field-independent basis, Debye):
    X=             -0.4977    Y=             -1.2542    Z=              0.5753  Tot=              1.4669
 Quadrupole moment (field-independent basis, Debye-Ang):
   XX=            -24.0673   YY=            -30.7947   ZZ=            -30.3191
   XY=              0.7055   XZ=              0.2307   YZ=             -0.0479

  Exact polarizability:  56.472  -2.524  35.621   2.219   0.467  22.289
 Approx polarizability:  90.591  -6.769  56.244   8.336   0.646  32.453

                      1                      2                      3
                      A                      A                      A
 Frequencies --    169.7513               244.0941               363.4775
 Red. masses --      2.2270                 1.3157                 3.5001
 Frc consts  --      0.0378                 0.0462                 0.2724
 IR Inten    --     17.9112                 8.7998                 0.4425

                      4                      5                      6
                      A                      A                      A
 Frequencies --    397.8293               463.9830               525.9780
 Red. masses --      3.3160                 2.9305                 1.4776
 Frc consts  --      0.3092                 0.3717                 0.2409
 IR Inten    --     17.7955                28.9508               111.6794

                      7                      8                      9
                      A                      A                      A
 Frequencies --    726.8618               834.6906               881.0142
 Red. masses --      5.1356                 2.8434                 1.5278
 Frc consts  --      1.5986                 1.1672                 0.6987
 IR Inten    --     28.4800                57.2356                37.4045

                     10                     11                     12
                      A                      A                      A
 Frequencies --   1026.3456              1149.9106              1235.2947
 Red. masses --      2.0480                 1.3124                 2.9511
 Frc consts  --      1.2711                 1.0225                 2.6533
 IR Inten    --     61.9620                23.8496                39.5764

                     13                     14                     15
                      A                      A                      A
 Frequencies --   1264.1443              1430.7253              1450.8346
 Red. masses --      2.2351                 1.4879                 1.3277
 Frc consts  --      2.1045                 1.7945                 1.6466
 IR Inten    --     89.7139                 4.1312                28.5237

                     16                     17                     18
                      A                      A                      A
 Frequencies --   1483.8632              1509.6540              1534.3710
 Red. masses --      1.0588                 3.1219                 1.3134
 Frc consts  --      1.3736                 4.1920                 1.8219
 IR Inten    --     19.5667               107.2083                22.7138

                     19                     20                     21
                      A                      A                      A
 Frequencies --   1561.4147              3045.5344              3135.0483
 Red. masses --      1.3618                 1.0417                 1.0946
 Frc consts  --      1.9561                 5.6929                 6.3385
 IR Inten    --     92.9234                42.7312                15.5268

                     22                     23                     24
                      A                      A                      A
 Frequencies --   3178.7863              3375.4460              3470.6548
 Red. masses --      1.1051                 1.0630                 1.0759
 Frc consts  --      6.5790                 7.1362                 7.6355
 IR Inten    --      5.0995                72.7362                 4.8057

 - Thermochemistry -
 -------------------
 Temperature   298.150 Kelvin.  Pressure   1.00000 Atm.
 Atom     1 has atomic number  6 and mass  12.00000

 Molecular mass:    75.04326 amu.
 Principal axes and moments of inertia in atomic units:
                           1         2         3
     Eigenvalues --   178.07237 384.98156 539.09932
           X            0.99912   0.04169  -0.00424
           Y           -0.04171   0.99912  -0.00503
           Z            0.00403   0.00520   0.99998
 This molecule is an asymmetric top.
 Rotational symmetry number  1.
 Rotational temperatures (Kelvin)      0.48640     0.22498     0.16066
 Rotational constants (GHZ):          10.13488     4.68786     3.34770
 Zero-point vibrational energy     206114.8 (Joules/Mol)
                                   49.26262 (Kcal/Mol)
 Warning -- explicit consideration of   6 degrees of freedom as
           vibrations may cause significant error
 Vibrational temperatures:    244.23   351.20   522.96   572.39   667.57
          (Kelvin)            756.76  1045.79  1200.93  1267.58  1476.68
                             1654.46  1777.31  1818.82  2058.49  2087.42
                             2134.95  2172.05  2207.61  2246.52  4381.84
                             4510.63  4573.56  4856.51  4993.49

 Zero-point correction=                           0.078505 (Hartree/Particle)
 Thermal correction to Energy=                    0.083899
 Thermal correction to Enthalpy=                  0.084843
 Thermal correction to Gibbs Free Energy=         0.050395
 Sum of electronic and zero-point Energies=           -280.406763
 Sum of electronic and thermal Energies=              -280.401369
 Sum of electronic and thermal Enthalpies=            -280.400425
 Sum of electronic and thermal Free Energies=         -280.434873

                     E (Thermal)             CV                S
                      KCal/Mol        Cal/Mol-Kelvin    Cal/Mol-Kelvin
 Total                   52.647             18.461             72.502
 Electronic               0.000              0.000              0.000
 Translational            0.889              2.981             38.862
 Rotational               0.889              2.981             25.117
 Vibrational             50.870             12.499              8.523
 Vibration     1          0.625              1.880              2.438
 Vibration     2          0.659              1.773              1.773
 Vibration     3          0.737              1.547              1.107
 Vibration     4          0.764              1.475              0.971
 Vibration     5          0.822              1.330              0.755
 Vibration     6          0.881              1.192              0.596

 Normal termination of Gaussian 09 at Thu Sep  8 15:20:06 2022.
