 Gaussian 09, Revision E.01,
 Gaussian 09:  ES64L-G09RevE.01 30-Nov-2015

 ----------------------------
 #P OPT Freq B3LYP/6-31G(d,p)
 ----------------------------

 --------
 Frag_978
 --------
 Symbolic Z-matrix:
 Charge =  0 Multiplicity = 1

 SCF Done:  E(RB3LYP) =  -379.872530410     A.U. after   12 cycles
 SCF Done:  E(RB3LYP) =  -379.872547361     A.U. after   10 cycles
 SCF Done:  E(RB3LYP) =  -379.872572561     A.U. after   10 cycles
 SCF Done:  E(RB3LYP) =  -379.872598468     A.U. after    9 cycles
 SCF Done:  E(RB3LYP) =  -379.872599186     A.U. after    7 cycles
 SCF Done:  E(RB3LYP) =  -379.872599600     A.U. after    6 cycles
 Optimization completed.
    -- Stationary point found.
 Normal termination of Gaussian 09 at Thu Sep  8 15:08:24 2022.

 ----------------------------------------------------------------------
 #P Geom=AllCheck Guess=TCheck SCRF=Check GenChk RB3LYP/6-31G(d,p) Freq
 ----------------------------------------------------------------------

 Structure from the checkpoint file:  "B3LYP6-31Gdp.Frag_978.chk"
 --------
 Frag_978
 --------
 Charge =  0 Multiplicity = 1

                         Standard orientation:
 ---------------------------------------------------------------------
 Center     Atomic      Atomic             Coordinates (Angstroms)
 Number     Number       Type             X           Y           Z
 ---------------------------------------------------------------------
      1          6           0        1.372948    1.369934    0.342744
      2          6           0        0.782874    0.000526   -0.026220
      3          6           0        1.313223   -1.067414    0.955768
      4          7           0        1.202872   -0.303004   -1.409965
      5          6           0       -0.804457    0.018072   -0.004054
      6          7           0       -1.401484   -0.095904    1.338104
      7          7           0       -1.302006    1.231870   -0.656796
      8          7           0       -1.263948   -1.168947   -0.723585
      9          1           0        0.981531    1.740040    1.297129
     10          1           0        2.460487    1.294480    0.454351
     11          1           0        1.167393    2.104061   -0.440015
     12          1           0        1.147796   -0.804409    2.006080
     13          1           0        2.393474   -1.183480    0.816719
     14          1           0        0.837624   -2.033502    0.759345
     15          1           0        2.206169   -0.150994   -1.494393
     16          1           0        1.054062   -1.295767   -1.580348
     17          1           0       -1.109873   -0.964014    1.780967
     18          1           0       -1.083057    0.666497    1.931393
     19          1           0       -0.960302    2.065838   -0.184096
     20          1           0       -2.313814    1.238301   -0.535496
     21          1           0       -1.157979   -0.973297   -1.716435
     22          1           0       -2.259079   -1.278575   -0.538937
 ---------------------------------------------------------------------

 SCF Done:  E(RB3LYP) =  -379.872599600     A.U. after    1 cycles

 The electronic state is 1-A.
 Alpha  occ. eigenvalues --  -14.31044 -14.30207 -14.30097 -14.30063 -10.25903
 Alpha  occ. eigenvalues --  -10.21511 -10.17561 -10.16838  -0.94269  -0.87253
 Alpha  occ. eigenvalues --   -0.83054  -0.82799  -0.74267  -0.68401  -0.62394
 Alpha  occ. eigenvalues --   -0.54097  -0.50591  -0.49214  -0.47523  -0.46209
 Alpha  occ. eigenvalues --   -0.44040  -0.42241  -0.41358  -0.39661  -0.38843
 Alpha  occ. eigenvalues --   -0.38092  -0.36152  -0.33726  -0.32976  -0.25471
 Alpha  occ. eigenvalues --   -0.24770  -0.23116  -0.21848
 Alpha virt. eigenvalues --    0.05907   0.10915   0.11356   0.12114   0.12975
 Alpha virt. eigenvalues --    0.14452   0.15368   0.16550   0.17334   0.18339
 Alpha virt. eigenvalues --    0.19036   0.19143   0.20503   0.20814   0.23244

 Mulliken charges:
               1
     1  C   -0.337169
     2  C    0.175224
     3  C   -0.321927
     4  N   -0.588631
     5  C    0.351747
     6  N   -0.597614
     7  N   -0.570457
     8  N   -0.606165
     9  H    0.086965
    10  H    0.096825
    11  H    0.131005
    12  H    0.082020
    13  H    0.087606
    14  H    0.118798
    15  H    0.226486
    16  H    0.240352
    17  H    0.242836
    18  H    0.228718
    19  H    0.224626
    20  H    0.229943
    21  H    0.259178
    22  H    0.239633
 Sum of Mulliken charges =  -0.00000

 Dipole moment (field-independent basis, Debye):
    X=              0.7631    Y=              0.2265    Z=              1.5910  Tot=              1.7790
 Quadrupole moment (field-independent basis, Debye-Ang):
   XX=            -47.6307   YY=            -50.1867   ZZ=            -52.3478
   XY=             -1.0236   XZ=              0.5024   YZ=              3.6759

  Exact polarizability:  75.364   1.291  70.473   0.123   1.490  68.765
 Approx polarizability: 100.190   3.260  99.856  -1.580   2.725  99.323

                      1                      2                      3
                      A                      A                      A
 Frequencies --     90.4481               199.7666               253.3403
 Red. masses --      3.1593                 1.1610                 1.1551
 Frc consts  --      0.0152                 0.0273                 0.0437
 IR Inten    --      0.2949                22.0541                46.3343

                      4                      5                      6
                      A                      A                      A
 Frequencies --    263.2476               276.4309               291.2082
 Red. masses --      1.6828                 1.2983                 1.7305
 Frc consts  --      0.0687                 0.0585                 0.0865
 IR Inten    --      2.4533                12.2699                 7.8177

                      7                      8                      9
                      A                      A                      A
 Frequencies --    313.1696               334.2906               364.0300
 Red. masses --      1.4573                 1.4851                 2.6201
 Frc consts  --      0.0842                 0.0978                 0.2046
 IR Inten    --      8.4237                43.5779                 1.1903

                     10                     11                     12
                      A                      A                      A
 Frequencies --    372.5152               387.0379               425.6021
 Red. masses --      1.8977                 2.0777                 2.2997
 Frc consts  --      0.1552                 0.1834                 0.2454
 IR Inten    --      2.8834                 5.1554                20.3098

                     13                     14                     15
                      A                      A                      A
 Frequencies --    434.6032               456.3124               524.7895
 Red. masses --      1.3961                 1.9907                 2.6983
 Frc consts  --      0.1554                 0.2442                 0.4378
 IR Inten    --      9.0551                35.0189                11.8312

                     16                     17                     18
                      A                      A                      A
 Frequencies --    530.6079               546.8192               684.4791
 Red. masses --      3.0054                 2.5920                 2.9596
 Frc consts  --      0.4985                 0.4566                 0.8170
 IR Inten    --      0.6722                 7.9614                13.3769

                     19                     20                     21
                      A                      A                      A
 Frequencies --    836.2980               877.9907               884.7502
 Red. masses --      2.8640                 1.7924                 1.6059
 Frc consts  --      1.1802                 0.8141                 0.7406
 IR Inten    --     13.6013               197.2555               136.6103

                     22                     23                     24
                      A                      A                      A
 Frequencies --    923.3060               936.1055               943.6044
 Red. masses --      1.4125                 1.4859                 1.8684
 Frc consts  --      0.7095                 0.7672                 0.9802
 IR Inten    --     31.2957                44.5509               179.0770

                     25                     26                     27
                      A                      A                      A
 Frequencies --    974.4189               975.4613              1013.5257
 Red. masses --      1.6955                 1.4641                 1.4189
 Frc consts  --      0.9485                 0.8208                 0.8588
 IR Inten    --     43.2887                21.6006                22.2000

                     28                     29                     30
                      A                      A                      A
 Frequencies --   1044.5935              1070.8998              1117.7818
 Red. masses --      1.5093                 1.5391                 1.5863
 Frc consts  --      0.9703                 1.0400                 1.1678
 IR Inten    --     13.1002                25.1757                30.6840

                     31                     32                     33
                      A                      A                      A
 Frequencies --   1211.6919              1240.0484              1288.2388
 Red. masses --      2.3956                 2.3643                 1.9131
 Frc consts  --      2.0723                 2.1420                 1.8706
 IR Inten    --     19.5025                30.4732                34.8191

                     34                     35                     36
                      A                      A                      A
 Frequencies --   1315.7258              1339.7082              1382.4445
 Red. masses --      2.1877                 1.6707                 1.6782
 Frc consts  --      2.2314                 1.7668                 1.8897
 IR Inten    --     19.7330                13.6081                11.9872

                     37                     38                     39
                      A                      A                      A
 Frequencies --   1408.5861              1422.6722              1500.7589
 Red. masses --      1.4723                 1.2687                 1.0546
 Frc consts  --      1.7211                 1.5129                 1.3995
 IR Inten    --      6.2307                12.2964                 0.4127

                     40                     41                     42
                      A                      A                      A
 Frequencies --   1506.4020              1521.0920              1533.2771
 Red. masses --      1.0505                 1.0489                 1.0584
 Frc consts  --      1.4045                 1.4299                 1.4660
 IR Inten    --      1.3882                 1.9769                11.4788

                     43                     44                     45
                      A                      A                      A
 Frequencies --   1635.8894              1647.2919              1665.1752
 Red. masses --      1.1030                 1.1046                 1.0927
 Frc consts  --      1.7391                 1.7660                 1.7851
 IR Inten    --     53.3820                20.5794                25.9899

                     46                     47                     48
                      A                      A                      A
 Frequencies --   1670.6057              3034.6094              3040.9761
 Red. masses --      1.1031                 1.0358                 1.0370
 Frc consts  --      1.8139                 5.6199                 5.6498
 IR Inten    --     32.7585                17.3824                27.5388

                     49                     50                     51
                      A                      A                      A
 Frequencies --   3095.9992              3103.9058              3121.2649
 Red. masses --      1.1016                 1.1011                 1.1026
 Frc consts  --      6.2210                 6.2502                 6.3291
 IR Inten    --      6.1621                64.6585                18.7804

                     52                     53                     54
                      A                      A                      A
 Frequencies --   3134.8888              3477.5703              3479.0242
 Red. masses --      1.1012                 1.0495                 1.0497
 Frc consts  --      6.3763                 7.4779                 7.4860
 IR Inten    --     17.1626                 3.3407                 1.9320

                     55                     56                     57
                      A                      A                      A
 Frequencies --   3490.8797              3492.8782              3561.8285
 Red. masses --      1.0496                 1.0487                 1.0922
 Frc consts  --      7.5360                 7.5380                 8.1640
 IR Inten    --      0.8461                 0.6172                 0.6280

                     58                     59                     60
                      A                      A                      A
 Frequencies --   3563.2423              3582.0715              3587.0593
 Red. masses --      1.0910                 1.0920                 1.0928
 Frc consts  --      8.1615                 8.2552                 8.2847
 IR Inten    --      1.4203                 4.9639                 0.2322

 - Thermochemistry -
 -------------------
 Temperature   298.150 Kelvin.  Pressure   1.00000 Atm.
 Atom     1 has atomic number  6 and mass  12.00000

 Molecular mass:   118.12185 amu.
 Principal axes and moments of inertia in atomic units:
                           1         2         3
     Eigenvalues --   736.474021038.595061053.48716
           X            0.99962  -0.00989   0.02578
           Y            0.00360   0.97230   0.23371
           Z           -0.02738  -0.23353   0.97197
 This molecule is an asymmetric top.
 Rotational symmetry number  1.
 Warning -- assumption of classical behavior for rotation
           may cause significant error
 Rotational temperatures (Kelvin)      0.11761     0.08340     0.08222
 Rotational constants (GHZ):           2.45052     1.73768     1.71311
 Zero-point vibrational energy     528768.8 (Joules/Mol)
                                  126.37878 (Kcal/Mol)
 Warning -- explicit consideration of  17 degrees of freedom as
           vibrations may cause significant error
 Vibrational temperatures:    130.13   287.42   364.50   378.75   397.72
          (Kelvin)            418.98   450.58   480.97   523.76   535.97
                              556.86   612.35   625.30   656.53   755.05
                              763.43   786.75   984.81  1203.24  1263.23
                             1272.96  1328.43  1346.85  1357.63  1401.97
                             1403.47  1458.24  1502.94  1540.78  1608.24
                             1743.35  1784.15  1853.49  1893.03  1927.54
                             1989.03  2026.64  2046.91  2159.25  2167.37
                             2188.51  2206.04  2353.68  2370.08  2395.81
                             2403.63  4366.12  4375.28  4454.45  4465.82
                             4490.80  4510.40  5003.44  5005.53  5022.59
                             5025.47  5124.67  5126.70  5153.80  5160.97

 Zero-point correction=                           0.201397 (Hartree/Particle)
 Thermal correction to Energy=                    0.211342
 Thermal correction to Enthalpy=                  0.212287
 Thermal correction to Gibbs Free Energy=         0.168339
 Sum of electronic and zero-point Energies=           -379.671202
 Sum of electronic and thermal Energies=              -379.661257
 Sum of electronic and thermal Enthalpies=            -379.660313
 Sum of electronic and thermal Free Energies=         -379.704261

                     E (Thermal)             CV                S
                      KCal/Mol        Cal/Mol-Kelvin    Cal/Mol-Kelvin
 Total                  132.619             39.688             92.495
 Electronic               0.000              0.000              0.000
 Translational            0.889              2.981             40.215
 Rotational               0.889              2.981             28.179
 Vibrational            130.842             33.726             24.102
 Vibration     1          0.602              1.956              3.650
 Vibration     2          0.638              1.840              2.135
 Vibration     3          0.665              1.757              1.707
 Vibration     4          0.670              1.740              1.640
 Vibration     5          0.678              1.717              1.556
 Vibration     6          0.687              1.690              1.467
 Vibration     7          0.701              1.649              1.346
 Vibration     8          0.716              1.607              1.239
 Vibration     9          0.738              1.546              1.105
 Vibration    10          0.744              1.529              1.069
 Vibration    11          0.755              1.498              1.012
 Vibration    12          0.787              1.415              0.873
 Vibration    13          0.795              1.395              0.844
 Vibration    14          0.815              1.347              0.777
 Vibration    15          0.880              1.195              0.599
 Vibration    16          0.886              1.182              0.586
 Vibration    17          0.902              1.147              0.551

 Normal termination of Gaussian 09 at Thu Sep  8 15:08:50 2022.
