 Gaussian 09, Revision E.01,
 Gaussian 09:  ES64L-G09RevE.01 30-Nov-2015

 -------------------------
 #P OPT Freq B3LYP/6-31G**
 -------------------------

 --------
 Frag_123
 --------
 Symbolic Z-matrix:
 Charge =  0 Multiplicity = 1

 SCF Done:  E(RB3LYP) =  -251.880749503     A.U. after   14 cycles
 SCF Done:  E(RB3LYP) =  -251.889049904     A.U. after   12 cycles
 SCF Done:  E(RB3LYP) =  -251.890098542     A.U. after   11 cycles
 SCF Done:  E(RB3LYP) =  -251.890270767     A.U. after   11 cycles
 SCF Done:  E(RB3LYP) =  -251.890378470     A.U. after   10 cycles
 SCF Done:  E(RB3LYP) =  -251.890618235     A.U. after   10 cycles
 SCF Done:  E(RB3LYP) =  -251.824244197     A.U. after   14 cycles
 SCF Done:  E(RB3LYP) =  -251.890790336     A.U. after   11 cycles
 SCF Done:  E(RB3LYP) =  -251.891031900     A.U. after   10 cycles
 SCF Done:  E(RB3LYP) =  -251.891435933     A.U. after   11 cycles
 SCF Done:  E(RB3LYP) =  -251.892355625     A.U. after   11 cycles
 SCF Done:  E(RB3LYP) =  -251.892936056     A.U. after   12 cycles
 SCF Done:  E(RB3LYP) =  -251.893110858     A.U. after   10 cycles
 SCF Done:  E(RB3LYP) =  -251.893271884     A.U. after   11 cycles
 SCF Done:  E(RB3LYP) =  -251.893342260     A.U. after   10 cycles
 SCF Done:  E(RB3LYP) =  -251.893374995     A.U. after   10 cycles
 SCF Done:  E(RB3LYP) =  -251.893380186     A.U. after    9 cycles
 SCF Done:  E(RB3LYP) =  -251.893380972     A.U. after    7 cycles
 SCF Done:  E(RB3LYP) =  -251.893381290     A.U. after    7 cycles
 Optimization completed.
    -- Stationary point found.
 Normal termination of Gaussian 09 at Sat Aug 21 01:38:15 2021.

 ----------------------------------------------------------------------
 #P Geom=AllCheck Guess=TCheck SCRF=Check GenChk RB3LYP/6-31G(d,p) Freq
 ----------------------------------------------------------------------

 Structure from the checkpoint file:  "/public/home/users/caep010/.cache/gau_scr/Gau-21339.chk"
 --------
 Frag_123
 --------
 Charge =  0 Multiplicity = 1

                         Standard orientation:
 ---------------------------------------------------------------------
 Center     Atomic      Atomic             Coordinates (Angstroms)
 Number     Number       Type             X           Y           Z
 ---------------------------------------------------------------------
      1          6           0        1.192651    1.432823   -0.232843
      2          6           0        0.725009    0.194537    0.022081
      3          6           0        1.683614   -0.967297    0.159599
      4          7           0       -0.630361   -0.098533    0.242200
      5          6           0       -1.163799   -1.362085   -0.252641
      6          6           0       -1.569951    1.004422    0.150788
      7          1           0        2.260776    1.603651   -0.288705
      8          1           0        0.554949    2.295385   -0.374218
      9          1           0        1.608692   -1.670315   -0.678336
     10          1           0        1.496317   -1.531426    1.080276
     11          1           0        2.710699   -0.599435    0.186728
     12          1           0       -0.505478   -2.191100    0.009191
     13          1           0       -2.134000   -1.549565    0.217369
     14          1           0       -1.309892   -1.372441   -1.346733
     15          1           0       -2.555116    0.663607    0.480640
     16          1           0       -1.669256    1.409045   -0.871230
     17          1           0       -1.250308    1.817922    0.807720
 ---------------------------------------------------------------------

 SCF Done:  E(RB3LYP) =  -251.893381290     A.U. after    1 cycles

 The electronic state is 1-A.
 Alpha  occ. eigenvalues --  -14.33983 -10.21137 -10.20973 -10.20416 -10.17834
 Alpha  occ. eigenvalues --  -10.14741  -0.93151  -0.76731  -0.71795  -0.66829
 Alpha  occ. eigenvalues --   -0.64462  -0.52554  -0.47959  -0.46382  -0.45663
 Alpha  occ. eigenvalues --   -0.40895  -0.40276  -0.39511  -0.38266  -0.37960
 Alpha  occ. eigenvalues --   -0.36631  -0.33948  -0.27625  -0.18778
 Alpha virt. eigenvalues --    0.04935   0.09066   0.12405   0.12967   0.13833
 Alpha virt. eigenvalues --    0.15727   0.16631   0.17235   0.17882   0.18456
 Alpha virt. eigenvalues --    0.19707   0.21589   0.21895   0.24499   0.26632

 Mulliken charges:
               1
     1  C   -0.334340
     2  C    0.347530
     3  C   -0.380861
     4  N   -0.448421
     5  C   -0.171171
     6  C   -0.164385
     7  H    0.076889
     8  H    0.079591
     9  H    0.116476
    10  H    0.118766
    11  H    0.114588
    12  H    0.117321
    13  H    0.108689
    14  H    0.098137
    15  H    0.101232
    16  H    0.097846
    17  H    0.122113
 Sum of Mulliken charges =  -0.00000

 Dipole moment (field-independent basis, Debye):
    X=             -0.8716    Y=             -0.9445    Z=             -0.2112  Tot=              1.3024
 Quadrupole moment (field-independent basis, Debye-Ang):
   XX=            -36.6171   YY=            -37.5915   ZZ=            -41.2006
   XY=             -1.1300   XZ=              0.1667   YZ=              0.2505

  Exact polarizability:  70.667   5.917  71.724  -0.727  -2.411  43.156
 Approx polarizability:  91.893  13.828 103.948  -3.181  -6.265  62.713

                      1                      2                      3
                      A                      A                      A
 Frequencies --     97.9417               181.0197               233.7929
 Red. masses --      2.5759                 1.1552                 1.8896
 Frc consts  --      0.0146                 0.0223                 0.0609
 IR Inten    --      1.8605                 0.8393                 8.1467

                      4                      5                      6
                      A                      A                      A
 Frequencies --    247.1585               265.0222               343.1758
 Red. masses --      1.2396                 1.1940                 1.9894
 Frc consts  --      0.0446                 0.0494                 0.1380
 IR Inten    --      1.9271                 1.9408                 0.2912

                      7                      8                      9
                      A                      A                      A
 Frequencies --    435.6068               469.5044               514.4334
 Red. masses --      2.2472                 2.2056                 2.4731
 Frc consts  --      0.2512                 0.2865                 0.3856
 IR Inten    --      1.4261                 0.1606                 1.5911

                     10                     11                     12
                      A                      A                      A
 Frequencies --    546.3634               728.9774               753.9266
 Red. masses --      2.3122                 1.2535                 2.9320
 Frc consts  --      0.4067                 0.3925                 0.9819
 IR Inten    --      5.1874                 2.2398                 4.6769

                     13                     14                     15
                      A                      A                      A
 Frequencies --    810.1782               929.6094              1019.9815
 Red. masses --      1.3722                 2.1596                 1.4174
 Frc consts  --      0.5307                 1.0996                 0.8688
 IR Inten    --     56.6216                 2.1782                 2.7462

                     16                     17                     18
                      A                      A                      A
 Frequencies --   1050.5009              1074.5400              1085.0978
 Red. masses --      1.6864                 1.4953                 1.4612
 Frc consts  --      1.0965                 1.0173                 1.0137
 IR Inten    --     41.6111                 2.9113                10.7363

                     19                     20                     21
                      A                      A                      A
 Frequencies --   1127.0144              1174.4078              1235.9535
 Red. masses --      1.2494                 1.4032                 2.3459
 Frc consts  --      0.9350                 1.1403                 2.1113
 IR Inten    --      7.8178                21.1162                15.8093

                     22                     23                     24
                      A                      A                      A
 Frequencies --   1282.5243              1387.6185              1426.3227
 Red. masses --      3.0488                 2.3443                 1.4651
 Frc consts  --      2.9547                 2.6595                 1.7561
 IR Inten    --     18.6653                58.7075                42.6344

                     25                     26                     27
                      A                      A                      A
 Frequencies --   1449.1728              1466.1330              1489.3458
 Red. masses --      1.2349                 1.1972                 1.1262
 Frc consts  --      1.5279                 1.5162                 1.4718
 IR Inten    --      0.9917                 6.4654                 8.6599

                     28                     29                     30
                      A                      A                      A
 Frequencies --   1494.2785              1500.2500              1510.9869
 Red. masses --      1.0518                 1.0516                 1.0705
 Frc consts  --      1.3837                 1.3945                 1.4400
 IR Inten    --      5.4066                12.6796                12.2882

                     31                     32                     33
                      A                      A                      A
 Frequencies --   1516.4947              1526.0457              1542.3743
 Red. masses --      1.0618                 1.0503                 1.1045
 Frc consts  --      1.4387                 1.4410                 1.5480
 IR Inten    --      6.2769                 4.1011                17.2123

                     34                     35                     36
                      A                      A                      A
 Frequencies --   1699.1470              2963.8038              2972.3252
 Red. masses --      4.6238                 1.0581                 1.0597
 Frc consts  --      7.8652                 5.4763                 5.5159
 IR Inten    --    115.3996                58.3965               102.9894

                     37                     38                     39
                      A                      A                      A
 Frequencies --   3040.0266              3082.7804              3087.1539
 Red. masses --      1.0397                 1.0762                 1.0782
 Frc consts  --      5.6613                 6.0258                 6.0541
 IR Inten    --     23.9956                21.5891                50.1194

                     40                     41                     42
                      A                      A                      A
 Frequencies --   3094.0756              3127.9813              3143.8678
 Red. masses --      1.1003                 1.1040                 1.0989
 Frc consts  --      6.2062                 6.3640                 6.3993
 IR Inten    --     20.1384                20.2418                23.1184

                     43                     44                     45
                      A                      A                      A
 Frequencies --   3151.8002              3190.6270              3273.4771
 Red. masses --      1.0974                 1.0603                 1.1149
 Frc consts  --      6.4230                 6.3598                 7.0391
 IR Inten    --     17.8400                 2.4204                16.4417

 - Thermochemistry -
 -------------------
 Temperature   298.150 Kelvin.  Pressure   1.00000 Atm.
 Atom     1 has atomic number  6 and mass  12.00000

 Molecular mass:    85.08915 amu.
 Principal axes and moments of inertia in atomic units:
                           1         2         3
     Eigenvalues --   383.36174 544.11270 868.60329
           X            0.99920  -0.03978   0.00503
           Y            0.03977   0.99921   0.00106
           Z           -0.00507  -0.00086   0.99999
 This molecule is an asymmetric top.
 Rotational symmetry number  1.
 Rotational temperatures (Kelvin)      0.22593     0.15918     0.09972
 Rotational constants (GHZ):           4.70767     3.31685     2.07775
 Zero-point vibrational energy     405192.0 (Joules/Mol)
                                   96.84322 (Kcal/Mol)
 Warning -- explicit consideration of  10 degrees of freedom as
           vibrations may cause significant error
 Vibrational temperatures:    140.92   260.45   336.38   355.61   381.31
          (Kelvin)            493.75   626.74   675.51   740.15   786.09
                             1048.83  1084.73  1165.66  1337.50  1467.52
                             1511.43  1546.02  1561.21  1621.52  1689.71
                             1778.26  1845.26  1996.47  2052.16  2085.03
                             2109.44  2142.83  2149.93  2158.52  2173.97
                             2181.89  2195.64  2219.13  2444.69  4264.25
                             4276.51  4373.91  4435.43  4441.72  4451.68
                             4500.46  4523.32  4534.73  4590.59  4709.80

 Zero-point correction=                           0.154329 (Hartree/Particle)
 Thermal correction to Energy=                    0.161821
 Thermal correction to Enthalpy=                  0.162766
 Thermal correction to Gibbs Free Energy=         0.123623
 Sum of electronic and zero-point Energies=           -251.739052
 Sum of electronic and thermal Energies=              -251.731560
 Sum of electronic and thermal Enthalpies=            -251.730616
 Sum of electronic and thermal Free Energies=         -251.769759

                     E (Thermal)             CV                S
                      KCal/Mol        Cal/Mol-Kelvin    Cal/Mol-Kelvin
 Total                  101.544             27.355             82.383
 Electronic               0.000              0.000              0.000
 Translational            0.889              2.981             39.237
 Rotational               0.889              2.981             26.696
 Vibrational             99.767             21.394             16.450
 Vibration     1          0.603              1.951              3.495
 Vibration     2          0.630              1.866              2.318
 Vibration     3          0.654              1.789              1.850
 Vibration     4          0.661              1.767              1.751
 Vibration     5          0.671              1.737              1.628
 Vibration     6          0.722              1.589              1.197
 Vibration     7          0.796              1.393              0.841
 Vibration     8          0.827              1.318              0.739
 Vibration     9          0.869              1.218              0.623
 Vibration    10          0.902              1.148              0.552

 Optimization completed.
    -- Stationary point found.
 Normal termination of Gaussian 09 at Sat Aug 21 01:38:29 2021.
