 Gaussian 09, Revision E.01,
 Gaussian 09:  ES64L-G09RevE.01 30-Nov-2015

 --------------------------------
 #P OPT=calcfc Freq B3LYP/6-31G**
 --------------------------------

 --------
 Frag_162
 --------
 Symbolic Z-matrix:
 Charge =  0 Multiplicity = 1

 SCF Done:  E(RB3LYP) =  -245.117108683     A.U. after   14 cycles
 SCF Done:  E(RB3LYP) =  -245.141914524     A.U. after   14 cycles
 SCF Done:  E(RB3LYP) =  -245.142440804     A.U. after   13 cycles
 SCF Done:  E(RB3LYP) =  -245.077891904     A.U. after   14 cycles
 SCF Done:  E(RB3LYP) =  -245.143431181     A.U. after   10 cycles
 SCF Done:  E(RB3LYP) =  -245.143529734     A.U. after   11 cycles
 SCF Done:  E(RB3LYP) =  -245.143563560     A.U. after   10 cycles
 SCF Done:  E(RB3LYP) =  -245.143565477     A.U. after    8 cycles
 SCF Done:  E(RB3LYP) =  -245.143567466     A.U. after    8 cycles
 SCF Done:  E(RB3LYP) =  -245.143574774     A.U. after   11 cycles
 SCF Done:  E(RB3LYP) =  -245.143576587     A.U. after   11 cycles
 SCF Done:  E(RB3LYP) =  -245.143579223     A.U. after    9 cycles
 SCF Done:  E(RB3LYP) =  -245.143579463     A.U. after    8 cycles
 SCF Done:  E(RB3LYP) =  -245.143579512     A.U. after    7 cycles
 Optimization completed.
    -- Stationary point found.
 Normal termination of Gaussian 09 at Sat Aug 21 02:21:19 2021.

 ----------------------------------------------------------------------
 #P Geom=AllCheck Guess=TCheck SCRF=Check GenChk RB3LYP/6-31G(d,p) Freq
 ----------------------------------------------------------------------

 Structure from the checkpoint file:  "/public/home/users/caep010/.cache/gau_scr/Gau-217069.chk"
 --------
 Frag_162
 --------
 Charge =  0 Multiplicity = 1

                         Standard orientation:
 ---------------------------------------------------------------------
 Center     Atomic      Atomic             Coordinates (Angstroms)
 Number     Number       Type             X           Y           Z
 ---------------------------------------------------------------------
      1          7           0        1.274585   -0.233477    0.041309
      2          6           0       -0.039232    0.123447    0.001483
      3          8           0       -0.467611    1.260865   -0.005122
      4          8           0       -0.836835   -0.982730   -0.002134
      5          1           0        1.541848   -1.189249   -0.128269
      6          1           0        1.949889    0.497107   -0.107954
      7          1           0       -1.742871   -0.639287   -0.003789
 ---------------------------------------------------------------------

 SCF Done:  E(RB3LYP) =  -245.143579512     A.U. after    1 cycles

 The electronic state is 1-A.
 Alpha  occ. eigenvalues --  -19.18867 -19.11727 -14.36231 -10.33674  -1.10169
 Alpha  occ. eigenvalues --   -1.00466  -0.91266  -0.63939  -0.55798  -0.50090
 Alpha  occ. eigenvalues --   -0.46245  -0.44848  -0.40028  -0.31695  -0.27767
 Alpha  occ. eigenvalues --   -0.27157
 Alpha virt. eigenvalues --    0.05507   0.06877   0.10279   0.13262   0.23565
 Alpha virt. eigenvalues --    0.33020   0.36807   0.54669   0.56141   0.59513
 Alpha virt. eigenvalues --    0.65513   0.67001   0.72404   0.75495   0.82877

 Mulliken charges:
               1
     1  N   -0.601434
     2  C    0.697712
     3  O   -0.495419
     4  O   -0.503148
     5  H    0.284175
     6  H    0.287202
     7  H    0.330913
 Sum of Mulliken charges =  -0.00000

 Dipole moment (field-independent basis, Debye):
    X=              1.3583    Y=             -1.8903    Z=             -0.5178  Tot=              2.3846
 Quadrupole moment (field-independent basis, Debye-Ang):
   XX=            -14.7864   YY=            -26.0291   ZZ=            -23.3718
   XY=              1.1303   XZ=             -1.0101   YZ=              0.2577

  Exact polarizability:  29.292  -1.484  26.105  -0.081   0.023  11.678
 Approx polarizability:  38.774  -4.694  42.458   0.305  -0.167  15.872

                      1                      2                      3
                      A                      A                      A
 Frequencies --    256.3915               468.3216               495.9545
 Red. masses --      1.2286                 1.3456                 1.8640
 Frc consts  --      0.0476                 0.1739                 0.2701
 IR Inten    --    267.5559                30.1903                28.5044

                      4                      5                      6
                      A                      A                      A
 Frequencies --    579.8013               589.5506               772.4198
 Red. masses --      2.0548                 1.5070                 9.2079
 Frc consts  --      0.4070                 0.3086                 3.2368
 IR Inten    --     46.3388                67.6211                43.4882

                      7                      8                      9
                      A                      A                      A
 Frequencies --    963.1317              1084.5649              1237.6765
 Red. masses --      4.4924                 1.6904                 1.5267
 Frc consts  --      2.4553                 1.1715                 1.3779
 IR Inten    --     36.6284                52.7733               190.7176

                     10                     11                     12
                      A                      A                      A
 Frequencies --   1445.8230              1624.6211              1864.4154
 Red. masses --      2.7138                 1.3024                 8.3121
 Frc consts  --      3.3425                 2.0254                17.0234
 IR Inten    --    124.9342               130.6657               457.4574

                     13                     14                     15
                      A                      A                      A
 Frequencies --   3628.9004              3766.5336              3807.7958
 Red. masses --      1.0454                 1.1053                 1.0648
 Frc consts  --      8.1109                 9.2390                 9.0964
 IR Inten    --     46.8217                55.6569                70.7264

 - Thermochemistry -
 -------------------
 Temperature   298.150 Kelvin.  Pressure   1.00000 Atm.
 Atom     1 has atomic number  7 and mass  14.00307

 Molecular mass:    61.01638 amu.
 Principal axes and moments of inertia in atomic units:
                           1         2         3
     Eigenvalues --   156.81223 167.03280 323.50180
           X            0.99716   0.07487  -0.00868
           Y           -0.07485   0.99719   0.00237
           Z            0.00883  -0.00171   0.99996
 This molecule is an asymmetric top.
 Rotational symmetry number  1.
 Rotational temperatures (Kelvin)      0.55234     0.51854     0.26774
 Rotational constants (GHZ):          11.50893    10.80471     5.57877
 Zero-point vibrational energy     135093.7 (Joules/Mol)
                                   32.28817 (Kcal/Mol)
 Warning -- explicit consideration of   5 degrees of freedom as
           vibrations may cause significant error
 Vibrational temperatures:    368.89   673.81   713.57   834.20   848.23
          (Kelvin)           1111.34  1385.73  1560.45  1780.74  2080.21
                             2337.46  2682.47  5221.17  5419.20  5478.56

 Zero-point correction=                           0.051454 (Hartree/Particle)
 Thermal correction to Energy=                    0.055758
 Thermal correction to Enthalpy=                  0.056702
 Thermal correction to Gibbs Free Energy=         0.025146
 Sum of electronic and zero-point Energies=           -245.092125
 Sum of electronic and thermal Energies=              -245.087822
 Sum of electronic and thermal Enthalpies=            -245.086878
 Sum of electronic and thermal Free Energies=         -245.118433

                     E (Thermal)             CV                S
                      KCal/Mol        Cal/Mol-Kelvin    Cal/Mol-Kelvin
 Total                   34.989             14.172             66.415
 Electronic               0.000              0.000              0.000
 Translational            0.889              2.981             38.245
 Rotational               0.889              2.981             23.653
 Vibrational             33.211              8.210              4.516
 Vibration     1          0.666              1.752              1.686
 Vibration     2          0.826              1.320              0.742
 Vibration     3          0.852              1.259              0.668
 Vibration     4          0.936              1.075              0.486
 Vibration     5          0.947              1.054              0.468

 Optimization completed.
    -- Stationary point found.
 Normal termination of Gaussian 09 at Sat Aug 21 02:21:25 2021.
