 Gaussian 09, Revision E.01,
 Gaussian 09:  ES64L-G09RevE.01 30-Nov-2015

 --------------------------------
 #P OPT=calcfc Freq B3LYP/6-31G**
 --------------------------------

 --------
 Frag_415
 --------
 Symbolic Z-matrix:
 Charge =  0 Multiplicity = 1

 SCF Done:  E(RB3LYP) =  -189.286629139     A.U. after   12 cycles
 SCF Done:  E(RB3LYP) =  -189.290760179     A.U. after   13 cycles
 SCF Done:  E(RB3LYP) =  -189.303545149     A.U. after   13 cycles
 SCF Done:  E(RB3LYP) =  -189.297228344     A.U. after   14 cycles
 SCF Done:  E(RB3LYP) =  -189.305537513     A.U. after   11 cycles
 SCF Done:  E(RB3LYP) =  -189.303813567     A.U. after   13 cycles
 SCF Done:  E(RB3LYP) =  -189.305551977     A.U. after    9 cycles
 SCF Done:  E(RB3LYP) =  -189.306044404     A.U. after   12 cycles
 SCF Done:  E(RB3LYP) =  -189.305981740     A.U. after   12 cycles
 SCF Done:  E(RB3LYP) =  -189.306118809     A.U. after   10 cycles
 SCF Done:  E(RB3LYP) =  -189.306688681     A.U. after   12 cycles
 SCF Done:  E(RB3LYP) =  -189.306742867     A.U. after   10 cycles
 SCF Done:  E(RB3LYP) =  -189.306795079     A.U. after   11 cycles
 SCF Done:  E(RB3LYP) =  -189.306915693     A.U. after   12 cycles
 SCF Done:  E(RB3LYP) =  -189.306944215     A.U. after   10 cycles
 SCF Done:  E(RB3LYP) =  -189.306978796     A.U. after   11 cycles
 SCF Done:  E(RB3LYP) =  -189.306981818     A.U. after   10 cycles
 SCF Done:  E(RB3LYP) =  -189.306982350     A.U. after    8 cycles
 SCF Done:  E(RB3LYP) =  -189.306982379     A.U. after    7 cycles
 Optimization completed.
    -- Stationary point found.
 Normal termination of Gaussian 09 at Fri Sep 10 20:45:40 2021.

 ----------------------------------------------------------------------
 #P Geom=AllCheck Guess=TCheck SCRF=Check GenChk RB3LYP/6-31G(d,p) Freq
 ----------------------------------------------------------------------

 Structure from the checkpoint file:  "/public/home/users/caep010/.cache/gau_scr/Gau-201047.chk"
 --------
 Frag_415
 --------
 Charge =  0 Multiplicity = 1

                         Standard orientation:
 ---------------------------------------------------------------------
 Center     Atomic      Atomic             Coordinates (Angstroms)
 Number     Number       Type             X           Y           Z
 ---------------------------------------------------------------------
      1          7           0        1.438871   -0.553399    0.075722
      2          6           0        0.695544    0.625531    0.013987
      3          6           0       -0.645826    0.668194   -0.012369
      4          7           0       -1.394084   -0.556188   -0.044904
      5          1           0        2.316164   -0.517010   -0.428499
      6          1           0        0.873728   -1.350211   -0.204886
      7          1           0        1.271033    1.545961    0.064685
      8          1           0       -1.158996    1.628091    0.018127
      9          1           0       -1.655977   -0.856778    0.892632
     10          1           0       -2.257773   -0.445293   -0.567498
 ---------------------------------------------------------------------

 SCF Done:  E(RB3LYP) =  -189.306982379     A.U. after    1 cycles

 The electronic state is 1-A.
 Alpha  occ. eigenvalues --  -14.32120 -14.31508 -10.19747 -10.17868  -0.89891
 Alpha  occ. eigenvalues --   -0.86091  -0.69621  -0.55474  -0.51250  -0.46748
 Alpha  occ. eigenvalues --   -0.45492  -0.41204  -0.37488  -0.31780  -0.25108
 Alpha  occ. eigenvalues --   -0.18303
 Alpha virt. eigenvalues --    0.05867   0.08396   0.11830   0.13243   0.16429
 Alpha virt. eigenvalues --    0.18925   0.19882   0.24664   0.37843   0.40201
 Alpha virt. eigenvalues --    0.52914   0.56883   0.60118   0.63949   0.66287

 Mulliken charges:
               1
     1  N   -0.607949
     2  C    0.100175
     3  C   -0.020387
     4  N   -0.636974
     5  H    0.248688
     6  H    0.267400
     7  H    0.088500
     8  H    0.065066
     9  H    0.251167
    10  H    0.244312
 Sum of Mulliken charges =  -0.00000

 Dipole moment (field-independent basis, Debye):
    X=             -0.4247    Y=              0.0877    Z=             -0.5099  Tot=              0.6693
 Quadrupole moment (field-independent basis, Debye-Ang):
   XX=            -18.4994   YY=            -24.0162   ZZ=            -26.0797
   XY=              0.4228   XZ=             -2.8187   YZ=              0.0932

  Exact polarizability:  52.162  -1.178  35.387  -0.406  -0.437  19.865
 Approx polarizability:  77.526  -3.465  47.457   1.210  -1.377  27.619

                      1                      2                      3
                      A                      A                      A
 Frequencies --    123.1504               259.7214               398.9463
 Red. masses --      1.0694                 3.3397                 1.2280
 Frc consts  --      0.0096                 0.1327                 0.1152
 IR Inten    --     26.2198                 3.7527                54.0760

                      4                      5                      6
                      A                      A                      A
 Frequencies --    499.1300               688.2437               696.6342
 Red. masses --      2.0593                 1.3035                 2.0671
 Frc consts  --      0.3023                 0.3638                 0.5911
 IR Inten    --     47.6604               137.8183                77.5113

                      7                      8                      9
                      A                      A                      A
 Frequencies --    796.0193               856.8953               926.8585
 Red. masses --      1.4477                 1.3763                 1.2450
 Frc consts  --      0.5405                 0.5954                 0.6302
 IR Inten    --    138.1719               124.3711                12.3928

                     10                     11                     12
                      A                      A                      A
 Frequencies --   1012.2614              1112.3939              1172.8009
 Red. masses --      3.6436                 1.7213                 1.1962
 Frc consts  --      2.1997                 1.2550                 0.9694
 IR Inten    --      5.9875                36.8198                 1.5694

                     13                     14                     15
                      A                      A                      A
 Frequencies --   1245.1490              1318.7125              1436.7502
 Red. masses --      1.3882                 1.4386                 1.4764
 Frc consts  --      1.2681                 1.4739                 1.7956
 IR Inten    --      2.9724                12.0432                24.1344

                     16                     17                     18
                      A                      A                      A
 Frequencies --   1632.3908              1651.4467              1759.8221
 Red. masses --      1.1938                 1.1296                 3.9871
 Frc consts  --      1.8742                 1.8152                 7.2752
 IR Inten    --     37.5793                15.2916                63.1597

                     19                     20                     21
                      A                      A                      A
 Frequencies --   3143.6573              3194.8944              3476.5929
 Red. masses --      1.0872                 1.0949                 1.0529
 Frc consts  --      6.3304                 6.5849                 7.4977
 IR Inten    --     23.8156                26.7666                 2.0387

                     22                     23                     24
                      A                      A                      A
 Frequencies --   3512.1973              3568.8223              3631.5533
 Red. masses --      1.0479                 1.0887                 1.0963
 Frc consts  --      7.6162                 8.1697                 8.5188
 IR Inten    --      7.2425                 1.8387                10.0675

 - Thermochemistry -
 -------------------
 Temperature   298.150 Kelvin.  Pressure   1.00000 Atm.
 Atom     1 has atomic number  7 and mass  14.00307

 Molecular mass:    58.05310 amu.
 Principal axes and moments of inertia in atomic units:
                           1         2         3
     Eigenvalues --   100.88531 305.46931 395.99462
           X            0.99987   0.00226  -0.01567
           Y           -0.00220   0.99999   0.00445
           Z            0.01568  -0.00441   0.99987
 This molecule is an asymmetric top.
 Rotational symmetry number  1.
 Rotational temperatures (Kelvin)      0.85854     0.28354     0.21872
 Rotational constants (GHZ):          17.88904     5.90809     4.55749
 Zero-point vibrational energy     227978.6 (Joules/Mol)
                                   54.48819 (Kcal/Mol)
 Warning -- explicit consideration of   4 degrees of freedom as
           vibrations may cause significant error
 Vibrational temperatures:    177.19   373.68   573.99   718.14   990.23
          (Kelvin)           1002.30  1145.29  1232.88  1333.54  1456.42
                             1600.48  1687.40  1791.49  1897.33  2067.16
                             2348.64  2376.06  2531.99  4523.02  4596.73
                             5002.04  5053.26  5134.73  5224.99

 Zero-point correction=                           0.086832 (Hartree/Particle)
 Thermal correction to Energy=                    0.091903
 Thermal correction to Enthalpy=                  0.092847
 Thermal correction to Gibbs Free Energy=         0.059649
 Sum of electronic and zero-point Energies=           -189.220150
 Sum of electronic and thermal Energies=              -189.215079
 Sum of electronic and thermal Enthalpies=            -189.214135
 Sum of electronic and thermal Free Energies=         -189.247334

                     E (Thermal)             CV                S
                      KCal/Mol        Cal/Mol-Kelvin    Cal/Mol-Kelvin
 Total                   57.670             17.119             69.872
 Electronic               0.000              0.000              0.000
 Translational            0.889              2.981             38.097
 Rotational               0.889              2.981             24.016
 Vibrational             55.893             11.158              7.759
 Vibration     1          0.610              1.930              3.050
 Vibration     2          0.668              1.746              1.664
 Vibration     3          0.765              1.472              0.967
 Vibration     4          0.855              1.252              0.660

 Optimization completed.
    -- Stationary point found.
 Normal termination of Gaussian 09 at Fri Sep 10 20:45:47 2021.
