 Gaussian 09, Revision E.01,
 Gaussian 09:  ES64L-G09RevE.01 30-Nov-2015

 --------------------------------
 #P OPT=calcfc Freq B3LYP/6-31G**
 --------------------------------

 --------
 Frag_240
 --------
 Symbolic Z-matrix:
 Charge =  0 Multiplicity = 1

 SCF Done:  E(RB3LYP) =  -228.573873178     A.U. after   14 cycles
 SCF Done:  E(RB3LYP) =  -228.581493825     A.U. after   13 cycles
 SCF Done:  E(RB3LYP) =  -228.581648743     A.U. after   12 cycles
 SCF Done:  E(RB3LYP) =  -228.582713186     A.U. after   12 cycles
 SCF Done:  E(RB3LYP) =  -228.582891813     A.U. after   11 cycles
 SCF Done:  E(RB3LYP) =  -228.582896439     A.U. after   11 cycles
 SCF Done:  E(RB3LYP) =  -228.582889385     A.U. after   10 cycles
 SCF Done:  E(RB3LYP) =  -228.582900916     A.U. after    9 cycles
 Optimization completed.
    -- Stationary point found.
 Normal termination of Gaussian 09 at Sat Aug 21 02:21:33 2021.

 ----------------------------------------------------------------------
 #P Geom=AllCheck Guess=TCheck SCRF=Check GenChk RB3LYP/6-31G(d,p) Freq
 ----------------------------------------------------------------------

 Structure from the checkpoint file:  "/public/home/users/caep010/.cache/gau_scr/Gau-107218.chk"
 --------
 Frag_240
 --------
 Charge =  0 Multiplicity = 1

                         Standard orientation:
 ---------------------------------------------------------------------
 Center     Atomic      Atomic             Coordinates (Angstroms)
 Number     Number       Type             X           Y           Z
 ---------------------------------------------------------------------
      1          6           0        1.980849   -0.085312   -0.111614
      2          6           0        0.786792   -0.652528    0.120658
      3          7           0       -0.442438   -0.016287    0.276801
      4          6           0       -0.526486    1.404812   -0.009185
      5          7           0       -1.596810   -0.730725   -0.154109
      6          1           0        2.870824   -0.702453   -0.133258
      7          1           0        2.112919    0.980670   -0.253368
      8          1           0        0.714845   -1.731191    0.251302
      9          1           0       -0.286457    1.646482   -1.058065
     10          1           0       -1.541936    1.735920    0.207006
     11          1           0        0.173598    1.945894    0.634599
     12          1           0       -1.802340   -1.448361    0.537119
     13          1           0       -1.413645   -1.199708   -1.043330
 ---------------------------------------------------------------------

 SCF Done:  E(RB3LYP) =  -228.582900916     A.U. after    1 cycles

 The electronic state is 1-A.
 Alpha  occ. eigenvalues --  -14.36554 -14.35031 -10.20970 -10.20244 -10.15967
 Alpha  occ. eigenvalues --   -0.98163  -0.81316  -0.73623  -0.66107  -0.55987
 Alpha  occ. eigenvalues --   -0.51109  -0.50107  -0.45602  -0.42437  -0.40197
 Alpha  occ. eigenvalues --   -0.38352  -0.35999  -0.30323  -0.26099  -0.19732
 Alpha virt. eigenvalues --    0.03620   0.08620   0.11612   0.12345   0.15620
 Alpha virt. eigenvalues --    0.16602   0.17446   0.17955   0.18986   0.22365
 Alpha virt. eigenvalues --    0.23579   0.33311   0.36333   0.49537   0.53978

 Mulliken charges:
               1
     1  C   -0.296199
     2  C    0.133170
     3  N   -0.326803
     4  C   -0.148531
     5  N   -0.459558
     6  H    0.089132
     7  H    0.088016
     8  H    0.080331
     9  H    0.095381
    10  H    0.126368
    11  H    0.116285
    12  H    0.259494
    13  H    0.242915
 Sum of Mulliken charges =  -0.00000

 Dipole moment (field-independent basis, Debye):
    X=             -0.2804    Y=             -0.9282    Z=             -0.3697  Tot=              1.0377
 Quadrupole moment (field-independent basis, Debye-Ang):
   XX=            -33.9950   YY=            -26.5221   ZZ=            -32.7455
   XY=              1.8677   XZ=             -0.2411   YZ=              0.0440

  Exact polarizability:  63.920   3.550  47.979  -1.806  -1.275  30.862
 Approx polarizability:  93.144   9.517  63.168  -5.677  -2.301  44.253

                      1                      2                      3
                      A                      A                      A
 Frequencies --    148.3608               215.2662               271.3287
 Red. masses --      2.6856                 1.1574                 1.7273
 Frc consts  --      0.0348                 0.0316                 0.0749
 IR Inten    --      7.5545                 0.8421                38.9319

                      4                      5                      6
                      A                      A                      A
 Frequencies --    309.8892               326.5197               457.4268
 Red. masses --      1.5602                 1.3932                 2.5632
 Frc consts  --      0.0883                 0.0875                 0.3160
 IR Inten    --     13.4262                 8.9834                 8.4247

                      7                      8                      9
                      A                      A                      A
 Frequencies --    563.9696               710.1827               797.3985
 Red. masses --      2.6804                 1.6383                 3.1891
 Frc consts  --      0.5023                 0.4868                 1.1947
 IR Inten    --      1.1649                 8.8712                34.1887

                     10                     11                     12
                      A                      A                      A
 Frequencies --    816.2898               924.1848               997.4918
 Red. masses --      1.3900                 1.5861                 1.1813
 Frc consts  --      0.5457                 0.7982                 0.6925
 IR Inten    --     53.5758                77.1215                 5.4714

                     13                     14                     15
                      A                      A                      A
 Frequencies --   1020.6752              1123.4769              1152.2483
 Red. masses --      1.5217                 1.6101                 1.3175
 Frc consts  --      0.9340                 1.1974                 1.0306
 IR Inten    --     18.9655                58.9159                 3.4715

                     16                     17                     18
                      A                      A                      A
 Frequencies --   1257.9204              1305.8466              1322.4579
 Red. masses --      2.2581                 1.4775                 1.7090
 Frc consts  --      2.1053                 1.4844                 1.7610
 IR Inten    --      7.2371                37.3040                 2.8668

                     19                     20                     21
                      A                      A                      A
 Frequencies --   1371.5051              1439.3554              1475.5559
 Red. masses --      1.7166                 1.1869                 1.2034
 Frc consts  --      1.9024                 1.4488                 1.5437
 IR Inten    --     16.3018                 4.4881                 3.0378

                     22                     23                     24
                      A                      A                      A
 Frequencies --   1500.8719              1522.0860              1677.0252
 Red. masses --      1.0598                 1.0610                 1.2050
 Frc consts  --      1.4066                 1.4483                 1.9968
 IR Inten    --     11.3191                10.0472                58.3480

                     25                     26                     27
                      A                      A                      A
 Frequencies --   1708.1720              2979.9884              3090.0261
 Red. masses --      3.0782                 1.0565                 1.0812
 Frc consts  --      5.2919                 5.5277                 6.0823
 IR Inten    --     80.9236                64.3843                30.2413

                     28                     29                     30
                      A                      A                      A
 Frequencies --   3158.4488              3163.9733              3184.8568
 Red. masses --      1.0856                 1.1000                 1.0640
 Frc consts  --      6.3808                 6.4877                 6.3589
 IR Inten    --     17.8804                 9.7689                 0.5455

                     31                     32                     33
                      A                      A                      A
 Frequencies --   3269.0088              3423.0224              3541.4939
 Red. masses --      1.1162                 1.0514                 1.0912
 Frc consts  --      7.0280                 7.2580                 8.0633
 IR Inten    --     14.0516                22.2977                 0.9333

 - Thermochemistry -
 -------------------
 Temperature   298.150 Kelvin.  Pressure   1.00000 Atm.
 Atom     1 has atomic number  6 and mass  12.00000

 Molecular mass:    72.06875 amu.
 Principal axes and moments of inertia in atomic units:
                           1         2         3
     Eigenvalues --   210.00029 436.47768 611.97994
           X            0.99999   0.00506  -0.00132
           Y           -0.00507   0.99997  -0.00564
           Z            0.00129   0.00565   0.99998
 This molecule is an asymmetric top.
 Rotational symmetry number  1.
 Rotational temperatures (Kelvin)      0.41245     0.19844     0.14153
 Rotational constants (GHZ):           8.59399     4.13478     2.94902
 Zero-point vibrational energy     300420.1 (Joules/Mol)
                                   71.80213 (Kcal/Mol)
 Warning -- explicit consideration of   7 degrees of freedom as
           vibrations may cause significant error
 Vibrational temperatures:    213.46   309.72   390.38   445.86   469.79
          (Kelvin)            658.13   811.43  1021.79  1147.28  1174.46
                             1329.69  1435.17  1468.52  1616.43  1657.83
                             1809.86  1878.82  1902.72  1973.29  2070.91
                             2122.99  2159.42  2189.94  2412.86  2457.68
                             4287.53  4445.85  4544.30  4552.25  4582.29
                             4703.37  4924.96  5095.41

 Zero-point correction=                           0.114424 (Hartree/Particle)
 Thermal correction to Energy=                    0.120625
 Thermal correction to Enthalpy=                  0.121569
 Thermal correction to Gibbs Free Energy=         0.085573
 Sum of electronic and zero-point Energies=           -228.468477
 Sum of electronic and thermal Energies=              -228.462276
 Sum of electronic and thermal Enthalpies=            -228.461332
 Sum of electronic and thermal Free Energies=         -228.497328

                     E (Thermal)             CV                S
                      KCal/Mol        Cal/Mol-Kelvin    Cal/Mol-Kelvin
 Total                   75.693             21.895             75.760
 Electronic               0.000              0.000              0.000
 Translational            0.889              2.981             38.742
 Rotational               0.889              2.981             25.531
 Vibrational             73.916             15.934             11.487
 Vibration     1          0.618              1.904              2.693
 Vibration     2          0.645              1.818              1.999
 Vibration     3          0.675              1.726              1.588
 Vibration     4          0.699              1.655              1.363
 Vibration     5          0.710              1.622              1.277
 Vibration     6          0.816              1.344              0.774
 Vibration     7          0.920              1.109              0.516

 Optimization completed.
    -- Stationary point found.
 Normal termination of Gaussian 09 at Sat Aug 21 02:21:42 2021.
