 Gaussian 09, Revision E.01,
 Gaussian 09:  ES64L-G09RevE.01 30-Nov-2015

 ----------------------------
 #P OPT Freq B3LYP/6-31G(d,p)
 ----------------------------

 --------
 Frag_483
 --------
 Symbolic Z-matrix:
 Charge =  0 Multiplicity = 1

 SCF Done:  E(RB3LYP) =  -209.197477376     A.U. after   13 cycles
 SCF Done:  E(RB3LYP) =  -209.197525027     A.U. after   10 cycles
 SCF Done:  E(RB3LYP) =  -209.197527303     A.U. after    8 cycles
 Optimization completed.
    -- Stationary point found.
 Normal termination of Gaussian 09 at Thu Sep  8 15:18:37 2022.

 ----------------------------------------------------------------------
 #P Geom=AllCheck Guess=TCheck SCRF=Check GenChk RB3LYP/6-31G(d,p) Freq
 ----------------------------------------------------------------------

 Structure from the checkpoint file:  "B3LYP6-31Gdp.Frag_483.chk"
 --------
 Frag_483
 --------
 Charge =  0 Multiplicity = 1

                         Standard orientation:
 ---------------------------------------------------------------------
 Center     Atomic      Atomic             Coordinates (Angstroms)
 Number     Number       Type             X           Y           Z
 ---------------------------------------------------------------------
      1          6           0       -1.385615   -0.185338   -0.000011
      2          6           0        0.118091   -0.101707    0.000015
      3          7           0        0.850740   -1.135516    0.000008
      4          8           0        0.646501    1.165511   -0.000042
      5          1           0       -1.801973    0.309277   -0.885800
      6          1           0       -1.802002    0.309140    0.885845
      7          1           0       -1.691463   -1.230407   -0.000081
      8          1           0        1.837718   -0.862102    0.000032
      9          1           0       -0.064317    1.820884    0.000266
 ---------------------------------------------------------------------

 SCF Done:  E(RB3LYP) =  -209.197527303     A.U. after    1 cycles

 The electronic state is 1-A.
 Alpha  occ. eigenvalues --  -19.18605 -14.29906 -10.28131 -10.19942  -1.06967
 Alpha  occ. eigenvalues --   -0.88298  -0.74152  -0.59438  -0.52906  -0.47026
 Alpha  occ. eigenvalues --   -0.45018  -0.40530  -0.37666  -0.36048  -0.27056
 Alpha  occ. eigenvalues --   -0.26733
 Alpha virt. eigenvalues --    0.03094   0.05713   0.11917   0.14475   0.16216
 Alpha virt. eigenvalues --    0.16639   0.21257   0.29263   0.41362   0.53398
 Alpha virt. eigenvalues --    0.53810   0.57774   0.59874   0.63231   0.63452

 Mulliken charges:
               1
     1  C   -0.386714
     2  C    0.473719
     3  N   -0.537784
     4  O   -0.502759
     5  H    0.125434
     6  H    0.125425
     7  H    0.155969
     8  H    0.229601
     9  H    0.317109
 Sum of Mulliken charges =  -0.00000

 Dipole moment (field-independent basis, Debye):
    X=             -1.8481    Y=              2.4349    Z=              0.0005  Tot=              3.0569
 Quadrupole moment (field-independent basis, Debye-Ang):
   XX=            -21.9651   YY=            -25.2979   ZZ=            -24.5870
   XY=             -1.2385   XZ=              0.0000   YZ=              0.0011

  Exact polarizability:  36.719  -5.499  36.600  -0.000   0.001  20.363
 Approx polarizability:  47.889 -10.928  58.255  -0.001   0.001  28.118

                      1                      2                      3
                      A                      A                      A
 Frequencies --    173.8053               358.3084               424.2979
 Red. masses --      1.0634                 1.1610                 2.5750
 Frc consts  --      0.0189                 0.0878                 0.2731
 IR Inten    --      0.0539               117.1246                 2.6763

                      4                      5                      6
                      A                      A                      A
 Frequencies --    537.4530               539.0508               860.5694
 Red. masses --      3.3091                 2.0878                 4.0582
 Frc consts  --      0.5632                 0.3574                 1.7707
 IR Inten    --     26.4570                12.6545                34.7505

                      7                      8                      9
                      A                      A                      A
 Frequencies --    919.1672              1013.8080              1077.8900
 Red. masses --      1.3395                 1.5316                 1.4948
 Frc consts  --      0.6668                 0.9275                 1.0233
 IR Inten    --     72.3799                 2.5913                 0.6872

                     10                     11                     12
                      A                      A                      A
 Frequencies --   1129.5459              1231.5611              1369.3929
 Red. masses --      1.8172                 1.2069                 1.7785
 Frc consts  --      1.3660                 1.0786                 1.9650
 IR Inten    --     44.4276                58.7802               233.5989

                     13                     14                     15
                      A                      A                      A
 Frequencies --   1427.0269              1491.7984              1500.7989
 Red. masses --      1.6102                 1.0578                 1.0439
 Frc consts  --      1.9320                 1.3870                 1.3853
 IR Inten    --     94.2259                 0.5596                 9.0039

                     16                     17                     18
                      A                      A                      A
 Frequencies --   1792.1521              3040.8144              3097.1172
 Red. masses --      7.2108                 1.0406                 1.1008
 Frc consts  --     13.6453                 5.6689                 6.2212
 IR Inten    --    155.7769                13.0142                16.3567

                     19                     20                     21
                      A                      A                      A
 Frequencies --   3180.4536              3466.1137              3807.7801
 Red. masses --      1.0984                 1.0739                 1.0663
 Frc consts  --      6.5465                 7.6014                 9.1092
 IR Inten    --      3.7624                 0.9725                30.6475

 - Thermochemistry -
 -------------------
 Temperature   298.150 Kelvin.  Pressure   1.00000 Atm.
 Atom     1 has atomic number  6 and mass  12.00000

 Molecular mass:    59.03711 amu.
 Principal axes and moments of inertia in atomic units:
                           1         2         3
     Eigenvalues --   170.07090 193.98508 352.75968
           X            0.99375  -0.11165   0.00000
           Y            0.11165   0.99375   0.00001
           Z           -0.00000  -0.00001   1.00000
 This molecule is an asymmetric top.
 Rotational symmetry number  1.
 Rotational temperatures (Kelvin)      0.50928     0.44650     0.24553
 Rotational constants (GHZ):          10.61170     9.30351     5.11606
 Zero-point vibrational energy     194027.7 (Joules/Mol)
                                   46.37374 (Kcal/Mol)
 Warning -- explicit consideration of   5 degrees of freedom as
           vibrations may cause significant error
 Vibrational temperatures:    250.07   515.53   610.47   773.27   775.57
          (Kelvin)           1238.17  1322.47  1458.64  1550.84  1625.16
                             1771.94  1970.25  2053.17  2146.36  2159.31
                             2578.50  4375.05  4456.06  4575.96  4986.96
                             5478.54

 Zero-point correction=                           0.073901 (Hartree/Particle)
 Thermal correction to Energy=                    0.078608
 Thermal correction to Enthalpy=                  0.079553
 Thermal correction to Gibbs Free Energy=         0.047120
 Sum of electronic and zero-point Energies=           -209.123626
 Sum of electronic and thermal Energies=              -209.118919
 Sum of electronic and thermal Enthalpies=            -209.117975
 Sum of electronic and thermal Free Energies=         -209.150407

                     E (Thermal)             CV                S
                      KCal/Mol        Cal/Mol-Kelvin    Cal/Mol-Kelvin
 Total                   49.328             15.668             68.259
 Electronic               0.000              0.000              0.000
 Translational            0.889              2.981             38.147
 Rotational               0.889              2.981             23.969
 Vibrational             47.550              9.706              6.144
 Vibration     1          0.627              1.875              2.394
 Vibration     2          0.733              1.558              1.129
 Vibration     3          0.786              1.417              0.877
 Vibration     4          0.892              1.167              0.571
 Vibration     5          0.894              1.164              0.567

 Optimization completed.
    -- Stationary point found.
 Normal termination of Gaussian 09 at Thu Sep  8 15:18:43 2022.
