 Gaussian 09, Revision D.01,
 Gaussian 09:  ES64L-G09RevD.01 24-Apr-2013

 -------------------------
 #P OPT Freq B3LYP/6-31G**
 -------------------------

 -------
 Frag_17
 -------
 Symbolic Z-matrix:
 Charge =  0 Multiplicity = 1

 SCF Done:  E(RB3LYP) =  -211.392812634     A.U. after   13 cycles
 Optimization completed.
    -- Stationary point found.

 1\1\GINC-FN12\FOpt\RB3LYP\6-31G(d,p)\C4H7N1\LIUJ201281\23-Jul-2021\0\\
 #P OPT Freq B3LYP/6-31G**\\Frag_17\\0,1\C,-1.0224,1.2799,0.1436\C,-0.3
 569,0.,-0.3996\C,-1.0229,-1.2796,0.1437\C,1.0836,-0.0004,-0.0967\N,2.2
 176,-0.0001,0.1532\H,-2.0813,1.2881,-0.1311\H,-0.9496,1.3213,1.2343\H,
 -0.5517,2.1774,-0.2654\H,-0.4438,0.,-1.4942\H,-2.0818,-1.2874,-0.1311\
 H,-0.5525,-2.1773,-0.2652\H,-0.9502,-1.321,1.2343\\Version=ES64L-G09Re
 vD.01\State=1-A\HF=-211.3928126\RMSD=4.241e-09\RMSF=5.697e-05\Dipole=-
 1.531806,0.0000794,-0.2652565\Quadrupole=-4.618638,2.4232041,2.1954339

 Normal termination of Gaussian 09 at Fri Jul 23 07:46:06 2021.

 ----------------------------------------------------------------------
 #P Geom=AllCheck Guess=TCheck SCRF=Check GenChk RB3LYP/6-31G(d,p) Freq
 ----------------------------------------------------------------------

 Structure from the checkpoint file:  "/vol2/users/liuj201281/HOFBenchmark/IsodesmicSplit/Sample60/Ring26/Running/Gau-286834.chk"
 -------
 Frag_17
 -------
 Charge =  0 Multiplicity = 1

                         Standard orientation:
 ---------------------------------------------------------------------
 Center     Atomic      Atomic             Coordinates (Angstroms)
 Number     Number       Type             X           Y           Z
 ---------------------------------------------------------------------
      1          6           0       -1.022451    1.279879    0.143600
      2          6           0       -0.356918   -0.000004   -0.399600
      3          6           0       -1.022886   -1.279621    0.143700
      4          6           0        1.083582   -0.000367   -0.096700
      5          7           0        2.217582   -0.000038    0.153200
      6          1           0       -2.081351    1.288052   -0.131100
      7          1           0       -0.949652    1.321281    1.234300
      8          1           0       -0.551774    2.177391   -0.265400
      9          1           0       -0.443818   -0.000006   -1.494200
     10          1           0       -2.081785   -1.287448   -0.131100
     11          1           0       -0.552463   -2.177309   -0.265200
     12          1           0       -0.950185   -1.321019    1.234300
 ---------------------------------------------------------------------

 SCF Done:  E(RB3LYP) =  -211.392812634     A.U. after    1 cycles

 The electronic state is 1-A.
 Alpha  occ. eigenvalues --  -14.32819 -10.24413 -10.22130 -10.20199 -10.20198
 Alpha  occ. eigenvalues --   -0.89897  -0.82406  -0.70923  -0.64842  -0.52031
 Alpha  occ. eigenvalues --   -0.47243  -0.43839  -0.40810  -0.40230  -0.37864
 Alpha  occ. eigenvalues --   -0.37476  -0.34929  -0.31868  -0.31781
 Alpha virt. eigenvalues --    0.03591   0.04020   0.08049   0.12245   0.13320
 Alpha virt. eigenvalues --    0.14538   0.15129   0.17316   0.18369   0.19226
 Alpha virt. eigenvalues --    0.22407   0.24267   0.33997   0.47747   0.50936

 Mulliken charges:
               1
     1  C   -0.307898
     2  C   -0.135720
     3  C   -0.307934
     4  C    0.339488
     5  N   -0.472851
     6  H    0.115569
     7  H    0.126653
     8  H    0.127355
     9  H    0.145764
    10  H    0.115556
    11  H    0.127346
    12  H    0.126672
 Sum of Mulliken charges =   0.00000

 Dipole moment (field-independent basis, Debye):
    X=             -3.8935    Y=              0.0001    Z=             -0.6742  Tot=              3.9514
 Quadrupole moment (field-independent basis, Debye-Ang):
   XX=            -39.1502   YY=            -29.6787   ZZ=            -29.9850
   XY=             -0.0002   XZ=             -0.7514   YZ=             -0.0002

  Exact polarizability:  55.785   0.002  41.586   2.319   0.000  36.915
 Approx polarizability:  85.325   0.007  52.312   7.112   0.001  53.103

                      1                      2                      3
                      A                      A                      A
 Frequencies --    187.8837               219.6122               225.6598
 Red. masses --      4.1270                 1.6190                 1.0320
 Frc consts  --      0.0858                 0.0460                 0.0310
 IR Inten    --      4.5734                 2.1075                 0.0153

                      4                      5                      6
                      A                      A                      A
 Frequencies --    284.7810               352.7905               552.9241
 Red. masses --      1.6550                 2.3741                 3.7231
 Frc consts  --      0.0791                 0.1741                 0.6706
 IR Inten    --      1.0377                 0.2061                 1.3117

                      7                      8                      9
                      A                      A                      A
 Frequencies --    571.1044               771.8350               929.3630
 Red. masses --      5.5900                 2.9812                 2.3355
 Frc consts  --      1.0742                 1.0464                 1.1885
 IR Inten    --      0.0214                 0.6653                 0.6868

                     10                     11                     12
                      A                      A                      A
 Frequencies --    942.7305               973.0557              1128.7040
 Red. masses --      1.1567                 1.5360                 2.2842
 Frc consts  --      0.6057                 0.8569                 1.7145
 IR Inten    --      2.0664                 0.1176                 2.3396

                     13                     14                     15
                      A                      A                      A
 Frequencies --   1130.7722              1197.1051              1327.9349
 Red. masses --      1.5628                 1.7494                 1.3398
 Frc consts  --      1.1774                 1.4771                 1.3920
 IR Inten    --      4.9347                 3.0280                 0.8157

                     16                     17                     18
                      A                      A                      A
 Frequencies --   1355.5032              1414.6555              1436.0546
 Red. masses --      1.4642                 1.2105                 1.2129
 Frc consts  --      1.5851                 1.4272                 1.4737
 IR Inten    --      7.0956                 2.0819                 1.6676

                     19                     20                     21
                      A                      A                      A
 Frequencies --   1501.2445              1503.8316              1514.2296
 Red. masses --      1.0409                 1.0474                 1.0415
 Frc consts  --      1.3822                 1.3957                 1.4070
 IR Inten    --      1.1895                 2.2157                 7.1554

                     22                     23                     24
                      A                      A                      A
 Frequencies --   1524.2845              2361.3506              3043.0235
 Red. masses --      1.0538                12.6526                 1.0830
 Frc consts  --      1.4426                41.5672                 5.9087
 IR Inten    --      7.7768                 7.8194                 5.4258

                     25                     26                     27
                      A                      A                      A
 Frequencies --   3054.4013              3057.5947              3129.9419
 Red. masses --      1.0345                 1.0353                 1.1039
 Frc consts  --      5.6861                 5.7025                 6.3716
 IR Inten    --     16.0611                16.6459                 0.4687

                     28                     29                     30
                      A                      A                      A
 Frequencies --   3134.6730              3139.6534              3140.8088
 Red. masses --      1.1031                 1.1038                 1.1036
 Frc consts  --      6.3861                 6.4107                 6.4141
 IR Inten    --     36.9512                14.2881                22.0886

 - Thermochemistry -
 -------------------
 Temperature   298.150 Kelvin.  Pressure   1.00000 Atm.
 Atom     1 has atomic number  6 and mass  12.00000

 Molecular mass:    69.05785 amu.
 Principal axes and moments of inertia in atomic units:
                           1         2         3
     Eigenvalues --   228.78241 458.77047 627.96816
           X            0.99997   0.00002  -0.00765
           Y           -0.00002   1.00000   0.00002
           Z            0.00765  -0.00002   0.99997
 This molecule is an asymmetric top.
 Rotational symmetry number  1.
 Rotational temperatures (Kelvin)      0.37859     0.18880     0.13793
 Rotational constants (GHZ):           7.88846     3.93387     2.87394
 Zero-point vibrational energy     269802.8 (Joules/Mol)
                                   64.48442 (Kcal/Mol)
 Warning -- explicit consideration of   7 degrees of freedom as
           vibrations may cause significant error
 Vibrational temperatures:    270.32   315.97   324.67   409.74   507.59
          (Kelvin)            795.53   821.69  1110.50  1337.14  1356.38
                             1400.01  1623.95  1626.93  1722.37  1910.60
                             1950.26  2035.37  2066.16  2159.95  2163.68
                             2178.64  2193.10  3397.45  4378.23  4394.60
                             4399.19  4503.28  4510.09  4517.26  4518.92

 Zero-point correction=                           0.102762 (Hartree/Particle)
 Thermal correction to Energy=                    0.108724
 Thermal correction to Enthalpy=                  0.109668
 Thermal correction to Gibbs Free Energy=         0.074042
 Sum of electronic and zero-point Energies=           -211.290050
 Sum of electronic and thermal Energies=              -211.284089
 Sum of electronic and thermal Enthalpies=            -211.283145
 Sum of electronic and thermal Free Energies=         -211.318771

                     E (Thermal)             CV                S
                      KCal/Mol        Cal/Mol-Kelvin    Cal/Mol-Kelvin
 Total                   68.225             20.403             74.982
 Electronic               0.000              0.000              0.000
 Translational            0.889              2.981             38.614
 Rotational               0.889              2.981             25.692
 Vibrational             66.448             14.442             10.676
 Vibration     1          0.633              1.856              2.249
 Vibration     2          0.647              1.811              1.962
 Vibration     3          0.650              1.802              1.913
 Vibration     4          0.683              1.702              1.505
 Vibration     5          0.729              1.570              1.154
 Vibration     6          0.908              1.133              0.538
 Vibration     7          0.927              1.094              0.502

 Optimization completed.
    -- Stationary point found.

 1\1\GINC-FN12\Freq\RB3LYP\6-31G(d,p)\C4H7N1\LIUJ201281\23-Jul-2021\0\\
 #P Geom=AllCheck Guess=TCheck SCRF=Check GenChk RB3LYP/6-31G(d,p) Freq
 \\Frag_17\\0,1\C,-1.0224,1.2799,0.1436\C,-0.3569,0.,-0.3996\C,-1.0229,
 -1.2796,0.1437\C,1.0836,-0.0004,-0.0967\N,2.2176,-0.0001,0.1532\H,-2.0
 813,1.2881,-0.1311\H,-0.9496,1.3213,1.2343\H,-0.5517,2.1774,-0.2654\H,
 -0.4438,0.,-1.4942\H,-2.0818,-1.2874,-0.1311\H,-0.5525,-2.1773,-0.2652
 \H,-0.9502,-1.321,1.2343\\Version=ES64L-G09RevD.01\State=1-A\HF=-211.3
 928126\RMSD=2.621e-09\RMSF=5.697e-05\ZeroPoint=0.1027625\Thermal=0.108

 Normal termination of Gaussian 09 at Fri Jul 23 07:46:17 2021.
