 Gaussian 09, Revision E.01,
 Gaussian 09:  ES64L-G09RevE.01 30-Nov-2015

 --------------------------------
 #P OPT=calcfc Freq B3LYP/6-31G**
 --------------------------------

 --------
 Frag_181
 --------
 Symbolic Z-matrix:
 Charge =  0 Multiplicity = 1

 SCF Done:  E(RB3LYP) =  -378.832889714     A.U. after   14 cycles
 SCF Done:  E(RB3LYP) =  -378.842951870     A.U. after   13 cycles
 SCF Done:  E(RB3LYP) =  -378.843162168     A.U. after   13 cycles
 SCF Done:  E(RB3LYP) =  -378.843560035     A.U. after   12 cycles
 SCF Done:  E(RB3LYP) =  -378.843572009     A.U. after    9 cycles
 SCF Done:  E(RB3LYP) =  -378.843573481     A.U. after    8 cycles
 Optimization completed.
    -- Stationary point found.
 Normal termination of Gaussian 09 at Sat Aug 21 02:19:39 2021.

 ----------------------------------------------------------------------
 #P Geom=AllCheck Guess=TCheck SCRF=Check GenChk RB3LYP/6-31G(d,p) Freq
 ----------------------------------------------------------------------

 Structure from the checkpoint file:  "/public/home/users/caep010/.cache/gau_scr/Gau-162267.chk"
 --------
 Frag_181
 --------
 Charge =  0 Multiplicity = 1

                         Standard orientation:
 ---------------------------------------------------------------------
 Center     Atomic      Atomic             Coordinates (Angstroms)
 Number     Number       Type             X           Y           Z
 ---------------------------------------------------------------------
      1          6           0        2.139157   -0.075507   -0.000788
      2          6           0        1.422597    1.094755   -0.033687
      3          7           0        0.093304    0.680878   -0.072839
      4          6           0        0.122784   -0.676464   -0.005985
      5          7           0        1.313779   -1.200326    0.021885
      6          8           0       -1.116999   -1.220573    0.092068
      7          6           0       -2.042988   -0.130708   -0.134087
      8          6           0       -1.251177    1.182071    0.135496
      9          1           0        3.214560   -0.184609   -0.008290
     10          1           0        1.717076    2.130565   -0.085311
     11          1           0       -2.895919   -0.266174    0.532097
     12          1           0       -2.381302   -0.171351   -1.175470
     13          1           0       -1.524667    1.973410   -0.567663
     14          1           0       -1.385570    1.554002    1.159070
 ---------------------------------------------------------------------

 SCF Done:  E(RB3LYP) =  -378.843573481     A.U. after    1 cycles

 The electronic state is 1-A.
 Alpha  occ. eigenvalues --  -19.19279 -14.38639 -14.30350 -10.28387 -10.26953
 Alpha  occ. eigenvalues --  -10.25802 -10.20935 -10.19625  -1.10368  -0.99548
 Alpha  occ. eigenvalues --   -0.89413  -0.77094  -0.73880  -0.65621  -0.60544
 Alpha  occ. eigenvalues --   -0.57316  -0.53275  -0.50997  -0.48025  -0.44544
 Alpha  occ. eigenvalues --   -0.43673  -0.42971  -0.41440  -0.39249  -0.37032
 Alpha  occ. eigenvalues --   -0.32200  -0.26951  -0.26558  -0.20374
 Alpha virt. eigenvalues --    0.03783   0.07216   0.08282   0.09289   0.11437
 Alpha virt. eigenvalues --    0.12470   0.13576   0.16186   0.17047   0.18900
 Alpha virt. eigenvalues --    0.20047   0.22711   0.26759   0.28022   0.36856

 Mulliken charges:
               1
     1  C    0.012949
     2  C    0.048855
     3  N   -0.462206
     4  C    0.751431
     5  N   -0.524093
     6  O   -0.515263
     7  C    0.025643
     8  C   -0.059269
     9  H    0.091666
    10  H    0.104465
    11  H    0.129730
    12  H    0.130898
    13  H    0.130901
    14  H    0.134293
 Sum of Mulliken charges =  -0.00000

 Dipole moment (field-independent basis, Debye):
    X=             -2.9065    Y=              4.1439    Z=             -0.1480  Tot=              5.0637
 Quadrupole moment (field-independent basis, Debye-Ang):
   XX=            -39.8499   YY=            -48.5154   ZZ=            -46.3221
   XY=              1.0309   XZ=              0.1316   YZ=              0.3577

  Exact polarizability:  80.952  -2.431  62.075   0.101   0.115  36.683
 Approx polarizability: 113.359  -6.147 107.022   0.192  -1.182  54.569

                      1                      2                      3
                      A                      A                      A
 Frequencies --    143.8212               163.2948               295.9531
 Red. masses --      3.7486                 1.9999                 7.0157
 Frc consts  --      0.0457                 0.0314                 0.3620
 IR Inten    --      3.1282                 1.5411                 0.6773

                      4                      5                      6
                      A                      A                      A
 Frequencies --    468.9429               608.2858               642.6270
 Red. masses --      4.2172                 4.5161                 4.1019
 Frc consts  --      0.5464                 0.9845                 0.9981
 IR Inten    --      3.6962                 3.8441                 0.6048

                      7                      8                      9
                      A                      A                      A
 Frequencies --    675.1889               713.7727               742.7340
 Red. masses --      1.3307                 4.6848                 8.3074
 Frc consts  --      0.3574                 1.4062                 2.7001
 IR Inten    --     43.0447                 1.3620                18.4803

                     10                     11                     12
                      A                      A                      A
 Frequencies --    777.9506               840.1247               882.4209
 Red. masses --      2.9557                 1.2818                 1.9067
 Frc consts  --      1.0539                 0.5330                 0.8747
 IR Inten    --      2.2767                 5.6895                 9.7502

                     13                     14                     15
                      A                      A                      A
 Frequencies --    943.6509               949.3063              1031.9111
 Red. masses --      2.7246                 4.8670                 5.8158
 Frc consts  --      1.4295                 2.5842                 3.6488
 IR Inten    --      7.6857                 3.8394                70.2403

                     16                     17                     18
                      A                      A                      A
 Frequencies --   1088.5683              1133.6362              1142.4685
 Red. masses --      1.4976                 1.7590                 2.3862
 Frc consts  --      1.0456                 1.3319                 1.8350
 IR Inten    --      6.9209                 7.6888                16.7801

                     19                     20                     21
                      A                      A                      A
 Frequencies --   1183.5378              1219.3463              1256.6519
 Red. masses --      2.4463                 1.2499                 1.2532
 Frc consts  --      2.0189                 1.0950                 1.1660
 IR Inten    --      3.7595                12.0031                11.4955

                     22                     23                     24
                      A                      A                      A
 Frequencies --   1301.6329              1308.6988              1382.3403
 Red. masses --      1.9743                 1.5894                 1.4476
 Frc consts  --      1.9708                 1.6039                 1.6298
 IR Inten    --     41.7249                27.2446                 6.4403

                     25                     26                     27
                      A                      A                      A
 Frequencies --   1409.4626              1494.1871              1528.3795
 Red. masses --      4.6932                 2.3365                 1.3572
 Frc consts  --      5.4932                 3.0734                 1.8679
 IR Inten    --     20.6118                54.4618                15.2136

                     28                     29                     30
                      A                      A                      A
 Frequencies --   1531.4227              1547.6179              1634.8665
 Red. masses --      2.2277                 1.4592                 8.6797
 Frc consts  --      3.0782                 2.0592                13.6685
 IR Inten    --     24.3408                13.2312               246.7551

                     31                     32                     33
                      A                      A                      A
 Frequencies --   3040.3777              3060.8493              3106.7230
 Red. masses --      1.0659                 1.0674                 1.0997
 Frc consts  --      5.8053                 5.8921                 6.2534
 IR Inten    --     48.5495                37.6895                26.2537

                     34                     35                     36
                      A                      A                      A
 Frequencies --   3146.8365              3258.2718              3296.3159
 Red. masses --      1.1030                 1.0926                 1.1023
 Frc consts  --      6.4356                 6.8344                 7.0566
 IR Inten    --     22.2540                 5.9382                 3.4438

 - Thermochemistry -
 -------------------
 Temperature   298.150 Kelvin.  Pressure   1.00000 Atm.
 Atom     1 has atomic number  6 and mass  12.00000

 Molecular mass:   110.04801 amu.
 Principal axes and moments of inertia in atomic units:
                           1         2         3
     Eigenvalues --   365.22712 815.160271151.62752
           X            0.99996  -0.00832   0.00154
           Y            0.00831   0.99995   0.00581
           Z           -0.00159  -0.00580   0.99998
 This molecule is an asymmetric top.
 Rotational symmetry number  1.
 Rotational temperatures (Kelvin)      0.23715     0.10625     0.07521
 Rotational constants (GHZ):           4.94142     2.21397     1.56712
 Zero-point vibrational energy     292799.0 (Joules/Mol)
                                   69.98065 (Kcal/Mol)
 Warning -- explicit consideration of   5 degrees of freedom as
           vibrations may cause significant error
 Vibrational temperatures:    206.93   234.94   425.81   674.70   875.19
          (Kelvin)            924.60   971.44  1026.96  1068.63  1119.30
                             1208.75  1269.61  1357.70  1365.84  1484.69
                             1566.21  1631.05  1643.76  1702.84  1754.37
                             1808.04  1872.76  1882.92  1988.88  2027.90
                             2149.80  2198.99  2203.37  2226.67  2352.21
                             4374.42  4403.87  4469.88  4527.59  4687.92
                             4742.66

 Zero-point correction=                           0.111521 (Hartree/Particle)
 Thermal correction to Energy=                    0.117429
 Thermal correction to Enthalpy=                  0.118373
 Thermal correction to Gibbs Free Energy=         0.081420
 Sum of electronic and zero-point Energies=           -378.732052
 Sum of electronic and thermal Energies=              -378.726145
 Sum of electronic and thermal Enthalpies=            -378.725200
 Sum of electronic and thermal Free Energies=         -378.762154

                     E (Thermal)             CV                S
                      KCal/Mol        Cal/Mol-Kelvin    Cal/Mol-Kelvin
 Total                   73.688             22.363             77.775
 Electronic               0.000              0.000              0.000
 Translational            0.889              2.981             40.003
 Rotational               0.889              2.981             27.330
 Vibrational             71.910             16.401             10.441
 Vibration     1          0.616              1.909              2.752
 Vibration     2          0.623              1.887              2.511
 Vibration     3          0.690              1.681              1.440
 Vibration     4          0.826              1.319              0.741
 Vibration     5          0.967              1.014              0.436

 Normal termination of Gaussian 09 at Sat Aug 21 02:19:53 2021.
