 Gaussian 09, Revision E.01,
 Gaussian 09:  ES64L-G09RevE.01 30-Nov-2015

 ----------------------------
 #P OPT Freq B3LYP/6-31G(d,p)
 ----------------------------

 --------
 Frag_984
 --------
 Symbolic Z-matrix:
 Charge =  0 Multiplicity = 1

 SCF Done:  E(RB3LYP) =  -282.685931706     A.U. after   15 cycles
 SCF Done:  E(RB3LYP) =  -282.686021915     A.U. after   11 cycles
 SCF Done:  E(RB3LYP) =  -282.686028214     A.U. after   12 cycles
 SCF Done:  E(RB3LYP) =  -282.686029917     A.U. after    9 cycles
 SCF Done:  E(RB3LYP) =  -282.686030308     A.U. after    8 cycles
 SCF Done:  E(RB3LYP) =  -282.686030509     A.U. after    8 cycles
 Optimization completed.
    -- Stationary point found.
 Normal termination of Gaussian 09 at Thu Sep  8 15:09:53 2022.

 ----------------------------------------------------------------------
 #P Geom=AllCheck Guess=TCheck SCRF=Check GenChk RB3LYP/6-31G(d,p) Freq
 ----------------------------------------------------------------------

 Structure from the checkpoint file:  "B3LYP6-31Gdp.Frag_984.chk"
 --------
 Frag_984
 --------
 Charge =  0 Multiplicity = 1

                         Standard orientation:
 ---------------------------------------------------------------------
 Center     Atomic      Atomic             Coordinates (Angstroms)
 Number     Number       Type             X           Y           Z
 ---------------------------------------------------------------------
      1          6           0       -1.148568    1.349350   -0.374774
      2          6           0       -0.682828    0.152609   -0.022384
      3          6           0       -1.494426   -1.052724    0.334721
      4          7           0        0.779952   -0.051234   -0.002555
      5          7           0        1.142069   -1.185771   -0.495420
      6          7           0        1.588594    0.851302    0.457843
      7          1           0       -2.216286    1.533273   -0.396440
      8          1           0       -0.492097    2.158932   -0.672311
      9          1           0       -2.557204   -0.801639    0.329820
     10          1           0       -1.221584   -1.427783    1.326778
     11          1           0       -1.303449   -1.858864   -0.377268
     12          1           0        2.165946   -1.190364   -0.408558
     13          1           0        1.005294    1.590957    0.853526
 ---------------------------------------------------------------------

 SCF Done:  E(RB3LYP) =  -282.686030509     A.U. after    1 cycles

 The electronic state is 1-A.
 Alpha  occ. eigenvalues --  -14.49196 -14.33445 -14.33438 -10.25721 -10.21036
 Alpha  occ. eigenvalues --  -10.20001  -1.08912  -0.87898  -0.83126  -0.71382
 Alpha  occ. eigenvalues --   -0.68390  -0.56563  -0.53068  -0.49890  -0.48085
 Alpha  occ. eigenvalues --   -0.43562  -0.42166  -0.41287  -0.39668  -0.30434
 Alpha  occ. eigenvalues --   -0.29598  -0.27408  -0.22232
 Alpha virt. eigenvalues --   -0.04614   0.01632   0.09225   0.10941   0.13209
 Alpha virt. eigenvalues --    0.13687   0.14529   0.17218   0.17734   0.20269
 Alpha virt. eigenvalues --    0.26051   0.31042   0.32813   0.37717   0.49378

 Mulliken charges:
               1
     1  C   -0.271770
     2  C    0.294306
     3  C   -0.350953
     4  N   -0.035829
     5  N   -0.384857
     6  N   -0.392493
     7  H    0.120166
     8  H    0.128556
     9  H    0.113658
    10  H    0.134140
    11  H    0.168899
    12  H    0.245717
    13  H    0.230460
 Sum of Mulliken charges =  -0.00000

 Dipole moment (field-independent basis, Debye):
    X=             -2.6454    Y=              1.0336    Z=              0.6010  Tot=              2.9030
 Quadrupole moment (field-independent basis, Debye-Ang):
   XX=            -36.5080   YY=            -35.2999   ZZ=            -37.6905
   XY=             -1.8744   XZ=             -0.7695   YZ=             -1.3428

  Exact polarizability:  59.188  -4.299  68.722   1.956   3.232  33.808
 Approx polarizability:  80.239  -3.627 133.554   6.938  17.849  54.960

                      1                      2                      3
                      A                      A                      A
 Frequencies --     80.1072               185.2610               313.4607
 Red. masses --      4.0558                 1.0521                 3.1520
 Frc consts  --      0.0153                 0.0213                 0.1825
 IR Inten    --      0.5614                 0.4255                 5.4413

                      4                      5                      6
                      A                      A                      A
 Frequencies --    340.3060               393.3611               554.7162
 Red. masses --      3.4102                 2.5371                 2.5883
 Frc consts  --      0.2327                 0.2313                 0.4693
 IR Inten    --      2.9599                 3.2033                 4.0931

                      7                      8                      9
                      A                      A                      A
 Frequencies --    575.3872               636.0555               678.2712
 Red. masses --      3.1558                 2.2433                 1.1034
 Frc consts  --      0.6156                 0.5347                 0.2991
 IR Inten    --     20.4240                11.5957               107.5502

                     10                     11                     12
                      A                      A                      A
 Frequencies --    789.8288               801.1342               880.6726
 Red. masses --      3.2356                 1.5280                 1.3533
 Frc consts  --      1.1892                 0.5778                 0.6184
 IR Inten    --     12.5835                 1.5129                17.9606

                     13                     14                     15
                      A                      A                      A
 Frequencies --    940.8900               942.5750              1028.9947
 Red. masses --      1.7009                 1.4007                 1.4474
 Frc consts  --      0.8872                 0.7332                 0.9029
 IR Inten    --     12.4519                28.7708                 9.8041

                     16                     17                     18
                      A                      A                      A
 Frequencies --   1080.4709              1222.9655              1252.9443
 Red. masses --      1.4802                 3.6474                 2.6339
 Frc consts  --      1.0181                 3.2141                 2.4362
 IR Inten    --      2.6206                20.7679                25.1949

                     19                     20                     21
                      A                      A                      A
 Frequencies --   1353.9646              1415.6775              1447.6419
 Red. masses --      1.4665                 1.1981                 1.2216
 Frc consts  --      1.5839                 1.4148                 1.5083
 IR Inten    --    149.4959                 8.3326                 1.8806

                     22                     23                     24
                      A                      A                      A
 Frequencies --   1480.1429              1499.8229              1523.8478
 Red. masses --      1.0600                 1.0569                 2.0707
 Frc consts  --      1.3683                 1.4008                 2.8330
 IR Inten    --      4.2597                20.7108               147.3124

                     25                     26                     27
                      A                      A                      A
 Frequencies --   1606.7546              1744.3395              3058.8354
 Red. masses --      2.7201                 5.6252                 1.0374
 Frc consts  --      4.1374                10.0844                 5.7188
 IR Inten    --     45.2922                12.2519                10.0472

                     28                     29                     30
                      A                      A                      A
 Frequencies --   3127.9954              3154.7873              3183.3551
 Red. masses --      1.0984                 1.1039                 1.0613
 Frc consts  --      6.3318                 6.4734                 6.3367
 IR Inten    --      9.0670                 7.9588                 0.4145

                     31                     32                     33
                      A                      A                      A
 Frequencies --   3273.5420              3415.8998              3473.8475
 Red. masses --      1.1175                 1.0717                 1.0735
 Frc consts  --      7.0554                 7.3679                 7.6325
 IR Inten    --      2.1518                 2.0275                 0.6331

 - Thermochemistry -
 -------------------
 Temperature   298.150 Kelvin.  Pressure   1.00000 Atm.
 Atom     1 has atomic number  6 and mass  12.00000

 Molecular mass:    85.06400 amu.
 Principal axes and moments of inertia in atomic units:
                           1         2         3
     Eigenvalues --   340.89664 513.39501 762.14935
           X            0.99985   0.01556  -0.00710
           Y           -0.01573   0.99959  -0.02395
           Z            0.00673   0.02405   0.99969
 This molecule is an asymmetric top.
 Rotational symmetry number  1.
 Rotational temperatures (Kelvin)      0.25408     0.16871     0.11364
 Rotational constants (GHZ):           5.29410     3.51531     2.36796
 Zero-point vibrational energy     283861.0 (Joules/Mol)
                                   67.84441 (Kcal/Mol)
 Warning -- explicit consideration of   7 degrees of freedom as
           vibrations may cause significant error
 Vibrational temperatures:    115.26   266.55   451.00   489.62   565.96
          (Kelvin)            798.11   827.85   915.14   975.88  1136.39
                             1152.65  1267.09  1353.73  1356.15  1480.49
                             1554.55  1759.57  1802.71  1948.05  2036.84
                             2082.83  2129.59  2157.91  2192.47  2311.76
                             2509.71  4400.98  4500.48  4539.03  4580.13
                             4709.89  4914.71  4998.09

 Zero-point correction=                           0.108117 (Hartree/Particle)
 Thermal correction to Energy=                    0.114462
 Thermal correction to Enthalpy=                  0.115407
 Thermal correction to Gibbs Free Energy=         0.078243
 Sum of electronic and zero-point Energies=           -282.577914
 Sum of electronic and thermal Energies=              -282.571568
 Sum of electronic and thermal Enthalpies=            -282.570624
 Sum of electronic and thermal Free Energies=         -282.607787

                     E (Thermal)             CV                S
                      KCal/Mol        Cal/Mol-Kelvin    Cal/Mol-Kelvin
 Total                   71.826             22.915             78.217
 Electronic               0.000              0.000              0.000
 Translational            0.889              2.981             39.236
 Rotational               0.889              2.981             26.392
 Vibrational             70.049             16.954             12.589
 Vibration     1          0.600              1.963              3.888
 Vibration     2          0.631              1.860              2.275
 Vibration     3          0.701              1.648              1.344
 Vibration     4          0.720              1.595              1.211
 Vibration     5          0.761              1.484              0.987
 Vibration     6          0.910              1.129              0.534
 Vibration     7          0.932              1.084              0.494

 Optimization completed.
    -- Stationary point found.
 Normal termination of Gaussian 09 at Thu Sep  8 15:10:04 2022.
