 Gaussian 09, Revision E.01,
 Gaussian 09:  ES64L-G09RevE.01 30-Nov-2015

 -------------------------
 #P OPT Freq B3LYP/6-31G**
 -------------------------

 --------
 Frag_248
 --------
 Symbolic Z-matrix:
 Charge =  0 Multiplicity = 1

 SCF Done:  E(RB3LYP) =  -317.465152790     A.U. after   14 cycles
 SCF Done:  E(RB3LYP) =  -317.491996025     A.U. after   13 cycles
 SCF Done:  E(RB3LYP) =  -317.495122529     A.U. after   13 cycles
 SCF Done:  E(RB3LYP) =  -317.495278891     A.U. after   10 cycles
 SCF Done:  E(RB3LYP) =  -317.495291784     A.U. after    9 cycles
 SCF Done:  E(RB3LYP) =  -317.495294778     A.U. after    9 cycles
 SCF Done:  E(RB3LYP) =  -317.495295279     A.U. after    8 cycles
 Optimization completed.
    -- Stationary point found.
 Normal termination of Gaussian 09 at Sat Aug 21 01:38:53 2021.

 ----------------------------------------------------------------------
 #P Geom=AllCheck Guess=TCheck SCRF=Check GenChk RB3LYP/6-31G(d,p) Freq
 ----------------------------------------------------------------------

 Structure from the checkpoint file:  "/public/home/users/caep010/.cache/gau_scr/Gau-29934.chk"
 --------
 Frag_248
 --------
 Charge =  0 Multiplicity = 1

                         Standard orientation:
 ---------------------------------------------------------------------
 Center     Atomic      Atomic             Coordinates (Angstroms)
 Number     Number       Type             X           Y           Z
 ---------------------------------------------------------------------
      1          8           0        2.024847    0.043662    0.000001
      2          6           0        0.807766    0.010868   -0.000012
      3          7           0       -0.105024    1.078198    0.000015
      4          6           0       -1.381762    0.569991   -0.000023
      5          7           0       -1.392764   -0.728223    0.000021
      6          7           0       -0.056911   -1.067742   -0.000009
      7          1           0        0.179375    2.044341    0.000028
      8          1           0       -2.272566    1.180679   -0.000025
      9          1           0        0.221289   -2.035103    0.000012
 ---------------------------------------------------------------------

 SCF Done:  E(RB3LYP) =  -317.495295279     A.U. after    1 cycles

 The electronic state is 1-A.
 Alpha  occ. eigenvalues --  -19.11354 -14.40328 -14.39785 -14.37334 -10.32051
 Alpha  occ. eigenvalues --  -10.27012  -1.08941  -1.01534  -0.92869  -0.83073
 Alpha  occ. eigenvalues --   -0.66910  -0.65045  -0.56235  -0.51150  -0.48056
 Alpha  occ. eigenvalues --   -0.47434  -0.42363  -0.35899  -0.33336  -0.33077
 Alpha  occ. eigenvalues --   -0.26485  -0.22975
 Alpha virt. eigenvalues --    0.01220   0.06024   0.06540   0.10366   0.12285
 Alpha virt. eigenvalues --    0.15729   0.22825   0.26019   0.30214   0.32762
 Alpha virt. eigenvalues --    0.41427   0.51038   0.51534   0.55325   0.57664

 Mulliken charges:
               1
     1  O   -0.521053
     2  C    0.742870
     3  N   -0.565362
     4  C    0.309017
     5  N   -0.279786
     6  N   -0.401914
     7  H    0.284935
     8  H    0.139731
     9  H    0.291562
 Sum of Mulliken charges =   0.00000

 Dipole moment (field-independent basis, Debye):
    X=             -2.2458    Y=              1.6646    Z=             -0.0000  Tot=              2.7954
 Quadrupole moment (field-independent basis, Debye-Ang):
   XX=            -41.7369   YY=            -24.2219   ZZ=            -34.3061
   XY=             -4.4567   XZ=              0.0001   YZ=             -0.0000

  Exact polarizability:  50.648  -1.807  43.301   0.000  -0.000  18.094
 Approx polarizability:  82.896   0.615  73.483   0.000  -0.001  26.868

                      1                      2                      3
                      A                      A                      A
 Frequencies --    219.8725               421.3734               477.1750
 Red. masses --      7.3449                 1.4546                 6.0067
 Frc consts  --      0.2092                 0.1522                 0.8058
 IR Inten    --     12.5402                 5.7981                 8.9344

                      4                      5                      6
                      A                      A                      A
 Frequencies --    506.4981               664.5337               740.0594
 Red. masses --      1.0984                 3.0947                 6.6315
 Frc consts  --      0.1660                 0.8052                 2.1399
 IR Inten    --    232.5643                 7.9817                 9.0556

                      7                      8                      9
                      A                      A                      A
 Frequencies --    741.9281               827.7619               927.7114
 Red. masses --      8.3817                 1.3266                 5.9697
 Frc consts  --      2.7184                 0.5356                 3.0271
 IR Inten    --      6.5025                17.1534                31.8846

                     10                     11                     12
                      A                      A                      A
 Frequencies --   1001.2822              1065.3983              1121.3147
 Red. masses --      3.9821                 2.7814                 1.8915
 Frc consts  --      2.3522                 1.8601                 1.4012
 IR Inten    --     17.6449                23.3341                 1.5911

                     13                     14                     15
                      A                      A                      A
 Frequencies --   1221.0865              1331.4426              1388.1179
 Red. masses --      2.7821                 2.0490                 1.5848
 Frc consts  --      2.4441                 2.1402                 1.7992
 IR Inten    --     30.1850                17.9560                 3.4498

                     16                     17                     18
                      A                      A                      A
 Frequencies --   1426.6482              1626.7888              1865.7701
 Red. masses --      2.7234                 5.5018                 9.8072
 Frc consts  --      3.2659                 8.5785                20.1147
 IR Inten    --     39.5457                33.5588               591.3690

                     19                     20                     21
                      A                      A                      A
 Frequencies --   3279.0615              3695.6620              3704.6867
 Red. masses --      1.0986                 1.0816                 1.0817
 Frc consts  --      6.9598                 8.7038                 8.7472
 IR Inten    --      0.8250                90.1933                81.4520

 - Thermochemistry -
 -------------------
 Temperature   298.150 Kelvin.  Pressure   1.00000 Atm.
 Atom     1 has atomic number  8 and mass  15.99491

 Molecular mass:    85.02761 amu.
 Principal axes and moments of inertia in atomic units:
                           1         2         3
     Eigenvalues --   190.24011 460.78022 651.02033
           X            0.99933  -0.03663   0.00000
           Y            0.03663   0.99933   0.00000
           Z           -0.00000  -0.00000   1.00000
 This molecule is an asymmetric top.
 Rotational symmetry number  1.
 Rotational temperatures (Kelvin)      0.45529     0.18797     0.13304
 Rotational constants (GHZ):           9.48665     3.91671     2.77217
 Zero-point vibrational energy     168997.5 (Joules/Mol)
                                   40.39137 (Kcal/Mol)
 Warning -- explicit consideration of   4 degrees of freedom as
           vibrations may cause significant error
 Vibrational temperatures:    316.35   606.26   686.55   728.74   956.11
          (Kelvin)           1064.78  1067.47  1190.96  1334.77  1440.62
                             1532.87  1613.32  1756.87  1915.65  1997.19
                             2052.63  2340.58  2684.42  4717.83  5317.23
                             5330.21

 Zero-point correction=                           0.064368 (Hartree/Particle)
 Thermal correction to Energy=                    0.069054
 Thermal correction to Enthalpy=                  0.069998
 Thermal correction to Gibbs Free Energy=         0.036500
 Sum of electronic and zero-point Energies=           -317.430928
 Sum of electronic and thermal Energies=              -317.426241
 Sum of electronic and thermal Enthalpies=            -317.425297
 Sum of electronic and thermal Free Energies=         -317.458795

                     E (Thermal)             CV                S
                      KCal/Mol        Cal/Mol-Kelvin    Cal/Mol-Kelvin
 Total                   43.332             16.754             70.502
 Electronic               0.000              0.000              0.000
 Translational            0.889              2.981             39.235
 Rotational               0.889              2.981             25.548
 Vibrational             41.555             10.793              5.719
 Vibration     1          0.647              1.811              1.960
 Vibration     2          0.784              1.424              0.887
 Vibration     3          0.834              1.301              0.718
 Vibration     4          0.862              1.236              0.642

 Optimization completed.
    -- Stationary point found.
 Normal termination of Gaussian 09 at Sat Aug 21 01:39:01 2021.
