 Gaussian 09, Revision E.01,
 Gaussian 09:  ES64L-G09RevE.01 30-Nov-2015

 ----------------------------
 #P OPT Freq B3LYP/6-31G(d,p)
 ----------------------------

 --------
 Frag_654
 --------
 Symbolic Z-matrix:
 Charge =  0 Multiplicity = 1

 SCF Done:  E(RB3LYP) =  -324.882800473     A.U. after   13 cycles
 SCF Done:  E(RB3LYP) =  -324.882853945     A.U. after   10 cycles
 SCF Done:  E(RB3LYP) =  -324.882857561     A.U. after    9 cycles
 SCF Done:  E(RB3LYP) =  -324.882861938     A.U. after    8 cycles
 SCF Done:  E(RB3LYP) =  -324.882862390     A.U. after    7 cycles
 Optimization completed.
    -- Stationary point found.
 Normal termination of Gaussian 09 at Thu Sep  8 14:59:13 2022.

 ----------------------------------------------------------------------
 #P Geom=AllCheck Guess=TCheck SCRF=Check GenChk RB3LYP/6-31G(d,p) Freq
 ----------------------------------------------------------------------

 Structure from the checkpoint file:  "B3LYP6-31Gdp.Frag_654.chk"
 --------
 Frag_654
 --------
 Charge =  0 Multiplicity = 1

                         Standard orientation:
 ---------------------------------------------------------------------
 Center     Atomic      Atomic             Coordinates (Angstroms)
 Number     Number       Type             X           Y           Z
 ---------------------------------------------------------------------
      1          6           0        1.811797    0.641538   -0.376149
      2          6           0        0.651025   -0.343773   -0.347248
      3          8           0        0.708673   -1.206801    0.801794
      4          7           0       -0.641554    0.315947   -0.483681
      5          6           0       -1.012501    1.219233    0.602574
      6          8           0       -1.630515   -0.716275   -0.545912
      7          1           0        2.755033    0.091547   -0.416872
      8          1           0        1.828679    1.275998    0.517564
      9          1           0        1.740968    1.290080   -1.252806
     10          1           0        0.711699   -1.028028   -1.197021
     11          1           0        0.921002   -0.665928    1.575011
     12          1           0       -2.020348    1.585107    0.402292
     13          1           0       -0.331932    2.075152    0.619589
     14          1           0       -1.012322    0.738187    1.596260
     15          1           0       -1.429087   -1.291116    0.219625
 ---------------------------------------------------------------------

 SCF Done:  E(RB3LYP) =  -324.882862390     A.U. after    1 cycles

 The electronic state is 1-A.
 Alpha  occ. eigenvalues --  -19.16016 -19.16006 -14.37232 -10.26571 -10.20955
 Alpha  occ. eigenvalues --  -10.19232  -1.06515  -1.01994  -0.84374  -0.74991
 Alpha  occ. eigenvalues --   -0.68374  -0.60418  -0.53489  -0.49479  -0.46859
 Alpha  occ. eigenvalues --   -0.45699  -0.44504  -0.40800  -0.39710  -0.37849
 Alpha  occ. eigenvalues --   -0.35836  -0.34072  -0.30719  -0.27800  -0.23337
 Alpha virt. eigenvalues --    0.05618   0.09581   0.10948   0.12214   0.13864
 Alpha virt. eigenvalues --    0.15639   0.16009   0.17156   0.18234   0.19026
 Alpha virt. eigenvalues --    0.21600   0.23025   0.25696   0.27336   0.50634

 Mulliken charges:
               1
     1  C   -0.346987
     2  C    0.266831
     3  O   -0.549036
     4  N   -0.178186
     5  C   -0.172255
     6  O   -0.440184
     7  H    0.126490
     8  H    0.099465
     9  H    0.133630
    10  H    0.128047
    11  H    0.305485
    12  H    0.137973
    13  H    0.110320
    14  H    0.071073
    15  H    0.307334
 Sum of Mulliken charges =  -0.00000

 Dipole moment (field-independent basis, Debye):
    X=              1.8423    Y=              1.3597    Z=              2.1453  Tot=              3.1377
 Quadrupole moment (field-independent basis, Debye-Ang):
   XX=            -38.0985   YY=            -37.9842   ZZ=            -36.2717
   XY=              0.7347   XZ=             -2.8906   YZ=              0.8550

  Exact polarizability:  51.291   1.556  47.893  -0.933   1.126  44.502
 Approx polarizability:  65.369   3.461  67.314   2.030   0.480  64.929

                      1                      2                      3
                      A                      A                      A
 Frequencies --    119.4308               237.0658               264.7985
 Red. masses --      3.0393                 1.1687                 1.4521
 Frc consts  --      0.0255                 0.0387                 0.0600
 IR Inten    --      2.9321                 2.1054                 0.8753

                      4                      5                      6
                      A                      A                      A
 Frequencies --    276.1738               310.1668               357.1375
 Red. masses --      2.6371                 1.7877                 1.2826
 Frc consts  --      0.1185                 0.1013                 0.0964
 IR Inten    --     10.7224                 0.3552                45.0495

                      7                      8                      9
                      A                      A                      A
 Frequencies --    386.4992               453.7931               542.8205
 Red. masses --      2.2178                 2.6626                 2.9179
 Frc consts  --      0.1952                 0.3231                 0.5066
 IR Inten    --     27.0606                 0.7937                 6.1112

                     10                     11                     12
                      A                      A                      A
 Frequencies --    575.0859               643.3613               778.0264
 Red. masses --      1.1893                 3.3756                 3.2146
 Frc consts  --      0.2317                 0.8232                 1.1465
 IR Inten    --    148.4728                22.7776                13.4036

                     13                     14                     15
                      A                      A                      A
 Frequencies --    870.5576               955.1755              1019.9407
 Red. masses --      2.9909                 2.4998                 1.9898
 Frc consts  --      1.3355                 1.3438                 1.2196
 IR Inten    --     59.8753                13.5886                13.5457

                     16                     17                     18
                      A                      A                      A
 Frequencies --   1070.6567              1110.7898              1145.5869
 Red. masses --      1.7368                 2.7222                 1.5053
 Frc consts  --      1.1730                 1.9789                 1.1639
 IR Inten    --     89.6507                26.7167                22.9006

                     19                     20                     21
                      A                      A                      A
 Frequencies --   1171.4481              1253.3232              1287.6147
 Red. masses --      1.7203                 2.8586                 1.5244
 Frc consts  --      1.3909                 2.6457                 1.4891
 IR Inten    --     17.4479                26.4055                17.3006

                     22                     23                     24
                      A                      A                      A
 Frequencies --   1380.8230              1416.1608              1431.1365
 Red. masses --      1.3116                 1.1844                 1.1505
 Frc consts  --      1.4735                 1.3995                 1.3884
 IR Inten    --      2.1096                14.8242                32.9868

                     25                     26                     27
                      A                      A                      A
 Frequencies --   1434.0312              1454.3366              1497.8523
 Red. masses --      1.3126                 1.1878                 1.0611
 Frc consts  --      1.5904                 1.4801                 1.4027
 IR Inten    --     48.2409                16.6094                11.3727

                     28                     29                     30
                      A                      A                      A
 Frequencies --   1510.5603              1511.5877              1524.2893
 Red. masses --      1.0536                 1.0488                 1.0539
 Frc consts  --      1.4165                 1.4119                 1.4427
 IR Inten    --      4.0941                 5.6088                10.0349

                     31                     32                     33
                      A                      A                      A
 Frequencies --   2965.4921              3050.1956              3100.8483
 Red. masses --      1.0574                 1.0406                 1.0778
 Frc consts  --      5.4785                 5.7044                 6.1059
 IR Inten    --     64.4824                10.1640                28.6982

                     34                     35                     36
                      A                      A                      A
 Frequencies --   3106.1529              3128.0792              3149.3151
 Red. masses --      1.0870                 1.0956                 1.1038
 Frc consts  --      6.1792                 6.3161                 6.4503
 IR Inten    --      2.9332                37.0767                13.4103

                     37                     38                     39
                      A                      A                      A
 Frequencies --   3154.0885              3614.9758              3801.6094
 Red. masses --      1.1016                 1.0664                 1.0660
 Frc consts  --      6.4571                 8.2107                 9.0769
 IR Inten    --     12.1422                12.8153                12.6193

 - Thermochemistry -
 -------------------
 Temperature   298.150 Kelvin.  Pressure   1.00000 Atm.
 Atom     1 has atomic number  6 and mass  12.00000

 Molecular mass:    91.06333 amu.
 Principal axes and moments of inertia in atomic units:
                           1         2         3
     Eigenvalues --   376.92773 609.09734 738.95578
           X            0.99884   0.01672  -0.04508
           Y           -0.01418   0.99832   0.05614
           Z            0.04594  -0.05543   0.99740
 This molecule is an asymmetric top.
 Rotational symmetry number  1.
 Rotational temperatures (Kelvin)      0.22979     0.14220     0.11721
 Rotational constants (GHZ):           4.78803     2.96298     2.44229
 Zero-point vibrational energy     341300.5 (Joules/Mol)
                                   81.57278 (Kcal/Mol)
 Warning -- explicit consideration of  10 degrees of freedom as
           vibrations may cause significant error
 Vibrational temperatures:    171.83   341.08   380.99   397.35   446.26
          (Kelvin)            513.84   556.09   652.91   781.00   827.42
                              925.65  1119.41  1252.54  1374.28  1467.47
                             1540.43  1598.18  1648.24  1685.45  1803.25
                             1852.59  1986.69  2037.54  2059.08  2063.25
                             2092.46  2155.07  2173.36  2174.83  2193.11
                             4266.68  4388.55  4461.42  4469.06  4500.60
                             4531.16  4538.02  5201.14  5469.66

 Zero-point correction=                           0.129994 (Hartree/Particle)
 Thermal correction to Energy=                    0.137190
 Thermal correction to Enthalpy=                  0.138134
 Thermal correction to Gibbs Free Energy=         0.099687
 Sum of electronic and zero-point Energies=           -324.752868
 Sum of electronic and thermal Energies=              -324.745672
 Sum of electronic and thermal Enthalpies=            -324.744728
 Sum of electronic and thermal Free Energies=         -324.783175

                     E (Thermal)             CV                S
                      KCal/Mol        Cal/Mol-Kelvin    Cal/Mol-Kelvin
 Total                   86.088             26.547             80.918
 Electronic               0.000              0.000              0.000
 Translational            0.889              2.981             39.439
 Rotational               0.889              2.981             26.631
 Vibrational             84.311             20.585             14.848
 Vibration     1          0.609              1.933              3.110
 Vibration     2          0.656              1.784              1.825
 Vibration     3          0.671              1.738              1.630
 Vibration     4          0.678              1.717              1.557
 Vibration     5          0.699              1.654              1.361
 Vibration     6          0.732              1.561              1.135
 Vibration     7          0.755              1.499              1.014
 Vibration     8          0.812              1.353              0.784
 Vibration     9          0.898              1.155              0.559
 Vibration    10          0.931              1.085              0.495

 Normal termination of Gaussian 09 at Thu Sep  8 14:59:25 2022.
