 Gaussian 09, Revision E.01,
 Gaussian 09:  ES64L-G09RevE.01 30-Nov-2015

 ----------------------------
 #P OPT Freq B3LYP/6-31G(d,p)
 ----------------------------

 --------
 Frag_487
 --------
 Symbolic Z-matrix:
 Charge =  0 Multiplicity = 1

 SCF Done:  E(RB3LYP) =  -288.978669769     A.U. after   13 cycles
 SCF Done:  E(RB3LYP) =  -288.978712871     A.U. after   10 cycles
 SCF Done:  E(RB3LYP) =  -288.978717335     A.U. after    8 cycles
 SCF Done:  E(RB3LYP) =  -288.978719537     A.U. after    8 cycles
 SCF Done:  E(RB3LYP) =  -288.978719839     A.U. after    7 cycles
 Optimization completed.
    -- Stationary point found.
 Normal termination of Gaussian 09 at Thu Sep  8 15:03:39 2022.

 ----------------------------------------------------------------------
 #P Geom=AllCheck Guess=TCheck SCRF=Check GenChk RB3LYP/6-31G(d,p) Freq
 ----------------------------------------------------------------------

 Structure from the checkpoint file:  "B3LYP6-31Gdp.Frag_487.chk"
 --------
 Frag_487
 --------
 Charge =  0 Multiplicity = 1

                         Standard orientation:
 ---------------------------------------------------------------------
 Center     Atomic      Atomic             Coordinates (Angstroms)
 Number     Number       Type             X           Y           Z
 ---------------------------------------------------------------------
      1          6           0        1.340043    1.356596   -0.012978
      2          6           0        0.647464    0.027548    0.311793
      3          6           0        1.521732   -1.155636   -0.112744
      4          7           0       -0.658136   -0.055270   -0.367754
      5          6           0       -1.590854    1.008280   -0.018906
      6          8           0       -1.283423   -1.290256   -0.003673
      7          1           0        2.359886    1.343395    0.382097
      8          1           0        0.830157    2.218847    0.424217
      9          1           0        1.396622    1.497824   -1.097254
     10          1           0        0.486907   -0.023257    1.410955
     11          1           0        2.471861   -1.137287    0.430274
     12          1           0        1.732037   -1.100283   -1.185608
     13          1           0        1.020514   -2.103793    0.085167
     14          1           0       -1.741975    1.105460    1.074760
     15          1           0       -1.233156    1.964482   -0.406091
     16          1           0       -2.550873    0.781852   -0.485583
     17          1           0       -1.407950   -1.259031    0.967746
 ---------------------------------------------------------------------

 SCF Done:  E(RB3LYP) =  -288.978719839     A.U. after    1 cycles

 The electronic state is 1-A.
 Alpha  occ. eigenvalues --  -19.16700 -14.37226 -10.21889 -10.20602 -10.18050
 Alpha  occ. eigenvalues --  -10.16804  -1.05651  -0.85362  -0.76550  -0.68776
 Alpha  occ. eigenvalues --   -0.65839  -0.57982  -0.50344  -0.48121  -0.46016
 Alpha  occ. eigenvalues --   -0.43749  -0.41016  -0.39569  -0.38392  -0.37237
 Alpha  occ. eigenvalues --   -0.35848  -0.34138  -0.33114  -0.28076  -0.22961
 Alpha virt. eigenvalues --    0.06735   0.09455   0.11506   0.12745   0.15135
 Alpha virt. eigenvalues --    0.15357   0.16707   0.17186   0.17965   0.18664
 Alpha virt. eigenvalues --    0.19137   0.20525   0.22255   0.24259   0.25995

 Mulliken charges:
               1
     1  C   -0.330226
     2  C    0.084082
     3  C   -0.301698
     4  N   -0.177684
     5  C   -0.161772
     6  O   -0.426871
     7  H    0.108189
     8  H    0.104761
     9  H    0.121722
    10  H    0.050078
    11  H    0.093064
    12  H    0.113136
    13  H    0.121014
    14  H    0.068287
    15  H    0.117860
    16  H    0.130970
    17  H    0.285087
 Sum of Mulliken charges =  -0.00000

 Dipole moment (field-independent basis, Debye):
    X=              0.3863    Y=              1.4039    Z=              1.8270  Tot=              2.3363
 Quadrupole moment (field-independent basis, Debye-Ang):
   XX=            -37.7972   YY=            -39.4821   ZZ=            -38.8252
   XY=             -1.6066   XZ=             -2.1189   YZ=             -2.2911

  Exact polarizability:  60.844  -0.102  58.458  -1.085  -1.387  50.024
 Approx polarizability:  76.006   3.053  78.768  -0.999  -1.657  76.011

                      1                      2                      3
                      A                      A                      A
 Frequencies --     97.6062               206.8206               229.9573
 Red. masses --      2.7944                 1.1211                 1.0805
 Frc consts  --      0.0157                 0.0283                 0.0337
 IR Inten    --      2.3697                 0.0636                 0.7368

                      4                      5                      6
                      A                      A                      A
 Frequencies --    249.3051               318.1206               356.0375
 Red. masses --      1.4383                 1.8607                 2.2379
 Frc consts  --      0.0527                 0.1109                 0.1671
 IR Inten    --      0.8982                 0.5583                11.8633

                      7                      8                      9
                      A                      A                      A
 Frequencies --    391.1536               433.8265               450.4277
 Red. masses --      1.9529                 1.3251                 2.2158
 Frc consts  --      0.1760                 0.1469                 0.2649
 IR Inten    --      0.7682                37.1928                23.7562

                     10                     11                     12
                      A                      A                      A
 Frequencies --    501.6362               537.2463               760.1017
 Red. masses --      3.0427                 2.4242                 2.9713
 Frc consts  --      0.4511                 0.4123                 1.0115
 IR Inten    --     29.4634                18.6314                15.6963

                     13                     14                     15
                      A                      A                      A
 Frequencies --    890.8328               940.4105               963.2294
 Red. masses --      2.8744                 1.1957                 2.0456
 Frc consts  --      1.3440                 0.6230                 1.1182
 IR Inten    --     10.2093                 1.6987                 3.6776

                     16                     17                     18
                      A                      A                      A
 Frequencies --    966.2067              1088.1043              1118.0951
 Red. masses --      1.6157                 3.0686                 1.4423
 Frc consts  --      0.8887                 2.1406                 1.0623
 IR Inten    --      0.8242                 6.8815                 3.3772

                     19                     20                     21
                      A                      A                      A
 Frequencies --   1155.5320              1189.5120              1208.2184
 Red. masses --      1.4909                 2.0764                 1.9047
 Frc consts  --      1.1729                 1.7310                 1.6382
 IR Inten    --     14.9413                 0.8036                 4.9723

                     22                     23                     24
                      A                      A                      A
 Frequencies --   1250.9537              1353.9496              1368.7716
 Red. masses --      2.6044                 1.2469                 1.4101
 Frc consts  --      2.4013                 1.3467                 1.5566
 IR Inten    --     10.3530                10.1207                 9.4839

                     25                     26                     27
                      A                      A                      A
 Frequencies --   1411.3028              1417.3143              1432.3098
 Red. masses --      1.2820                 1.2712                 1.2441
 Frc consts  --      1.5045                 1.5046                 1.5037
 IR Inten    --     12.8011                28.9503                31.5642

                     28                     29                     30
                      A                      A                      A
 Frequencies --   1456.9445              1495.1553              1500.5366
 Red. masses --      1.1882                 1.0546                 1.0492
 Frc consts  --      1.4860                 1.3891                 1.3918
 IR Inten    --      8.0969                 1.0468                13.5155

                     31                     32                     33
                      A                      A                      A
 Frequencies --   1506.7562              1511.9394              1519.7095
 Red. masses --      1.0571                 1.0481                 1.0563
 Frc consts  --      1.4140                 1.4116                 1.4373
 IR Inten    --      4.0797                10.9236                 4.1310

                     34                     35                     36
                      A                      A                      A
 Frequencies --   1534.6438              2874.6836              2924.0202
 Red. masses --      1.0549                 1.0810                 1.0615
 Frc consts  --      1.4638                 5.2631                 5.3472
 IR Inten    --      6.4473                63.5921                89.3222

                     37                     38                     39
                      A                      A                      A
 Frequencies --   3052.3504              3057.2550              3109.0997
 Red. masses --      1.0362                 1.0372                 1.0707
 Frc consts  --      5.6879                 5.7120                 6.0979
 IR Inten    --     16.2162                20.1596                21.8230

                     40                     41                     42
                      A                      A                      A
 Frequencies --   3121.9579              3128.8457              3132.9079
 Red. masses --      1.1029                 1.1020                 1.1016
 Frc consts  --      6.3337                 6.3562                 6.3703
 IR Inten    --      4.7641                44.5198                30.5550

                     43                     44                     45
                      A                      A                      A
 Frequencies --   3157.3053              3158.4918              3567.2529
 Red. masses --      1.1041                 1.1002                 1.0671
 Frc consts  --      6.4850                 6.4667                 8.0003
 IR Inten    --      8.0867                20.2220                 7.7120

 - Thermochemistry -
 -------------------
 Temperature   298.150 Kelvin.  Pressure   1.00000 Atm.
 Atom     1 has atomic number  6 and mass  12.00000

 Molecular mass:    89.08406 amu.
 Principal axes and moments of inertia in atomic units:
                           1         2         3
     Eigenvalues --   395.35004 571.82506 889.82472
           X            0.99628  -0.08512  -0.01364
           Y            0.08502   0.99635  -0.00752
           Z            0.01423   0.00633   0.99988
 This molecule is an asymmetric top.
 Rotational symmetry number  1.
 Rotational temperatures (Kelvin)      0.21908     0.15147     0.09734
 Rotational constants (GHZ):           4.56492     3.15611     2.02820
 Zero-point vibrational energy     401328.2 (Joules/Mol)
                                   95.91974 (Kcal/Mol)
 Warning -- explicit consideration of  11 degrees of freedom as
           vibrations may cause significant error
 Vibrational temperatures:    140.43   297.57   330.86   358.69   457.70
          (Kelvin)            512.26   562.78   624.18   648.06   721.74
                              772.98  1093.62  1281.71  1353.04  1385.87
                             1390.15  1565.54  1608.69  1662.55  1711.44
                             1738.35  1799.84  1948.03  1969.35  2030.55
                             2039.20  2060.77  2096.22  2151.19  2158.93
                             2167.88  2175.34  2186.52  2208.01  4136.02
                             4207.01  4391.65  4398.70  4473.30  4491.80
                             4501.71  4507.55  4542.65  4544.36  5132.47

 Zero-point correction=                           0.152858 (Hartree/Particle)
 Thermal correction to Energy=                    0.160481
 Thermal correction to Enthalpy=                  0.161426
 Thermal correction to Gibbs Free Energy=         0.122053
 Sum of electronic and zero-point Energies=           -288.825862
 Sum of electronic and thermal Energies=              -288.818238
 Sum of electronic and thermal Enthalpies=            -288.817294
 Sum of electronic and thermal Free Energies=         -288.856667

                     E (Thermal)             CV                S
                      KCal/Mol        Cal/Mol-Kelvin    Cal/Mol-Kelvin
 Total                  100.704             28.111             82.867
 Electronic               0.000              0.000              0.000
 Translational            0.889              2.981             39.374
 Rotational               0.889              2.981             26.800
 Vibrational             98.926             22.150             16.693
 Vibration     1          0.603              1.951              3.502
 Vibration     2          0.641              1.830              2.072
 Vibration     3          0.652              1.795              1.879
 Vibration     4          0.662              1.764              1.735
 Vibration     5          0.705              1.639              1.320
 Vibration     6          0.732              1.563              1.139
 Vibration     7          0.759              1.489              0.996
 Vibration     8          0.795              1.397              0.846
 Vibration     9          0.809              1.360              0.794
 Vibration    10          0.857              1.246              0.654
 Vibration    11          0.892              1.168              0.571

 Optimization completed.
    -- Stationary point found.
 Normal termination of Gaussian 09 at Thu Sep  8 15:03:54 2022.
