 Gaussian 09, Revision E.01,
 Gaussian 09:  ES64L-G09RevE.01 30-Nov-2015

 -------------------------
 #P OPT Freq B3LYP/6-31G**
 -------------------------

 --------
 Frag_231
 --------
 Symbolic Z-matrix:
 Charge =  0 Multiplicity = 1

 SCF Done:  E(RB3LYP) =  -297.563072476     A.U. after   15 cycles
 SCF Done:  E(RB3LYP) =  -297.593539875     A.U. after   13 cycles
 SCF Done:  E(RB3LYP) =  -297.597580139     A.U. after   12 cycles
 SCF Done:  E(RB3LYP) =  -297.597721746     A.U. after   11 cycles
 SCF Done:  E(RB3LYP) =  -297.597731122     A.U. after    9 cycles
 Optimization completed.
    -- Stationary point found.
 Normal termination of Gaussian 09 at Sat Aug 21 01:39:07 2021.

 ----------------------------------------------------------------------
 #P Geom=AllCheck Guess=TCheck SCRF=Check GenChk RB3LYP/6-31G(d,p) Freq
 ----------------------------------------------------------------------

 Structure from the checkpoint file:  "/public/home/users/caep010/.cache/gau_scr/Gau-134187.chk"
 --------
 Frag_231
 --------
 Charge =  0 Multiplicity = 1

                         Standard orientation:
 ---------------------------------------------------------------------
 Center     Atomic      Atomic             Coordinates (Angstroms)
 Number     Number       Type             X           Y           Z
 ---------------------------------------------------------------------
      1          7           0        2.067149   -0.091722   -0.000005
      2          6           0        0.788804   -0.001961    0.000004
      3          7           0       -0.109666    1.079702    0.000003
      4          6           0       -1.398994    0.583756    0.000001
      5          7           0       -1.422434   -0.710674   -0.000011
      6          7           0       -0.093264   -1.068437    0.000015
      7          1           0        2.505126    0.827378   -0.000012
      8          1           0        0.164769    2.047698   -0.000006
      9          1           0       -2.279539    1.208722   -0.000001
     10          1           0        0.178289   -2.036644   -0.000029
 ---------------------------------------------------------------------

 SCF Done:  E(RB3LYP) =  -297.597731122     A.U. after    1 cycles

 The electronic state is 1-A.
 Alpha  occ. eigenvalues --  -14.39201 -14.38975 -14.36562 -14.28009 -10.28987
 Alpha  occ. eigenvalues --  -10.26174  -1.07174  -0.92599  -0.88752  -0.79977
 Alpha  occ. eigenvalues --   -0.65900  -0.64105  -0.55761  -0.50228  -0.46822
 Alpha  occ. eigenvalues --   -0.46554  -0.46174  -0.32719  -0.31717  -0.31691
 Alpha  occ. eigenvalues --   -0.26022  -0.19686
 Alpha virt. eigenvalues --    0.02000   0.06149   0.07302   0.11058   0.12284
 Alpha virt. eigenvalues --    0.12921   0.18145   0.23313   0.28116   0.29708
 Alpha virt. eigenvalues --    0.36269   0.45829   0.52133   0.52686   0.56650

 Mulliken charges:
               1
     1  N   -0.632711
     2  C    0.698695
     3  N   -0.589715
     4  C    0.299906
     5  N   -0.270886
     6  N   -0.406838
     7  H    0.209280
     8  H    0.271479
     9  H    0.133685
    10  H    0.287105
 Sum of Mulliken charges =  -0.00000

 Dipole moment (field-independent basis, Debye):
    X=             -1.2977    Y=              3.1124    Z=             -0.0001  Tot=              3.3721
 Quadrupole moment (field-independent basis, Debye-Ang):
   XX=            -40.3466   YY=            -25.0636   ZZ=            -36.2205
   XY=             -0.1969   XZ=             -0.0000   YZ=              0.0001

  Exact polarizability:  61.040  -0.754  47.233  -0.000   0.000  19.159
 Approx polarizability:  94.951  -0.242  80.452  -0.000   0.000  28.488

                      1                      2                      3
                      A                      A                      A
 Frequencies --    134.2226               317.2468               415.3408
 Red. masses --      4.9823                 1.3897                 1.1620
 Frc consts  --      0.0529                 0.0824                 0.1181
 IR Inten    --     34.4741                 2.6028               189.5541

                      4                      5                      6
                      A                      A                      A
 Frequencies --    443.6862               635.2688               676.0674
 Red. masses --      3.5774                 1.9788                 1.4743
 Frc consts  --      0.4149                 0.4705                 0.3970
 IR Inten    --      9.0500                73.2070                26.5919

                      7                      8                      9
                      A                      A                      A
 Frequencies --    710.6076               736.1857               807.1054
 Red. masses --      6.5133                 6.8139                 1.2917
 Frc consts  --      1.9378                 2.1758                 0.4958
 IR Inten    --      6.4705                 2.9950                17.3894

                     10                     11                     12
                      A                      A                      A
 Frequencies --    930.7095               994.6405              1072.8085
 Red. masses --      5.5370                 4.3789                 2.3106
 Frc consts  --      2.8259                 2.5524                 1.5668
 IR Inten    --     36.6080                24.3669                28.5797

                     13                     14                     15
                      A                      A                      A
 Frequencies --   1083.6820              1130.0993              1277.3776
 Red. masses --      1.5770                 2.1018                 1.5714
 Frc consts  --      1.0912                 1.5815                 1.5107
 IR Inten    --    122.8501                 0.8727                23.6754

                     16                     17                     18
                      A                      A                      A
 Frequencies --   1357.9148              1393.6731              1422.4488
 Red. masses --      2.5656                 1.6110                 2.6166
 Frc consts  --      2.7873                 1.8436                 3.1194
 IR Inten    --     63.5203                 2.8831                 5.3804

                     19                     20                     21
                      A                      A                      A
 Frequencies --   1637.1760              1774.4199              3281.1663
 Red. masses --      5.6741                 6.7868                 1.0984
 Frc consts  --      8.9606                12.5900                 6.9675
 IR Inten    --     26.8085               545.8277                 1.0825

                     22                     23                     24
                      A                      A                      A
 Frequencies --   3530.5160              3701.7774              3716.7120
 Red. masses --      1.0759                 1.0812                 1.0814
 Frc consts  --      7.9014                 8.7296                 8.8017
 IR Inten    --      2.0847                65.8986                85.7192

 - Thermochemistry -
 -------------------
 Temperature   298.150 Kelvin.  Pressure   1.00000 Atm.
 Atom     1 has atomic number  7 and mass  14.00307

 Molecular mass:    84.04360 amu.
 Principal axes and moments of inertia in atomic units:
                           1         2         3
     Eigenvalues --   193.20227 467.93730 661.13957
           X            0.99996  -0.00899  -0.00000
           Y            0.00899   0.99996   0.00000
           Z            0.00000  -0.00000   1.00000
 This molecule is an asymmetric top.
 Rotational symmetry number  1.
 Rotational temperatures (Kelvin)      0.44831     0.18510     0.13101
 Rotational constants (GHZ):           9.34120     3.85680     2.72974
 Zero-point vibrational energy     198465.6 (Joules/Mol)
                                   47.43441 (Kcal/Mol)
 Warning -- explicit consideration of   4 degrees of freedom as
           vibrations may cause significant error
 Vibrational temperatures:    193.12   456.45   597.58   638.36   914.01
          (Kelvin)            972.71  1022.40  1059.21  1161.24  1339.08
                             1431.06  1543.53  1559.17  1625.96  1837.86
                             1953.73  2005.18  2046.58  2355.53  2552.99
                             4720.86  5079.62  5326.03  5347.51

 Zero-point correction=                           0.075592 (Hartree/Particle)
 Thermal correction to Energy=                    0.080808
 Thermal correction to Enthalpy=                  0.081752
 Thermal correction to Gibbs Free Energy=         0.047199
 Sum of electronic and zero-point Energies=           -297.522140
 Sum of electronic and thermal Energies=              -297.516923
 Sum of electronic and thermal Enthalpies=            -297.515979
 Sum of electronic and thermal Free Energies=         -297.550532

                     E (Thermal)             CV                S
                      KCal/Mol        Cal/Mol-Kelvin    Cal/Mol-Kelvin
 Total                   50.708             18.634             72.723
 Electronic               0.000              0.000              0.000
 Translational            0.889              2.981             39.200
 Rotational               0.889              2.981             25.594
 Vibrational             48.930             12.673              7.929
 Vibration     1          0.613              1.919              2.885
 Vibration     2          0.704              1.641              1.324
 Vibration     3          0.779              1.437              0.908
 Vibration     4          0.803              1.375              0.815

 Optimization completed.
    -- Stationary point found.
 Normal termination of Gaussian 09 at Sat Aug 21 01:39:15 2021.
