 Gaussian 09, Revision E.01,
 Gaussian 09:  ES64L-G09RevE.01 30-Nov-2015

 --------------------------------
 #P OPT=calcfc Freq B3LYP/6-31G**
 --------------------------------

 --------
 Frag_138
 --------
 Symbolic Z-matrix:
 Charge =  0 Multiplicity = 1

 SCF Done:  E(RB3LYP) =  -266.704336887     A.U. after   13 cycles
 SCF Done:  E(RB3LYP) =  -266.720001960     A.U. after   12 cycles
 SCF Done:  E(RB3LYP) =  -266.720950635     A.U. after   14 cycles
 SCF Done:  E(RB3LYP) =  -266.725320581     A.U. after   13 cycles
 SCF Done:  E(RB3LYP) =  -266.722277617     A.U. after   13 cycles
 SCF Done:  E(RB3LYP) =  -266.725741049     A.U. after   11 cycles
 SCF Done:  E(RB3LYP) =  -266.695279804     A.U. after   12 cycles
 SCF Done:  E(RB3LYP) =  -266.725757070     A.U. after    7 cycles
 SCF Done:  E(RB3LYP) =  -266.725882383     A.U. after   11 cycles
 SCF Done:  E(RB3LYP) =  -266.725973729     A.U. after   10 cycles
 SCF Done:  E(RB3LYP) =  -266.726144274     A.U. after   11 cycles
 SCF Done:  E(RB3LYP) =  -266.726274040     A.U. after   11 cycles
 SCF Done:  E(RB3LYP) =  -266.726428913     A.U. after   10 cycles
 SCF Done:  E(RB3LYP) =  -266.726555868     A.U. after   10 cycles
 SCF Done:  E(RB3LYP) =  -266.726592463     A.U. after   10 cycles
 SCF Done:  E(RB3LYP) =  -266.726599191     A.U. after    8 cycles
 SCF Done:  E(RB3LYP) =  -266.726602268     A.U. after    8 cycles
 Optimization completed.
    -- Stationary point found.
 Normal termination of Gaussian 09 at Sat Aug 21 02:21:32 2021.

 ----------------------------------------------------------------------
 #P Geom=AllCheck Guess=TCheck SCRF=Check GenChk RB3LYP/6-31G(d,p) Freq
 ----------------------------------------------------------------------

 Structure from the checkpoint file:  "/public/home/users/caep010/.cache/gau_scr/Gau-12001.chk"
 --------
 Frag_138
 --------
 Charge =  0 Multiplicity = 1

                         Standard orientation:
 ---------------------------------------------------------------------
 Center     Atomic      Atomic             Coordinates (Angstroms)
 Number     Number       Type             X           Y           Z
 ---------------------------------------------------------------------
      1          6           0       -2.172049    0.000077   -0.000190
      2          6           0       -0.827729    0.000046    0.000131
      3          7           0        0.011879   -1.111261   -0.197687
      4          6           0        1.379724   -0.747418    0.170974
      5          6           0        1.379665    0.747427   -0.171291
      6          7           0        0.012122    1.111197    0.198349
      7          1           0       -2.727468   -0.916833   -0.149526
      8          1           0       -2.727663    0.916910    0.148805
      9          1           0       -0.340785   -1.984871    0.169315
     10          1           0        2.116643   -1.311496   -0.408526
     11          1           0        1.589086   -0.892153    1.242502
     12          1           0        2.116995    1.311636    0.407532
     13          1           0        1.588171    0.891905   -1.243005
     14          1           0       -0.340656    1.984551   -0.169480
 ---------------------------------------------------------------------

 SCF Done:  E(RB3LYP) =  -266.726602268     A.U. after    1 cycles

 The electronic state is 1-A.
 Alpha  occ. eigenvalues --  -14.33491 -14.33490 -10.23432 -10.22114 -10.22093
 Alpha  occ. eigenvalues --  -10.13245  -0.97317  -0.86118  -0.76424  -0.67122
 Alpha  occ. eigenvalues --   -0.61537  -0.58915  -0.49444  -0.49434  -0.45330
 Alpha  occ. eigenvalues --   -0.41984  -0.39558  -0.39009  -0.37083  -0.36498
 Alpha  occ. eigenvalues --   -0.33233  -0.23981  -0.17306
 Alpha virt. eigenvalues --    0.07166   0.08222   0.11434   0.11643   0.14733
 Alpha virt. eigenvalues --    0.15334   0.16909   0.17207   0.18797   0.20452
 Alpha virt. eigenvalues --    0.21991   0.26595   0.28696   0.38055   0.38401

 Mulliken charges:
               1
     1  C   -0.375424
     2  C    0.527989
     3  N   -0.566230
     4  C   -0.044899
     5  C   -0.045019
     6  N   -0.566143
     7  H    0.069942
     8  H    0.069953
     9  H    0.254122
    10  H    0.106476
    11  H    0.104309
    12  H    0.106504
    13  H    0.104306
    14  H    0.254114
 Sum of Mulliken charges =  -0.00000

 Dipole moment (field-independent basis, Debye):
    X=              1.9672    Y=             -0.0011    Z=             -0.0018  Tot=              1.9672
 Quadrupole moment (field-independent basis, Debye-Ang):
   XX=            -36.9599   YY=            -31.0379   ZZ=            -39.8502
   XY=              0.0008   XZ=             -0.0001   YZ=             -2.6249

  Exact polarizability:  76.950  -0.003  52.207   0.004  -0.111  34.532
 Approx polarizability: 105.699  -0.005  72.782   0.008   1.949  50.049

                      1                      2                      3
                      A                      A                      A
 Frequencies --    163.8184               261.7977               384.1544
 Red. masses --      3.0453                 1.8937                 2.2705
 Frc consts  --      0.0482                 0.0765                 0.1974
 IR Inten    --      0.0346                 3.2706                 2.3841

                      4                      5                      6
                      A                      A                      A
 Frequencies --    507.7636               532.1618               641.9728
 Red. masses --      1.3498                 1.3793                 1.8625
 Frc consts  --      0.2050                 0.2301                 0.4523
 IR Inten    --    206.1728                 6.2636                 9.6968

                      7                      8                      9
                      A                      A                      A
 Frequencies --    664.4497               682.8301               736.1709
 Red. masses --      1.4593                 1.9428                 2.2458
 Frc consts  --      0.3796                 0.5337                 0.7171
 IR Inten    --      4.9160                44.6546                 0.5982

                     10                     11                     12
                      A                      A                      A
 Frequencies --    742.3655               928.5785               939.7717
 Red. masses --      2.4028                 1.7481                 3.6830
 Frc consts  --      0.7802                 0.8881                 1.9164
 IR Inten    --    125.1966                 0.5934                 1.3662

                     13                     14                     15
                      A                      A                      A
 Frequencies --    943.8340               961.9135              1081.2849
 Red. masses --      1.5145                 2.0177                 2.0318
 Frc consts  --      0.7949                 1.1000                 1.3996
 IR Inten    --      3.3607                17.1619                 1.8767

                     16                     17                     18
                      A                      A                      A
 Frequencies --   1108.0570              1134.6735              1213.3671
 Red. masses --      2.3780                 1.8388                 1.1319
 Frc consts  --      1.7203                 1.3949                 0.9818
 IR Inten    --     29.0895                36.4063                 3.0195

                     19                     20                     21
                      A                      A                      A
 Frequencies --   1225.4417              1296.3683              1333.0306
 Red. masses --      1.1847                 2.1653                 1.2477
 Frc consts  --      1.0482                 2.1440                 1.3063
 IR Inten    --      0.4082                40.6808                35.1327

                     22                     23                     24
                      A                      A                      A
 Frequencies --   1390.9375              1409.9711              1438.6107
 Red. masses --      1.4405                 1.3519                 2.0558
 Frc consts  --      1.6421                 1.5835                 2.5068
 IR Inten    --      1.1893                20.4725                33.8648

                     25                     26                     27
                      A                      A                      A
 Frequencies --   1486.2238              1532.8434              1539.9667
 Red. masses --      1.3151                 1.1075                 1.1032
 Frc consts  --      1.7114                 1.5331                 1.5414
 IR Inten    --      2.8821                 3.4461                13.8887

                     28                     29                     30
                      A                      A                      A
 Frequencies --   1740.7265              2987.7151              2997.5679
 Red. masses --      6.1479                 1.0744                 1.0681
 Frc consts  --     10.9758                 5.6505                 5.6548
 IR Inten    --    331.0787                57.6746                95.2687

                     31                     32                     33
                      A                      A                      A
 Frequencies --   3090.7714              3094.2996              3187.6235
 Red. masses --      1.0910                 1.0974                 1.0587
 Frc consts  --      6.1403                 6.1905                 6.3381
 IR Inten    --     53.0132                41.7411                 0.0429

                     34                     35                     36
                      A                      A                      A
 Frequencies --   3275.2558              3613.5907              3615.2046
 Red. masses --      1.1175                 1.0768                 1.0762
 Frc consts  --      7.0629                 8.2842                 8.2876
 IR Inten    --     11.3285                 6.7979                14.4338

 - Thermochemistry -
 -------------------
 Temperature   298.150 Kelvin.  Pressure   1.00000 Atm.
 Atom     1 has atomic number  6 and mass  12.00000

 Molecular mass:    84.06875 amu.
 Principal axes and moments of inertia in atomic units:
                           1         2         3
     Eigenvalues --   243.00393 518.39528 723.46533
           X            1.00000  -0.00001   0.00000
           Y            0.00001   0.99964  -0.02674
           Z           -0.00000   0.02674   0.99964
 This molecule is an asymmetric top.
 Rotational symmetry number  1.
 Rotational temperatures (Kelvin)      0.35643     0.16708     0.11972
 Rotational constants (GHZ):           7.42680     3.48140     2.49458
 Zero-point vibrational energy     322304.6 (Joules/Mol)
                                   77.03264 (Kcal/Mol)
 Warning -- explicit consideration of   5 degrees of freedom as
           vibrations may cause significant error
 Vibrational temperatures:    235.70   376.67   552.71   730.56   765.66
          (Kelvin)            923.65   955.99   982.44  1059.18  1068.10
                             1336.02  1352.12  1357.96  1383.98  1555.73
                             1594.24  1632.54  1745.76  1763.14  1865.18
                             1917.93  2001.25  2028.63  2069.84  2138.34
                             2205.42  2215.67  2504.51  4298.65  4312.83
                             4446.93  4452.00  4586.27  4712.36  5199.14
                             5201.47

 Zero-point correction=                           0.122759 (Hartree/Particle)
 Thermal correction to Energy=                    0.128353
 Thermal correction to Enthalpy=                  0.129297
 Thermal correction to Gibbs Free Energy=         0.094105
 Sum of electronic and zero-point Energies=           -266.603843
 Sum of electronic and thermal Energies=              -266.598249
 Sum of electronic and thermal Enthalpies=            -266.597305
 Sum of electronic and thermal Free Energies=         -266.632497

                     E (Thermal)             CV                S
                      KCal/Mol        Cal/Mol-Kelvin    Cal/Mol-Kelvin
 Total                   80.543             21.534             74.068
 Electronic               0.000              0.000              0.000
 Translational            0.889              2.981             39.201
 Rotational               0.889              2.981             26.014
 Vibrational             78.765             15.572              8.854
 Vibration     1          0.623              1.887              2.505
 Vibration     2          0.669              1.743              1.650
 Vibration     3          0.753              1.504              1.023
 Vibration     4          0.863              1.233              0.639
 Vibration     5          0.887              1.179              0.582

 Optimization completed.
    -- Stationary point found.
 Normal termination of Gaussian 09 at Sat Aug 21 02:21:43 2021.
