 Gaussian 09, Revision E.01,
 Gaussian 09:  ES64L-G09RevE.01 30-Nov-2015

 ----------------------------
 #P OPT Freq B3LYP/6-31G(d,p)
 ----------------------------

 --------
 Frag_761
 --------
 Symbolic Z-matrix:
 Charge =  0 Multiplicity = 1

 SCF Done:  E(RB3LYP) =  -248.519715349     A.U. after   13 cycles
 SCF Done:  E(RB3LYP) =  -248.519760074     A.U. after    9 cycles
 SCF Done:  E(RB3LYP) =  -248.519761976     A.U. after    8 cycles
 SCF Done:  E(RB3LYP) =  -248.519762531     A.U. after    8 cycles
 Optimization completed.
    -- Stationary point found.
 Normal termination of Gaussian 09 at Thu Sep  8 15:19:34 2022.

 ----------------------------------------------------------------------
 #P Geom=AllCheck Guess=TCheck SCRF=Check GenChk RB3LYP/6-31G(d,p) Freq
 ----------------------------------------------------------------------

 Structure from the checkpoint file:  "B3LYP6-31Gdp.Frag_761.chk"
 --------
 Frag_761
 --------
 Charge =  0 Multiplicity = 1

                         Standard orientation:
 ---------------------------------------------------------------------
 Center     Atomic      Atomic             Coordinates (Angstroms)
 Number     Number       Type             X           Y           Z
 ---------------------------------------------------------------------
      1          6           0        1.876641    0.086356   -0.368350
      2          6           0        0.767249   -0.495147    0.522102
      3          6           0       -0.618917   -0.088338    0.078198
      4          7           0       -1.595564   -0.813577   -0.295943
      5          8           0       -0.769807    1.261034    0.104464
      6          1           0        1.837516    1.178090   -0.371023
      7          1           0        2.860650   -0.223162   -0.004311
      8          1           0        1.773580   -0.259812   -1.401490
      9          1           0        0.820909   -1.587918    0.540783
     10          1           0        0.906333   -0.144367    1.552125
     11          1           0       -1.344453   -1.801276   -0.270283
     12          1           0       -1.676971    1.427986   -0.201621
 ---------------------------------------------------------------------

 SCF Done:  E(RB3LYP) =  -248.519762531     A.U. after    1 cycles

 The electronic state is 1-A.
 Alpha  occ. eigenvalues --  -19.17770 -14.30256 -10.27901 -10.20176 -10.18534
 Alpha  occ. eigenvalues --   -1.06830  -0.88045  -0.77797  -0.65638  -0.58996
 Alpha  occ. eigenvalues --   -0.51716  -0.47027  -0.44072  -0.42206  -0.38981
 Alpha  occ. eigenvalues --   -0.37338  -0.36603  -0.35253  -0.26761  -0.26556
 Alpha virt. eigenvalues --    0.02798   0.07625   0.11595   0.12704   0.14642
 Alpha virt. eigenvalues --    0.16370   0.17586   0.18593   0.22218   0.24535
 Alpha virt. eigenvalues --    0.30420   0.42084   0.52099   0.52270   0.53800

 Mulliken charges:
               1
     1  C   -0.321813
     2  C   -0.222279
     3  C    0.483476
     4  N   -0.577487
     5  O   -0.499217
     6  H    0.133579
     7  H    0.108290
     8  H    0.113904
     9  H    0.103233
    10  H    0.128956
    11  H    0.225660
    12  H    0.323697
 Sum of Mulliken charges =   0.00000

 Dipole moment (field-independent basis, Debye):
    X=              1.3402    Y=             -0.4949    Z=              0.3212  Tot=              1.4643
 Quadrupole moment (field-independent basis, Debye-Ang):
   XX=            -32.3798   YY=            -28.4645   ZZ=            -31.1302
   XY=             -2.8961   XZ=             -0.1898   YZ=             -0.9722

  Exact polarizability:  47.984   2.641  45.068   3.619   1.232  31.469
 Approx polarizability:  63.345   8.003  67.533   7.622   4.480  44.065

                      1                      2                      3
                      A                      A                      A
 Frequencies --     65.7176               223.1249               250.3430
 Red. masses --      2.6467                 1.1105                 3.0122
 Frc consts  --      0.0067                 0.0326                 0.1112
 IR Inten    --      0.0865                 0.0793                 1.1039

                      4                      5                      6
                      A                      A                      A
 Frequencies --    437.3258               535.3998               591.4706
 Red. masses --      2.4148                 2.8514                 1.2962
 Frc consts  --      0.2721                 0.4816                 0.2672
 IR Inten    --      0.3338                34.2075                98.4601

                      7                      8                      9
                      A                      A                      A
 Frequencies --    693.1155               803.9026               826.4268
 Red. masses --      2.7716                 1.2419                 2.7786
 Frc consts  --      0.7845                 0.4729                 1.1181
 IR Inten    --     55.6242                 3.5786                 6.3940

                     10                     11                     12
                      A                      A                      A
 Frequencies --    851.2200              1000.3635              1073.8788
 Red. masses --      1.1489                 2.2865                 2.0537
 Frc consts  --      0.4905                 1.3481                 1.3954
 IR Inten    --     25.9539                13.4654                89.5457

                     13                     14                     15
                      A                      A                      A
 Frequencies --   1104.5639              1124.7262              1261.7054
 Red. masses --      1.6960                 1.3720                 1.3874
 Frc consts  --      1.2191                 1.0226                 1.3013
 IR Inten    --     13.2769               109.3156                71.5427

                     16                     17                     18
                      A                      A                      A
 Frequencies --   1292.9195              1355.5652              1415.8775
 Red. masses --      1.2063                 1.4164                 1.3698
 Frc consts  --      1.1881                 1.5335                 1.6179
 IR Inten    --     12.3273                10.0724                 8.1683

                     19                     20                     21
                      A                      A                      A
 Frequencies --   1451.0387              1491.0215              1511.6051
 Red. masses --      2.1250                 1.0805                 1.0398
 Frc consts  --      2.6362                 1.4152                 1.3998
 IR Inten    --     40.3578                 4.4861                 7.3867

                     22                     23                     24
                      A                      A                      A
 Frequencies --   1524.4728              1753.4724              3050.4010
 Red. masses --      1.0723                 7.7196                 1.0621
 Frc consts  --      1.4683                13.9844                 5.8228
 IR Inten    --     10.3280               215.7818                10.4444

                     25                     26                     27
                      A                      A                      A
 Frequencies --   3055.8042              3100.3338              3125.2929
 Red. masses --      1.0363                 1.1012                 1.1033
 Frc consts  --      5.7014                 6.2364                 6.3495
 IR Inten    --     27.9684                11.2965                30.4261

                     28                     29                     30
                      A                      A                      A
 Frequencies --   3145.3424              3516.2272              3751.7203
 Red. masses --      1.1026                 1.0755                 1.0640
 Frc consts  --      6.4270                 7.8349                 8.8234
 IR Inten    --     22.5147                 0.7537                40.0307

 - Thermochemistry -
 -------------------
 Temperature   298.150 Kelvin.  Pressure   1.00000 Atm.
 Atom     1 has atomic number  6 and mass  12.00000

 Molecular mass:    73.05276 amu.
 Principal axes and moments of inertia in atomic units:
                           1         2         3
     Eigenvalues --   209.01181 467.73482 596.03784
           X            0.99996  -0.00638  -0.00575
           Y            0.00623   0.99964  -0.02625
           Z            0.00592   0.02622   0.99964
 This molecule is an asymmetric top.
 Rotational symmetry number  1.
 Rotational temperatures (Kelvin)      0.41440     0.18518     0.14532
 Rotational constants (GHZ):           8.63464     3.85847     3.02790
 Zero-point vibrational energy     271458.9 (Joules/Mol)
                                   64.88023 (Kcal/Mol)
 Warning -- explicit consideration of   6 degrees of freedom as
           vibrations may cause significant error
 Vibrational temperatures:     94.55   321.03   360.19   629.21   770.32
          (Kelvin)            850.99   997.24  1156.64  1189.04  1224.71
                             1439.30  1545.07  1589.22  1618.23  1815.31
                             1860.22  1950.35  2037.13  2087.72  2145.24
                             2174.86  2193.37  2522.85  4388.84  4396.62
                             4460.68  4496.59  4525.44  5059.06  5397.88

 Zero-point correction=                           0.103393 (Hartree/Particle)
 Thermal correction to Energy=                    0.109181
 Thermal correction to Enthalpy=                  0.110125
 Thermal correction to Gibbs Free Energy=         0.074266
 Sum of electronic and zero-point Energies=           -248.416369
 Sum of electronic and thermal Energies=              -248.410582
 Sum of electronic and thermal Enthalpies=            -248.409637
 Sum of electronic and thermal Free Energies=         -248.445497

                     E (Thermal)             CV                S
                      KCal/Mol        Cal/Mol-Kelvin    Cal/Mol-Kelvin
 Total                   68.512             19.872             75.472
 Electronic               0.000              0.000              0.000
 Translational            0.889              2.981             38.782
 Rotational               0.889              2.981             25.569
 Vibrational             66.735             13.910             11.121
 Vibration     1          0.597              1.971              4.278
 Vibration     2          0.649              1.806              1.934
 Vibration     3          0.663              1.762              1.728
 Vibration     4          0.798              1.389              0.835
 Vibration     5          0.890              1.172              0.575
 Vibration     6          0.949              1.050              0.465

 Normal termination of Gaussian 09 at Thu Sep  8 15:19:42 2022.
