 Gaussian 09, Revision E.01,
 Gaussian 09:  ES64L-G09RevE.01 30-Nov-2015

 ----------------------------
 #P OPT Freq B3LYP/6-31G(d,p)
 ----------------------------

 --------
 Frag_999
 --------
 Symbolic Z-matrix:
 Charge =  0 Multiplicity = 1

 SCF Done:  E(RB3LYP) =  -363.041822474     A.U. after   14 cycles
 SCF Done:  E(RB3LYP) =  -363.041898298     A.U. after   11 cycles
 SCF Done:  E(RB3LYP) =  -363.041903303     A.U. after    8 cycles
 SCF Done:  E(RB3LYP) =  -363.041904044     A.U. after    8 cycles
 SCF Done:  E(RB3LYP) =  -363.041904868     A.U. after    8 cycles
 SCF Done:  E(RB3LYP) =  -363.041905135     A.U. after    8 cycles
 SCF Done:  E(RB3LYP) =  -363.041905246     A.U. after    7 cycles
 SCF Done:  E(RB3LYP) =  -363.041905335     A.U. after    7 cycles
 Optimization completed.
    -- Stationary point found.
 Normal termination of Gaussian 09 at Thu Sep  8 15:08:26 2022.

 ----------------------------------------------------------------------
 #P Geom=AllCheck Guess=TCheck SCRF=Check GenChk RB3LYP/6-31G(d,p) Freq
 ----------------------------------------------------------------------

 Structure from the checkpoint file:  "B3LYP6-31Gdp.Frag_999.chk"
 --------
 Frag_999
 --------
 Charge =  0 Multiplicity = 1

                         Standard orientation:
 ---------------------------------------------------------------------
 Center     Atomic      Atomic             Coordinates (Angstroms)
 Number     Number       Type             X           Y           Z
 ---------------------------------------------------------------------
      1          6           0       -1.021574   -0.829047    1.200056
      2          6           0       -0.578078   -0.012817   -0.028044
      3          6           0       -1.280377    1.345859   -0.079134
      4          8           0       -0.841283   -0.754032   -1.228022
      5          6           0        0.942691    0.155749    0.003135
      6          7           0        1.483695    1.296574    0.145089
      7          8           0        1.567247   -1.049906   -0.100854
      8          1           0       -2.107819   -0.974080    1.174256
      9          1           0       -0.775580   -0.310833    2.132290
     10          1           0       -0.537143   -1.807341    1.197961
     11          1           0       -2.365249    1.191206   -0.121298
     12          1           0       -1.050294    1.949677    0.800827
     13          1           0       -0.966443    1.900709   -0.964803
     14          1           0       -1.798539   -0.881339   -1.272646
     15          1           0        2.506113    1.238674    0.178304
     16          1           0        2.525412   -0.909641   -0.085588
 ---------------------------------------------------------------------

 SCF Done:  E(RB3LYP) =  -363.041905335     A.U. after    1 cycles

 The electronic state is 1-A.
 Alpha  occ. eigenvalues --  -19.18884 -19.14029 -14.31033 -10.28186 -10.24995
 Alpha  occ. eigenvalues --  -10.17817 -10.16951  -1.07701  -1.01506  -0.88698
 Alpha  occ. eigenvalues --   -0.77521  -0.68901  -0.66213  -0.56640  -0.53193
 Alpha  occ. eigenvalues --   -0.48082  -0.46727  -0.42832  -0.42249  -0.40849
 Alpha  occ. eigenvalues --   -0.39543  -0.38159  -0.35847  -0.35174  -0.32678
 Alpha  occ. eigenvalues --   -0.27522  -0.27118  -0.26518
 Alpha virt. eigenvalues --    0.02232   0.05522   0.07807   0.12456   0.14001
 Alpha virt. eigenvalues --    0.14346   0.16782   0.17436   0.19485   0.20178
 Alpha virt. eigenvalues --    0.22306   0.24149   0.24936   0.26603   0.30301

 Mulliken charges:
               1
     1  C   -0.322575
     2  C    0.232536
     3  C   -0.296554
     4  O   -0.543008
     5  C    0.493769
     6  N   -0.549395
     7  O   -0.490928
     8  H    0.093242
     9  H    0.110713
    10  H    0.132288
    11  H    0.077169
    12  H    0.120135
    13  H    0.126697
    14  H    0.302180
    15  H    0.205612
    16  H    0.308119
 Sum of Mulliken charges =  -0.00000

 Dipole moment (field-independent basis, Debye):
    X=              0.3005    Y=             -0.7819    Z=              0.9349  Tot=              1.2553
 Quadrupole moment (field-independent basis, Debye-Ang):
   XX=            -29.1635   YY=            -47.5368   ZZ=            -44.2590
   XY=             -0.6558   XZ=              1.0583   YZ=             -1.1899

  Exact polarizability:  64.719   3.241  57.909   0.714   1.024  44.313
 Approx polarizability:  83.879   6.797  89.237   1.680   5.575  62.997

                      1                      2                      3
                      A                      A                      A
 Frequencies --     56.0766               220.3533               237.3803
 Red. masses --      5.7284                 1.1815                 1.1074
 Frc consts  --      0.0106                 0.0338                 0.0368
 IR Inten    --      0.5452                87.2247                29.8203

                      4                      5                      6
                      A                      A                      A
 Frequencies --    245.1460               265.6524               289.4051
 Red. masses --      1.4815                 2.3782                 1.5956
 Frc consts  --      0.0525                 0.0989                 0.0787
 IR Inten    --      1.9649                 3.2236                 6.4299

                      7                      8                      9
                      A                      A                      A
 Frequencies --    356.6666               379.8297               406.4030
 Red. masses --      2.5394                 3.4156                 3.4450
 Frc consts  --      0.1903                 0.2903                 0.3352
 IR Inten    --      3.3094                 2.3216                 3.4152

                     10                     11                     12
                      A                      A                      A
 Frequencies --    467.6975               529.5646               567.9081
 Red. masses --      1.1415                 4.4206                 2.6955
 Frc consts  --      0.1471                 0.7304                 0.5122
 IR Inten    --     74.2323                18.6768                40.5527

                     13                     14                     15
                      A                      A                      A
 Frequencies --    715.8537               731.0798               866.3344
 Red. masses --      3.6921                 3.2451                 1.4905
 Frc consts  --      1.1147                 1.0219                 0.6591
 IR Inten    --      3.0604                18.2925                86.7909

                     16                     17                     18
                      A                      A                      A
 Frequencies --    890.7091               934.2723               980.9827
 Red. masses --      2.3150                 1.4951                 2.0526
 Frc consts  --      1.0821                 0.7689                 1.1638
 IR Inten    --      3.2702                 1.9565                19.6106

                     19                     20                     21
                      A                      A                      A
 Frequencies --   1022.4209              1107.3583              1149.0468
 Red. masses --      1.3071                 2.1131                 1.3283
 Frc consts  --      0.8050                 1.5266                 1.0333
 IR Inten    --      3.4448                77.8157                57.8498

                     22                     23                     24
                      A                      A                      A
 Frequencies --   1161.4777              1207.3855              1242.8941
 Red. masses --      1.6185                 2.7540                 2.7173
 Frc consts  --      1.2864                 2.3654                 2.4731
 IR Inten    --    290.2074                49.9414                 2.4596

                     25                     26                     27
                      A                      A                      A
 Frequencies --   1353.1822              1406.0210              1428.4045
 Red. masses --      1.5610                 1.2798                 1.3216
 Frc consts  --      1.6841                 1.4907                 1.5887
 IR Inten    --     44.5524                14.3665                 8.7682

                     28                     29                     30
                      A                      A                      A
 Frequencies --   1442.4012              1490.2840              1495.2832
 Red. masses --      1.9793                 1.0490                 1.0504
 Frc consts  --      2.4263                 1.3727                 1.3837
 IR Inten    --     29.9038                 0.5181                 0.3762

                     31                     32                     33
                      A                      A                      A
 Frequencies --   1507.2495              1527.2504              1758.2566
 Red. masses --      1.0515                 1.1399                 7.8855
 Frc consts  --      1.4075                 1.5665                14.3630
 IR Inten    --      1.4413                 9.7785               173.6332

                     34                     35                     36
                      A                      A                      A
 Frequencies --   3042.0490              3048.4167              3112.1605
 Red. masses --      1.0401                 1.0423                 1.0999
 Frc consts  --      5.6711                 5.7066                 6.2765
 IR Inten    --      8.5913                34.2567                18.8521

                     37                     38                     39
                      A                      A                      A
 Frequencies --   3130.3387              3152.0981              3161.2904
 Red. masses --      1.0928                 1.1017                 1.1034
 Frc consts  --      6.3089                 6.4493                 6.4973
 IR Inten    --     26.0466                12.7677                14.3154

                     40                     41                     42
                      A                      A                      A
 Frequencies --   3443.1845              3789.6448              3807.0941
 Red. masses --      1.0754                 1.0654                 1.0662
 Frc consts  --      7.5120                 9.0149                 9.1047
 IR Inten    --     12.4883                19.5877                11.3620

 - Thermochemistry -
 -------------------
 Temperature   298.150 Kelvin.  Pressure   1.00000 Atm.
 Atom     1 has atomic number  6 and mass  12.00000

 Molecular mass:   103.06333 amu.
 Principal axes and moments of inertia in atomic units:
                           1         2         3
     Eigenvalues --   533.59349 748.38940 908.28812
           X            0.99962  -0.02052  -0.01824
           Y            0.01931   0.99774  -0.06441
           Z            0.01952   0.06404   0.99776
 This molecule is an asymmetric top.
 Rotational symmetry number  1.
 Warning -- assumption of classical behavior for rotation
           may cause significant error
 Rotational temperatures (Kelvin)      0.16232     0.11573     0.09536
 Rotational constants (GHZ):           3.38224     2.41150     1.98697
 Zero-point vibrational energy     353655.1 (Joules/Mol)
                                   84.52559 (Kcal/Mol)
 Warning -- explicit consideration of  12 degrees of freedom as
           vibrations may cause significant error
 Vibrational temperatures:     80.68   317.04   341.54   352.71   382.21
          (Kelvin)            416.39   513.16   546.49   584.72   672.91
                              761.92   817.09  1029.95  1051.86  1246.46
                             1281.53  1344.21  1411.41  1471.03  1593.24
                             1653.22  1671.11  1737.16  1788.25  1946.92
                             2022.95  2055.15  2075.29  2144.18  2151.38
                             2168.59  2197.37  2529.74  4376.82  4385.99
                             4477.70  4503.85  4535.16  4548.39  4953.97
                             5452.45  5477.55

 Zero-point correction=                           0.134700 (Hartree/Particle)
 Thermal correction to Energy=                    0.142988
 Thermal correction to Enthalpy=                  0.143932
 Thermal correction to Gibbs Free Energy=         0.102637
 Sum of electronic and zero-point Energies=           -362.907205
 Sum of electronic and thermal Energies=              -362.898917
 Sum of electronic and thermal Enthalpies=            -362.897973
 Sum of electronic and thermal Free Energies=         -362.939269

                     E (Thermal)             CV                S
                      KCal/Mol        Cal/Mol-Kelvin    Cal/Mol-Kelvin
 Total                   89.726             30.571             86.914
 Electronic               0.000              0.000              0.000
 Translational            0.889              2.981             39.808
 Rotational               0.889              2.981             27.386
 Vibrational             87.949             24.609             19.720
 Vibration     1          0.596              1.975              4.591
 Vibration     2          0.647              1.810              1.956
 Vibration     3          0.656              1.783              1.822
 Vibration     4          0.660              1.771              1.765
 Vibration     5          0.671              1.736              1.624
 Vibration     6          0.686              1.693              1.477
 Vibration     7          0.732              1.562              1.137
 Vibration     8          0.750              1.513              1.040
 Vibration     9          0.771              1.456              0.939
 Vibration    10          0.825              1.322              0.744
 Vibration    11          0.885              1.185              0.588
 Vibration    12          0.924              1.101              0.508

 Normal termination of Gaussian 09 at Thu Sep  8 15:08:41 2022.
