 Gaussian 09, Revision E.01,
 Gaussian 09:  ES64L-G09RevE.01 30-Nov-2015

 ----------------------------
 #P OPT Freq B3LYP/6-31G(d,p)
 ----------------------------

 --------
 Frag_840
 --------
 Symbolic Z-matrix:
 Charge =  0 Multiplicity = 1

 SCF Done:  E(RB3LYP) =  -379.085763797     A.U. after   13 cycles
 SCF Done:  E(RB3LYP) =  -379.085841835     A.U. after   10 cycles
 SCF Done:  E(RB3LYP) =  -379.085847593     A.U. after    8 cycles
 SCF Done:  E(RB3LYP) =  -379.085848030     A.U. after    8 cycles
 SCF Done:  E(RB3LYP) =  -379.085849115     A.U. after    8 cycles
 SCF Done:  E(RB3LYP) =  -379.085849590     A.U. after    8 cycles
 SCF Done:  E(RB3LYP) =  -379.085850007     A.U. after    8 cycles
 SCF Done:  E(RB3LYP) =  -379.085850155     A.U. after    7 cycles
 Optimization completed.
    -- Stationary point found.
 Normal termination of Gaussian 09 at Thu Sep  8 15:06:20 2022.

 ----------------------------------------------------------------------
 #P Geom=AllCheck Guess=TCheck SCRF=Check GenChk RB3LYP/6-31G(d,p) Freq
 ----------------------------------------------------------------------

 Structure from the checkpoint file:  "B3LYP6-31Gdp.Frag_840.chk"
 --------
 Frag_840
 --------
 Charge =  0 Multiplicity = 1

                         Standard orientation:
 ---------------------------------------------------------------------
 Center     Atomic      Atomic             Coordinates (Angstroms)
 Number     Number       Type             X           Y           Z
 ---------------------------------------------------------------------
      1          6           0        1.364056    1.194752   -0.421534
      2          6           0        0.584292   -0.055948   -0.005241
      3          7           0        0.919994   -0.570905    1.326401
      4          8           0        0.916407   -1.044576   -0.957124
      5          6           0       -0.940352    0.187682   -0.007515
      6          7           0       -1.592061    1.274369    0.080051
      7          8           0       -1.605407   -0.988135   -0.095597
      8          1           0        1.054848    1.545049   -1.410001
      9          1           0        2.426947    0.942503   -0.464658
     10          1           0        1.233891    2.004743    0.302408
     11          1           0        0.647198    0.089447    2.051479
     12          1           0        1.929827   -0.690065    1.381171
     13          1           0        0.397876   -1.827677   -0.717378
     14          1           0       -0.971246    2.080293    0.126453
     15          1           0       -2.550855   -0.765772   -0.087129
 ---------------------------------------------------------------------

 SCF Done:  E(RB3LYP) =  -379.085850155     A.U. after    1 cycles

 The electronic state is 1-A.
 Alpha  occ. eigenvalues --  -19.18707 -19.14664 -14.32486 -14.31274 -10.28369
 Alpha  occ. eigenvalues --  -10.28316 -10.18768  -1.08163  -1.03123  -0.89644
 Alpha  occ. eigenvalues --   -0.87507  -0.74207  -0.66726  -0.58283  -0.54551
 Alpha  occ. eigenvalues --   -0.51765  -0.49718  -0.45998  -0.42906  -0.40801
 Alpha  occ. eigenvalues --   -0.40492  -0.39333  -0.37885  -0.35404  -0.30644
 Alpha  occ. eigenvalues --   -0.27702  -0.26623  -0.25013
 Alpha virt. eigenvalues --    0.01732   0.06149   0.09081   0.11632   0.12522
 Alpha virt. eigenvalues --    0.13727   0.15364   0.17572   0.18829   0.21148
 Alpha virt. eigenvalues --    0.24088   0.24139   0.28110   0.31582   0.43966

 Mulliken charges:
               1
     1  C   -0.322142
     2  C    0.303794
     3  N   -0.580347
     4  O   -0.534235
     5  C    0.513237
     6  N   -0.578671
     7  O   -0.510688
     8  H    0.127182
     9  H    0.118421
    10  H    0.095109
    11  H    0.239181
    12  H    0.244544
    13  H    0.323466
    14  H    0.232633
    15  H    0.328515
 Sum of Mulliken charges =  -0.00000

 Dipole moment (field-independent basis, Debye):
    X=              0.9606    Y=              0.8696    Z=              1.1012  Tot=              1.7005
 Quadrupole moment (field-independent basis, Debye-Ang):
   XX=            -39.8561   YY=            -40.9522   ZZ=            -42.4466
   XY=              4.8617   XZ=              3.1635   YZ=              1.4138

  Exact polarizability:  55.137  -1.086  56.561   0.286   1.086  41.974
 Approx polarizability:  72.801  -6.125  87.901  -1.206   4.117  59.815

                      1                      2                      3
                      A                      A                      A
 Frequencies --     42.1228               216.9433               247.3715
 Red. masses --      5.4539                 1.2512                 2.1794
 Frc consts  --      0.0057                 0.0347                 0.0786
 IR Inten    --      0.4821                17.7701                 1.9028

                      4                      5                      6
                      A                      A                      A
 Frequencies --    279.6650               285.3106               368.2507
 Red. masses --      1.2885                 2.5879                 2.9219
 Frc consts  --      0.0594                 0.1241                 0.2335
 IR Inten    --      5.0222                11.7097                 4.6347

                      7                      8                      9
                      A                      A                      A
 Frequencies --    375.6984               403.9521               473.4145
 Red. masses --      2.0514                 2.4858                 1.9629
 Frc consts  --      0.1706                 0.2390                 0.2592
 IR Inten    --     38.4628                18.6853               103.6331

                     10                     11                     12
                      A                      A                      A
 Frequencies --    553.6124               558.5091               585.7560
 Red. masses --      2.6644                 1.2569                 2.7401
 Frc consts  --      0.4811                 0.2310                 0.5539
 IR Inten    --     16.8875                94.0161                69.8929

                     13                     14                     15
                      A                      A                      A
 Frequencies --    732.9178               747.3786               845.9755
 Red. masses --      3.9714                 5.5400                 1.1850
 Frc consts  --      1.2569                 1.8232                 0.4997
 IR Inten    --     26.6826                39.2558                66.2290

                     16                     17                     18
                      A                      A                      A
 Frequencies --    860.8122               916.6293               969.7123
 Red. masses --      1.4654                 2.0210                 1.8394
 Frc consts  --      0.6398                 1.0005                 1.0191
 IR Inten    --    109.5340                17.4852                25.8584

                     19                     20                     21
                      A                      A                      A
 Frequencies --   1064.2757              1092.6884              1112.6214
 Red. masses --      1.6044                 1.8501                 2.0361
 Frc consts  --      1.0707                 1.3014                 1.4851
 IR Inten    --     55.0079               237.5014                 1.0007

                     22                     23                     24
                      A                      A                      A
 Frequencies --   1219.6590              1246.0621              1319.8181
 Red. masses --      2.6186                 1.4784                 1.8994
 Frc consts  --      2.2951                 1.3525                 1.9494
 IR Inten    --    101.1394                91.5398                60.5787

                     25                     26                     27
                      A                      A                      A
 Frequencies --   1387.6602              1428.0246              1446.4446
 Red. masses --      1.3066                 1.4883                 2.5903
 Frc consts  --      1.4824                 1.7882                 3.1931
 IR Inten    --     74.1618                37.9064                10.9522

                     28                     29                     30
                      A                      A                      A
 Frequencies --   1502.1034              1510.7004              1644.7461
 Red. masses --      1.0526                 1.0711                 1.1164
 Frc consts  --      1.3993                 1.4403                 1.7794
 IR Inten    --      2.8649                 2.6257                42.3440

                     31                     32                     33
                      A                      A                      A
 Frequencies --   1752.9497              3055.1694              3131.3426
 Red. masses --      8.5791                 1.0354                 1.1027
 Frc consts  --     15.5322                 5.6944                 6.3702
 IR Inten    --    165.8665                 9.3825                20.5956

                     34                     35                     36
                      A                      A                      A
 Frequencies --   3140.3401              3481.5584              3534.8659
 Red. masses --      1.1034                 1.0487                 1.0751
 Frc consts  --      6.4114                 7.4893                 7.9149
 IR Inten    --     17.0114                 0.1280                 0.8630

                     37                     38                     39
                      A                      A                      A
 Frequencies --   3577.5182              3760.1050              3784.9493
 Red. masses --      1.0935                 1.0642                 1.0649
 Frc consts  --      8.2459                 8.8650                 8.9881
 IR Inten    --      0.3571                50.1727                37.3282

 - Thermochemistry -
 -------------------
 Temperature   298.150 Kelvin.  Pressure   1.00000 Atm.
 Atom     1 has atomic number  6 and mass  12.00000

 Molecular mass:   104.05858 amu.
 Principal axes and moments of inertia in atomic units:
                           1         2         3
     Eigenvalues --   515.50645 750.82075 904.80975
           X            0.99759   0.06798   0.01368
           Y           -0.06764   0.99743  -0.02360
           Z           -0.01525   0.02261   0.99963
 This molecule is an asymmetric top.
 Rotational symmetry number  1.
 Warning -- assumption of classical behavior for rotation
           may cause significant error
 Rotational temperatures (Kelvin)      0.16802     0.11536     0.09573
 Rotational constants (GHZ):           3.50091     2.40369     1.99461
 Zero-point vibrational energy     326925.3 (Joules/Mol)
                                   78.13701 (Kcal/Mol)
 Warning -- explicit consideration of  12 degrees of freedom as
           vibrations may cause significant error
 Vibrational temperatures:     60.61   312.13   355.91   402.38   410.50
          (Kelvin)            529.83   540.55   581.20   681.14   796.52
                              803.57   842.77  1054.50  1075.31  1217.17
                             1238.52  1318.82  1395.20  1531.25  1572.13
                             1600.81  1754.82  1792.80  1898.92  1996.53
                             2054.61  2081.11  2161.19  2173.56  2366.42
                             2522.10  4395.70  4505.30  4518.24  5009.18
                             5085.88  5147.24  5409.95  5445.69

 Zero-point correction=                           0.124519 (Hartree/Particle)
 Thermal correction to Energy=                    0.132446
 Thermal correction to Enthalpy=                  0.133391
 Thermal correction to Gibbs Free Energy=         0.092555
 Sum of electronic and zero-point Energies=           -378.961331
 Sum of electronic and thermal Energies=              -378.953404
 Sum of electronic and thermal Enthalpies=            -378.952460
 Sum of electronic and thermal Free Energies=         -378.993295

                     E (Thermal)             CV                S
                      KCal/Mol        Cal/Mol-Kelvin    Cal/Mol-Kelvin
 Total                   83.111             29.507             85.946
 Electronic               0.000              0.000              0.000
 Translational            0.889              2.981             39.837
 Rotational               0.889              2.981             27.351
 Vibrational             81.334             23.546             18.758
 Vibration     1          0.595              1.980              5.157
 Vibration     2          0.646              1.815              1.984
 Vibration     3          0.661              1.767              1.749
 Vibration     4          0.680              1.711              1.536
 Vibration     5          0.683              1.701              1.502
 Vibration     6          0.741              1.538              1.087
 Vibration     7          0.747              1.522              1.056
 Vibration     8          0.769              1.462              0.948
 Vibration     9          0.830              1.309              0.728
 Vibration    10          0.909              1.132              0.537
 Vibration    11          0.914              1.121              0.527
 Vibration    12          0.943              1.062              0.475

 Optimization completed.
    -- Stationary point found.
 Normal termination of Gaussian 09 at Thu Sep  8 15:06:34 2022.
