 Gaussian 09, Revision E.01,
 Gaussian 09:  ES64L-G09RevE.01 30-Nov-2015

 ----------------------------
 #P OPT Freq B3LYP/6-31G(d,p)
 ----------------------------

 --------
 Frag_655
 --------
 Symbolic Z-matrix:
 Charge =  0 Multiplicity = 1

 SCF Done:  E(RB3LYP) =  -285.572860863     A.U. after   13 cycles
 SCF Done:  E(RB3LYP) =  -285.572915923     A.U. after    9 cycles
 SCF Done:  E(RB3LYP) =  -285.572923907     A.U. after    8 cycles
 SCF Done:  E(RB3LYP) =  -285.572925053     A.U. after    7 cycles
 SCF Done:  E(RB3LYP) =  -285.572925345     A.U. after    7 cycles
 SCF Done:  E(RB3LYP) =  -285.572925418     A.U. after    7 cycles
 Optimization completed.
    -- Stationary point found.
 Normal termination of Gaussian 09 at Thu Sep  8 14:57:16 2022.

 ----------------------------------------------------------------------
 #P Geom=AllCheck Guess=TCheck SCRF=Check GenChk RB3LYP/6-31G(d,p) Freq
 ----------------------------------------------------------------------

 Structure from the checkpoint file:  "B3LYP6-31Gdp.Frag_655.chk"
 --------
 Frag_655
 --------
 Charge =  0 Multiplicity = 1

                         Standard orientation:
 ---------------------------------------------------------------------
 Center     Atomic      Atomic             Coordinates (Angstroms)
 Number     Number       Type             X           Y           Z
 ---------------------------------------------------------------------
      1          6           0        1.670607   -0.729278   -0.015493
      2          6           0        0.406328    0.041642    0.332411
      3          8           0        0.486324    1.406822   -0.026038
      4          8           0       -0.652178   -0.607370   -0.341264
      5          7           0       -1.908491   -0.122975    0.198859
      6          1           0        2.536108   -0.245600    0.443330
      7          1           0        1.606511   -1.760914    0.339153
      8          1           0        1.813028   -0.751934   -1.101975
      9          1           0        0.201784    0.047120    1.408054
     10          1           0        0.744198    1.439639   -0.959204
     11          1           0       -2.121311    0.706050   -0.362284
     12          1           0       -2.555660   -0.843335   -0.122176
 ---------------------------------------------------------------------

 SCF Done:  E(RB3LYP) =  -285.572925418     A.U. after    1 cycles

 The electronic state is 1-A.
 Alpha  occ. eigenvalues --  -19.17035 -19.14617 -14.36711 -10.27515 -10.18045
 Alpha  occ. eigenvalues --   -1.07298  -1.00575  -0.82163  -0.72520  -0.61527
 Alpha  occ. eigenvalues --   -0.52321  -0.49960  -0.47649  -0.43498  -0.41747
 Alpha  occ. eigenvalues --   -0.38764  -0.37734  -0.33606  -0.30528  -0.27894
 Alpha  occ. eigenvalues --   -0.23935
 Alpha virt. eigenvalues --    0.07649   0.08431   0.10921   0.14023   0.15092
 Alpha virt. eigenvalues --    0.15555   0.17638   0.18598   0.22271   0.25531
 Alpha virt. eigenvalues --    0.26771   0.52939   0.55778   0.57017   0.58080

 Mulliken charges:
               1
     1  C   -0.343071
     2  C    0.394573
     3  O   -0.530641
     4  O   -0.433297
     5  N   -0.354355
     6  H    0.121146
     7  H    0.121813
     8  H    0.105328
     9  H    0.104840
    10  H    0.296068
    11  H    0.257830
    12  H    0.259768
 Sum of Mulliken charges =  -0.00000

 Dipole moment (field-independent basis, Debye):
    X=             -0.0631    Y=             -0.4581    Z=             -1.6263  Tot=              1.6908
 Quadrupole moment (field-independent basis, Debye-Ang):
   XX=            -25.0002   YY=            -32.2257   ZZ=            -29.8955
   XY=             -0.1304   XZ=              1.7422   YZ=             -2.9622

  Exact polarizability:  45.880  -0.400  35.870  -0.109  -1.565  32.440
 Approx polarizability:  54.366   0.255  49.862  -1.124  -0.798  45.794

                      1                      2                      3
                      A                      A                      A
 Frequencies --    118.7700               166.5065               229.3096
 Red. masses --      1.4621                 2.1814                 1.0727
 Frc consts  --      0.0122                 0.0356                 0.0332
 IR Inten    --     42.9443                12.1665                 0.4265

                      4                      5                      6
                      A                      A                      A
 Frequencies --    307.3398               360.7699               393.4744
 Red. masses --      3.0672                 1.3721                 1.9927
 Frc consts  --      0.1707                 0.1052                 0.1818
 IR Inten    --      8.1439                52.6090                44.6285

                      7                      8                      9
                      A                      A                      A
 Frequencies --    545.8185               579.7563               850.8132
 Red. masses --      2.8121                 4.3835                 2.2823
 Frc consts  --      0.4936                 0.8681                 0.9734
 IR Inten    --     20.0801                39.6656                 6.9896

                     10                     11                     12
                      A                      A                      A
 Frequencies --    910.0855               971.4494              1066.5492
 Red. masses --      2.8101                 3.9622                 1.5992
 Frc consts  --      1.3713                 2.2031                 1.0718
 IR Inten    --     38.0514                35.9506                91.7329

                     13                     14                     15
                      A                      A                      A
 Frequencies --   1112.4068              1147.2219              1233.7412
 Red. masses --      2.1733                 2.2904                 1.4709
 Frc consts  --      1.5845                 1.7760                 1.3191
 IR Inten    --     62.3803                94.8219                88.0090

                     16                     17                     18
                      A                      A                      A
 Frequencies --   1314.1837              1334.4495              1375.8884
 Red. masses --      1.4394                 1.2162                 1.2697
 Frc consts  --      1.4647                 1.2760                 1.4161
 IR Inten    --      4.9733                19.7684                11.2512

                     19                     20                     21
                      A                      A                      A
 Frequencies --   1420.1828              1447.8878              1499.0442
 Red. masses --      1.2632                 1.2720                 1.0481
 Frc consts  --      1.5011                 1.5711                 1.3876
 IR Inten    --     15.3717                58.9016                 2.2273

                     22                     23                     24
                      A                      A                      A
 Frequencies --   1508.5780              1641.4353              3051.1499
 Red. masses --      1.0528                 1.0715                 1.0392
 Frc consts  --      1.4117                 1.7009                 5.7002
 IR Inten    --      5.3321                21.8807                10.2390

                     25                     26                     27
                      A                      A                      A
 Frequencies --   3085.0367              3128.5363              3150.0133
 Red. masses --      1.0859                 1.0983                 1.1041
 Frc consts  --      6.0890                 6.3337                 6.4545
 IR Inten    --     21.0233                32.0114                16.3065

                     28                     29                     30
                      A                      A                      A
 Frequencies --   3418.4396              3531.5306              3779.0586
 Red. masses --      1.0510                 1.0918                 1.0654
 Frc consts  --      7.2362                 8.0230                 8.9645
 IR Inten    --      3.3503                 0.2693                 9.6459

 - Thermochemistry -
 -------------------
 Temperature   298.150 Kelvin.  Pressure   1.00000 Atm.
 Atom     1 has atomic number  6 and mass  12.00000

 Molecular mass:    77.04768 amu.
 Principal axes and moments of inertia in atomic units:
                           1         2         3
     Eigenvalues --   212.26657 462.70726 615.53238
           X            0.99903  -0.04391   0.00362
           Y            0.04400   0.99854  -0.03118
           Z           -0.00224   0.03131   0.99951
 This molecule is an asymmetric top.
 Rotational symmetry number  1.
 Rotational temperatures (Kelvin)      0.40804     0.18719     0.14071
 Rotational constants (GHZ):           8.50224     3.90040     2.93200
 Zero-point vibrational energy     267242.3 (Joules/Mol)
                                   63.87245 (Kcal/Mol)
 Warning -- explicit consideration of   8 degrees of freedom as
           vibrations may cause significant error
 Vibrational temperatures:    170.88   239.57   329.92   442.19   519.07
          (Kelvin)            566.12   785.31   834.14  1224.13  1309.41
                             1397.70  1534.52  1600.50  1650.59  1775.08
                             1890.81  1919.97  1979.59  2043.32  2083.18
                             2156.79  2170.50  2361.66  4389.92  4438.67
                             4501.26  4532.16  4918.37  5081.08  5437.22

 Zero-point correction=                           0.101787 (Hartree/Particle)
 Thermal correction to Energy=                    0.108190
 Thermal correction to Enthalpy=                  0.109134
 Thermal correction to Gibbs Free Energy=         0.072405
 Sum of electronic and zero-point Energies=           -285.471138
 Sum of electronic and thermal Energies=              -285.464735
 Sum of electronic and thermal Enthalpies=            -285.463791
 Sum of electronic and thermal Free Energies=         -285.500521

                     E (Thermal)             CV                S
                      KCal/Mol        Cal/Mol-Kelvin    Cal/Mol-Kelvin
 Total                   67.890             21.738             77.304
 Electronic               0.000              0.000              0.000
 Translational            0.889              2.981             38.941
 Rotational               0.889              2.981             25.606
 Vibrational             66.113             15.777             12.757
 Vibration     1          0.609              1.934              3.120
 Vibration     2          0.624              1.884              2.475
 Vibration     3          0.652              1.796              1.884
 Vibration     4          0.697              1.660              1.377
 Vibration     5          0.735              1.553              1.119
 Vibration     6          0.761              1.484              0.987
 Vibration     7          0.901              1.149              0.553
 Vibration     8          0.936              1.075              0.486

 Optimization completed.
    -- Stationary point found.
 Normal termination of Gaussian 09 at Thu Sep  8 14:57:24 2022.
