 Gaussian 09, Revision E.01,
 Gaussian 09:  ES64L-G09RevE.01 30-Nov-2015

 ----------------------------
 #P OPT Freq B3LYP/6-31G(d,p)
 ----------------------------

 ---------
 Frag_1107
 ---------
 Symbolic Z-matrix:
 Charge =  0 Multiplicity = 1

 SCF Done:  E(RB3LYP) =  -321.108359799     A.U. after   13 cycles
 SCF Done:  E(RB3LYP) =  -321.108360073     A.U. after    6 cycles
 Optimization completed.
    -- Stationary point found.
 Normal termination of Gaussian 09 at Thu Sep  8 19:55:29 2022.

 ----------------------------------------------------------------------
 #P Geom=AllCheck Guess=TCheck SCRF=Check GenChk RB3LYP/6-31G(d,p) Freq
 ----------------------------------------------------------------------

 Structure from the checkpoint file:  "B3LYP6-31Gdp.Frag_1107.chk"
 ---------
 Frag_1107
 ---------
 Charge =  0 Multiplicity = 1

                         Standard orientation:
 ---------------------------------------------------------------------
 Center     Atomic      Atomic             Coordinates (Angstroms)
 Number     Number       Type             X           Y           Z
 ---------------------------------------------------------------------
      1          7           0       -1.543637   -0.822123   -0.453413
      2          6           0       -0.429025    0.003751   -0.014493
      3          7           0       -0.338318    1.262172   -0.764756
      4          7           0       -0.653618    0.267706    1.412761
      5          6           0        0.869355   -0.787425   -0.280851
      6          8           0        2.025329   -0.046856    0.115891
      7          1           0       -2.406068   -0.395756   -0.118978
      8          1           0       -1.578102   -0.807581   -1.470135
      9          1           0        0.488338    1.766685   -0.443837
     10          1           0       -1.130871    1.841516   -0.489577
     11          1           0        0.193402    0.686839    1.793846
     12          1           0       -0.775734   -0.622831    1.894176
     13          1           0        0.923628   -1.072304   -1.339706
     14          1           0        0.842265   -1.703955    0.315466
     15          1           0        2.347548    0.429987   -0.658455
 ---------------------------------------------------------------------

 SCF Done:  E(RB3LYP) =  -321.108360073     A.U. after    1 cycles

 The electronic state is 1-A.
 Alpha  occ. eigenvalues --  -19.15280 -14.31062 -14.30945 -14.30851 -10.26041
 Alpha  occ. eigenvalues --  -10.22513  -1.02372  -0.93988  -0.83653  -0.83267
 Alpha  occ. eigenvalues --   -0.69869  -0.57789  -0.52281  -0.50822  -0.47785
 Alpha  occ. eigenvalues --   -0.46840  -0.44718  -0.40378  -0.39691  -0.39268
 Alpha  occ. eigenvalues --   -0.33464  -0.29050  -0.25985  -0.23897  -0.23826
 Alpha virt. eigenvalues --    0.05854   0.08939   0.12123   0.12226   0.13918
 Alpha virt. eigenvalues --    0.16630   0.17340   0.18730   0.19109   0.21517
 Alpha virt. eigenvalues --    0.26249   0.27853   0.28261   0.29106   0.55286

 Mulliken charges:
               1
     1  N   -0.588776
     2  C    0.314673
     3  N   -0.591076
     4  N   -0.594769
     5  C    0.066675
     6  O   -0.546615
     7  H    0.242696
     8  H    0.243932
     9  H    0.222897
    10  H    0.235832
    11  H    0.242998
    12  H    0.241926
    13  H    0.088169
    14  H    0.107672
    15  H    0.313765
 Sum of Mulliken charges =  -0.00000

 Dipole moment (field-independent basis, Debye):
    X=              0.2762    Y=              0.7877    Z=             -0.7103  Tot=              1.0960
 Quadrupole moment (field-independent basis, Debye-Ang):
   XX=            -36.0939   YY=            -36.8575   ZZ=            -36.5306
   XY=              1.0190   XZ=             -0.9520   YZ=             -0.1083

  Exact polarizability:  49.434   2.712  45.685  -0.328  -0.468  45.694
 Approx polarizability:  65.704   5.488  62.628  -0.228  -0.924  64.025

                      1                      2                      3
                      A                      A                      A
 Frequencies --    101.5209               199.1085               244.8795
 Red. masses --      2.6074                 1.1658                 4.7436
 Frc consts  --      0.0158                 0.0272                 0.1676
 IR Inten    --     24.5093               105.1464                 6.2211

                      4                      5                      6
                      A                      A                      A
 Frequencies --    307.2865               340.5865               372.2343
 Red. masses --      1.1402                 1.1652                 2.1915
 Frc consts  --      0.0634                 0.0796                 0.1789
 IR Inten    --     51.6269                14.6837                17.8389

                      7                      8                      9
                      A                      A                      A
 Frequencies --    397.6990               418.6820               474.8524
 Red. masses --      1.3064                 1.9415                 2.5166
 Frc consts  --      0.1217                 0.2005                 0.3343
 IR Inten    --     21.6098                32.3548                11.5323

                     10                     11                     12
                      A                      A                      A
 Frequencies --    488.2187               591.8712               797.1961
 Red. masses --      2.3786                 3.2397                 4.5959
 Frc consts  --      0.3340                 0.6687                 1.7209
 IR Inten    --     25.4378                17.2739                13.5097

                     13                     14                     15
                      A                      A                      A
 Frequencies --    885.5050               920.1241               945.7378
 Red. masses --      1.9199                 1.4849                 1.6888
 Frc consts  --      0.8870                 0.7407                 0.8900
 IR Inten    --    122.3846               124.3261                52.1070

                     16                     17                     18
                      A                      A                      A
 Frequencies --    965.1869               993.2179              1056.3113
 Red. masses --      1.3408                 1.7677                 1.9018
 Frc consts  --      0.7359                 1.0274                 1.2502
 IR Inten    --    204.3338                40.7751                19.7685

                     19                     20                     21
                      A                      A                      A
 Frequencies --   1069.9046              1104.3261              1205.2545
 Red. masses --      2.5312                 1.5347                 1.1329
 Frc consts  --      1.7071                 1.1028                 0.9696
 IR Inten    --     98.2381                17.7960                 8.2559

                     22                     23                     24
                      A                      A                      A
 Frequencies --   1306.0614              1328.1536              1366.0395
 Red. masses --      2.0192                 2.1253                 1.3402
 Frc consts  --      2.0293                 2.2088                 1.4735
 IR Inten    --     56.2219                35.3199                39.4647

                     25                     26                     27
                      A                      A                      A
 Frequencies --   1390.7678              1438.0520              1504.3156
 Red. masses --      1.2692                 1.7922                 1.0832
 Frc consts  --      1.4464                 2.1836                 1.4443
 IR Inten    --     18.2834                 7.0429                 1.7607

                     28                     29                     30
                      A                      A                      A
 Frequencies --   1653.2953              1655.0243              1666.0107
 Red. masses --      1.0967                 1.1082                 1.1096
 Frc consts  --      1.7662                 1.7885                 1.8145
 IR Inten    --     27.5123                48.8826                27.3926

                     31                     32                     33
                      A                      A                      A
 Frequencies --   3033.8631              3110.7908              3463.7493
 Red. masses --      1.0649                 1.1021                 1.0499
 Frc consts  --      5.7750                 6.2839                 7.4213
 IR Inten    --     46.1721                32.1937                 2.1936

                     34                     35                     36
                      A                      A                      A
 Frequencies --   3470.6326              3487.6485              3544.6510
 Red. masses --      1.0496                 1.0497                 1.0901
 Frc consts  --      7.4486                 7.5225                 8.0700
 IR Inten    --      0.6868                 0.0880                 1.0898

                     37                     38                     39
                      A                      A                      A
 Frequencies --   3559.8527              3577.9964              3837.1593
 Red. masses --      1.0916                 1.0918                 1.0669
 Frc consts  --      8.1505                 8.2351                 9.2553
 IR Inten    --      1.2933                 1.5207                25.3845

 - Thermochemistry -
 -------------------
 Temperature   298.150 Kelvin.  Pressure   1.00000 Atm.
 Atom     1 has atomic number  7 and mass  14.00307

 Molecular mass:    91.07456 amu.
 Principal axes and moments of inertia in atomic units:
                           1         2         3
     Eigenvalues --   374.16743 669.34157 672.44541
           X            0.99996   0.00446  -0.00731
           Y           -0.00245   0.96721   0.25396
           Z            0.00820  -0.25393   0.96719
 This molecule is an asymmetric top.
 Rotational symmetry number  1.
 Rotational temperatures (Kelvin)      0.23148     0.12940     0.12880
 Rotational constants (GHZ):           4.82335     2.69629     2.68385
 Zero-point vibrational energy     348554.5 (Joules/Mol)
                                   83.30653 (Kcal/Mol)
 Warning -- explicit consideration of  11 degrees of freedom as
           vibrations may cause significant error
 Vibrational temperatures:    146.07   286.47   352.33   442.12   490.03
          (Kelvin)            535.56   572.20   602.39   683.21   702.44
                              851.57  1146.99  1274.04  1323.85  1360.70
                             1388.69  1429.02  1519.79  1539.35  1588.88
                             1734.09  1879.13  1910.91  1965.42  2001.00
                             2069.03  2164.37  2378.72  2381.21  2397.01
                             4365.05  4475.73  4983.56  4993.46  5017.94
                             5099.96  5121.83  5147.93  5520.81

 Zero-point correction=                           0.132757 (Hartree/Particle)
 Thermal correction to Energy=                    0.140208
 Thermal correction to Enthalpy=                  0.141152
 Thermal correction to Gibbs Free Energy=         0.102198
 Sum of electronic and zero-point Energies=           -320.975603
 Sum of electronic and thermal Energies=              -320.968152
 Sum of electronic and thermal Enthalpies=            -320.967208
 Sum of electronic and thermal Free Energies=         -321.006162

                     E (Thermal)             CV                S
                      KCal/Mol        Cal/Mol-Kelvin    Cal/Mol-Kelvin
 Total                   87.982             27.639             81.985
 Electronic               0.000              0.000              0.000
 Translational            0.889              2.981             39.439
 Rotational               0.889              2.981             26.624
 Vibrational             86.204             21.677             15.922
 Vibration     1          0.604              1.948              3.425
 Vibration     2          0.637              1.841              2.141
 Vibration     3          0.660              1.771              1.767
 Vibration     4          0.697              1.660              1.377
 Vibration     5          0.720              1.594              1.209
 Vibration     6          0.744              1.529              1.071
 Vibration     7          0.764              1.475              0.971
 Vibration     8          0.782              1.430              0.896
 Vibration     9          0.832              1.306              0.724
 Vibration    10          0.844              1.276              0.688
 Vibration    11          0.949              1.049              0.464

 Normal termination of Gaussian 09 at Thu Sep  8 19:55:42 2022.
