 Gaussian 09, Revision D.01,
 Gaussian 09:  ES64L-G09RevD.01 24-Apr-2013

 -------------------------
 #P OPT Freq B3LYP/6-31G**
 -------------------------

 -------
 Frag_85
 -------
 Symbolic Z-matrix:
 Charge =  0 Multiplicity = 1

 SCF Done:  E(RB3LYP) =  -195.317624075     A.U. after   13 cycles
 Optimization completed.
    -- Stationary point found.
 Normal termination of Gaussian 09 at Fri Jul 23 16:33:01 2021.

 ----------------------------------------------------------------------
 #P Geom=AllCheck Guess=TCheck SCRF=Check GenChk RB3LYP/6-31G(d,p) Freq
 ----------------------------------------------------------------------

 Structure from the checkpoint file:  "/vol2/users/liuj201281/HOFBenchmark/IsodesmicSplit/Sample60/Ring26/Running/Gau-465350.chk"
 -------
 Frag_85
 -------
 Charge =  0 Multiplicity = 1

                         Standard orientation:
 ---------------------------------------------------------------------
 Center     Atomic      Atomic             Coordinates (Angstroms)
 Number     Number       Type             X           Y           Z
 ---------------------------------------------------------------------
      1          6           0       -2.034004   -0.103032    0.186300
      2          6           0       -0.851101   -0.561223   -0.237600
      3          6           0        0.454194    0.109388   -0.057800
      4          6           0        0.584783    1.443689   -0.089000
      5          6           0        1.640801   -0.805403    0.139600
      6          1           0       -2.952300   -0.651640    0.001400
      7          1           0       -2.120712    0.828567    0.738200
      8          1           0       -0.817293   -1.530322   -0.737700
      9          1           0       -0.262322    2.094082   -0.282100
     10          1           0        1.547279    1.922397    0.065600
     11          1           0        2.571997   -0.242495    0.240100
     12          1           0        1.748607   -1.493302   -0.708700
     13          1           0        1.516706   -1.427804    1.034200
 ---------------------------------------------------------------------

 SCF Done:  E(RB3LYP) =  -195.317624075     A.U. after    1 cycles

 The electronic state is 1-A.
 Alpha  occ. eigenvalues --  -10.19610 -10.18949 -10.18164 -10.18101 -10.17347
 Alpha  occ. eigenvalues --   -0.81282  -0.73667  -0.68163  -0.60090  -0.51340
 Alpha  occ. eigenvalues --   -0.47081  -0.44440  -0.41839  -0.40720  -0.38038
 Alpha  occ. eigenvalues --   -0.35720  -0.33691  -0.29117  -0.22765
 Alpha virt. eigenvalues --   -0.01601   0.06837   0.10836   0.13419   0.13889
 Alpha virt. eigenvalues --    0.14521   0.18069   0.18583   0.19595   0.21199
 Alpha virt. eigenvalues --    0.25209   0.33273   0.35640   0.38858   0.49040

 Mulliken charges:
               1
     1  C   -0.235990
     2  C   -0.067148
     3  C    0.141673
     4  C   -0.278109
     5  C   -0.372065
     6  H    0.098226
     7  H    0.099942
     8  H    0.082566
     9  H    0.095175
    10  H    0.089853
    11  H    0.110009
    12  H    0.114991
    13  H    0.120879
 Sum of Mulliken charges =   0.00000

 Dipole moment (field-independent basis, Debye):
    X=              0.1720    Y=             -0.3602    Z=              0.0211  Tot=              0.3997
 Quadrupole moment (field-independent basis, Debye-Ang):
   XX=            -29.5112   YY=            -30.1289   ZZ=            -33.4351
   XY=             -0.1178   XZ=              0.0844   YZ=              0.9702

  Exact polarizability:  68.255   2.724  59.993  -2.457   3.262  30.099
 Approx polarizability:  94.128   4.404  92.430  -6.535   5.413  43.315

                      1                      2                      3
                      A                      A                      A
 Frequencies --    112.5010               182.7473               269.4392
 Red. masses --      2.0761                 1.0376                 2.4795
 Frc consts  --      0.0155                 0.0204                 0.1061
 IR Inten    --      0.1074                 0.2704                 0.0436

                      4                      5                      6
                      A                      A                      A
 Frequencies --    371.5356               411.5719               544.4801
 Red. masses --      1.9964                 2.0862                 2.3431
 Frc consts  --      0.1624                 0.2082                 0.4093
 IR Inten    --      4.1254                 3.4754                 3.9885

                      7                      8                      9
                      A                      A                      A
 Frequencies --    658.8638               773.1463               805.5733
 Red. masses --      1.2871                 1.3258                 2.6236
 Frc consts  --      0.3292                 0.4669                 1.0031
 IR Inten    --      1.8124                 2.3395                 0.3294

                     10                     11                     12
                      A                      A                      A
 Frequencies --    921.7977               940.0537               967.4257
 Red. masses --      1.3497                 1.3724                 1.7129
 Frc consts  --      0.6757                 0.7146                 0.9446
 IR Inten    --     38.1954                34.5880                 0.4470

                     13                     14                     15
                      A                      A                      A
 Frequencies --   1020.0882              1033.6677              1068.7650
 Red. masses --      1.2687                 1.1574                 1.4430
 Frc consts  --      0.7779                 0.7286                 0.9711
 IR Inten    --      3.0563                12.7778                 1.1664

                     16                     17                     18
                      A                      A                      A
 Frequencies --   1104.1824              1269.4285              1337.7680
 Red. masses --      1.6162                 2.2392                 1.3857
 Frc consts  --      1.1610                 2.1260                 1.4611
 IR Inten    --      3.7934                 5.1207                 0.4049

                     19                     20                     21
                      A                      A                      A
 Frequencies --   1421.8177              1449.1692              1468.2370
 Red. masses --      1.2248                 1.2265                 1.2502
 Frc consts  --      1.4588                 1.5176                 1.5879
 IR Inten    --      1.4085                 1.9871                 6.0473

                     22                     23                     24
                      A                      A                      A
 Frequencies --   1493.5438              1508.9285              1693.9867
 Red. masses --      1.0470                 1.0596                 4.9186
 Frc consts  --      1.3760                 1.4215                 8.3159
 IR Inten    --      5.5728                 9.7080                 4.2620

                     25                     26                     27
                      A                      A                      A
 Frequencies --   1721.3343              3030.8838              3082.4312
 Red. masses --      4.3947                 1.0383                 1.0998
 Frc consts  --      7.6721                 5.6195                 6.1569
 IR Inten    --      5.3772                24.7213                22.9774

                     28                     29                     30
                      A                      A                      A
 Frequencies --   3130.2959              3133.5743              3157.9627
 Red. masses --      1.0988                 1.0857                 1.0612
 Frc consts  --      6.3436                 6.2811                 6.2353
 IR Inten    --     13.3297                29.8157                 8.1802

                     31                     32                     33
                      A                      A                      A
 Frequencies --   3160.0316              3243.5382              3245.5187
 Red. masses --      1.0626                 1.1162                 1.1162
 Frc consts  --      6.2518                 6.9186                 6.9274
 IR Inten    --      3.2110                21.7069                 6.5667

 - Thermochemistry -
 -------------------
 Temperature   298.150 Kelvin.  Pressure   1.00000 Atm.
 Atom     1 has atomic number  6 and mass  12.00000

 Molecular mass:    68.06260 amu.
 Principal axes and moments of inertia in atomic units:
                           1         2         3
     Eigenvalues --   203.83443 464.40845 637.72753
           X            0.99977  -0.02134   0.00112
           Y            0.02132   0.99964   0.01623
           Z           -0.00146  -0.01620   0.99987
 This molecule is an asymmetric top.
 Rotational symmetry number  1.
 Rotational temperatures (Kelvin)      0.42492     0.18650     0.13582
 Rotational constants (GHZ):           8.85396     3.88611     2.82996
 Zero-point vibrational energy     297477.1 (Joules/Mol)
                                   71.09873 (Kcal/Mol)
 Warning -- explicit consideration of   6 degrees of freedom as
           vibrations may cause significant error
 Vibrational temperatures:    161.86   262.93   387.66   534.56   592.16
          (Kelvin)            783.38   947.96  1112.38  1159.04  1326.26
                             1352.53  1391.91  1467.68  1487.22  1537.71
                             1588.67  1826.42  1924.75  2045.68  2085.03
                             2112.46  2148.87  2171.01  2437.27  2476.61
                             4360.76  4434.93  4503.79  4508.51  4543.60
                             4546.57  4666.72  4669.57

 Zero-point correction=                           0.113303 (Hartree/Particle)
 Thermal correction to Energy=                    0.119330
 Thermal correction to Enthalpy=                  0.120274
 Thermal correction to Gibbs Free Energy=         0.084435
 Sum of electronic and zero-point Energies=           -195.204321
 Sum of electronic and thermal Energies=              -195.198295
 Sum of electronic and thermal Enthalpies=            -195.197350
 Sum of electronic and thermal Free Energies=         -195.233189

                     E (Thermal)             CV                S
                      KCal/Mol        Cal/Mol-Kelvin    Cal/Mol-Kelvin
 Total                   74.880             21.270             75.429
 Electronic               0.000              0.000              0.000
 Translational            0.889              2.981             38.571
 Rotational               0.889              2.981             25.604
 Vibrational             73.103             15.309             11.253
 Vibration     1          0.607              1.939              3.225
 Vibration     2          0.630              1.863              2.300
 Vibration     3          0.674              1.729              1.600
 Vibration     4          0.743              1.531              1.073
 Vibration     5          0.776              1.445              0.921
 Vibration     6          0.900              1.152              0.556

 Optimization completed.
    -- Stationary point found.
 Normal termination of Gaussian 09 at Fri Jul 23 16:33:19 2021.
