 Gaussian 09, Revision E.01,
 Gaussian 09:  ES64L-G09RevE.01 30-Nov-2015

 --------------------------------
 #P OPT=calcfc Freq B3LYP/6-31G**
 --------------------------------

 --------
 Frag_410
 --------
 Symbolic Z-matrix:
 Charge =  0 Multiplicity = 1

 SCF Done:  E(RB3LYP) =  -287.750905017     A.U. after   15 cycles
 SCF Done:  E(RB3LYP) =  -287.761563974     A.U. after   14 cycles
 SCF Done:  E(RB3LYP) =  -287.761623068     A.U. after   14 cycles
 SCF Done:  E(RB3LYP) =  -287.723932982     A.U. after   15 cycles
 SCF Done:  E(RB3LYP) =  -287.731512215     A.U. after   12 cycles
 SCF Done:  E(RB3LYP) =  -287.738157444     A.U. after   12 cycles
 SCF Done:  E(RB3LYP) =  -287.743998412     A.U. after   12 cycles
 SCF Done:  E(RB3LYP) =  -287.749087060     A.U. after   12 cycles
 SCF Done:  E(RB3LYP) =  -287.753420978     A.U. after   12 cycles
 SCF Done:  E(RB3LYP) =  -287.761623818     A.U. after    8 cycles
 SCF Done:  E(RB3LYP) =  -287.763034937     A.U. after   12 cycles
 SCF Done:  E(RB3LYP) =  -287.763102029     A.U. after   11 cycles
 SCF Done:  E(RB3LYP) =  -287.763127015     A.U. after   10 cycles
 SCF Done:  E(RB3LYP) =  -287.763135618     A.U. after   10 cycles
 SCF Done:  E(RB3LYP) =  -287.763136454     A.U. after    9 cycles
 SCF Done:  E(RB3LYP) =  -287.763139371     A.U. after   10 cycles
 SCF Done:  E(RB3LYP) =  -287.763140219     A.U. after    8 cycles
 SCF Done:  E(RB3LYP) =  -287.763140457     A.U. after    7 cycles
 SCF Done:  E(RB3LYP) =  -287.763140494     A.U. after    7 cycles
 Optimization completed.
    -- Stationary point found.
 Normal termination of Gaussian 09 at Fri Sep 10 15:33:51 2021.

 ----------------------------------------------------------------------
 #P Geom=AllCheck Guess=TCheck SCRF=Check GenChk RB3LYP/6-31G(d,p) Freq
 ----------------------------------------------------------------------

 Structure from the checkpoint file:  "/public/home/users/caep010/.cache/gau_scr/Gau-207940.chk"
 --------
 Frag_410
 --------
 Charge =  0 Multiplicity = 1

                         Standard orientation:
 ---------------------------------------------------------------------
 Center     Atomic      Atomic             Coordinates (Angstroms)
 Number     Number       Type             X           Y           Z
 ---------------------------------------------------------------------
      1          6           0        1.248584    1.457877    0.000030
      2          6           0        0.633812    0.089874   -0.000039
      3          6           0        1.517913   -1.118390   -0.000018
      4          7           0       -0.656480   -0.164558   -0.000014
      5          6           0       -1.723654    0.857693   -0.000022
      6          8           0       -1.119711   -1.364718    0.000045
      7          1           0        0.531604    2.278071    0.000019
      8          1           0        1.894437    1.582823    0.878990
      9          1           0        1.894537    1.582872   -0.878852
     10          1           0        1.306955   -1.746978   -0.872991
     11          1           0        1.306800   -1.747041    0.872870
     12          1           0        2.572512   -0.833230    0.000078
     13          1           0       -2.332590    0.676517    0.886629
     14          1           0       -1.348079    1.878405   -0.000496
     15          1           0       -2.333056    0.675878   -0.886214
 ---------------------------------------------------------------------

 SCF Done:  E(RB3LYP) =  -287.763140494     A.U. after    1 cycles

 The electronic state is 1-A.
 Alpha  occ. eigenvalues --  -19.09401 -14.45297 -10.22862 -10.22482 -10.20316
 Alpha  occ. eigenvalues --  -10.18064  -1.07646  -0.85017  -0.77490  -0.71469
 Alpha  occ. eigenvalues --   -0.68766  -0.54172  -0.49706  -0.48258  -0.46922
 Alpha  occ. eigenvalues --   -0.43067  -0.41232  -0.40450  -0.39606  -0.38937
 Alpha  occ. eigenvalues --   -0.36087  -0.35343  -0.22337  -0.19559
 Alpha virt. eigenvalues --   -0.00112   0.08297   0.11565   0.12811   0.14156
 Alpha virt. eigenvalues --    0.14524   0.14724   0.17038   0.17469   0.20462
 Alpha virt. eigenvalues --    0.21434   0.23401   0.24035   0.33517   0.39427

 Mulliken charges:
               1
     1  C   -0.374062
     2  C    0.258880
     3  C   -0.343351
     4  N    0.008691
     5  C   -0.177963
     6  O   -0.531643
     7  H    0.114162
     8  H    0.130658
     9  H    0.130655
    10  H    0.141563
    11  H    0.141570
    12  H    0.094842
    13  H    0.149711
    14  H    0.106566
    15  H    0.149722
 Sum of Mulliken charges =  -0.00000

 Dipole moment (field-independent basis, Debye):
    X=              1.3335    Y=              3.5218    Z=             -0.0000  Tot=              3.7658
 Quadrupole moment (field-independent basis, Debye-Ang):
   XX=            -35.2878   YY=            -39.3682   ZZ=            -36.9181
   XY=             -4.5610   XZ=              0.0001   YZ=              0.0003

  Exact polarizability:  73.273   4.615  58.896  -0.001   0.000  38.822
 Approx polarizability: 115.781  24.569  90.776  -0.002  -0.001  55.243

                      1                      2                      3
                      A                      A                      A
 Frequencies --     70.6216               100.6476               130.0456
 Red. masses --      1.1381                 1.0526                 1.1204
 Frc consts  --      0.0033                 0.0063                 0.0112
 IR Inten    --      0.0986                 0.4723                 0.3447

                      4                      5                      6
                      A                      A                      A
 Frequencies --    175.2668               312.4625               315.1326
 Red. masses --      2.0394                 2.6653                 3.1478
 Frc consts  --      0.0369                 0.1533                 0.1842
 IR Inten    --      5.0912                 0.5162                 9.3595

                      7                      8                      9
                      A                      A                      A
 Frequencies --    393.2240               470.2362               579.8107
 Red. masses --      2.4056                 2.9882                 4.8078
 Frc consts  --      0.2192                 0.3893                 0.9523
 IR Inten    --      0.3123                 9.3966                18.6337

                     10                     11                     12
                      A                      A                      A
 Frequencies --    582.2394               730.4196               938.2542
 Red. masses --      4.1079                 3.8386                 2.2557
 Frc consts  --      0.8205                 1.2066                 1.1700
 IR Inten    --      2.0270                 3.4533                 4.9156

                     13                     14                     15
                      A                      A                      A
 Frequencies --    990.9754               993.7492              1071.3408
 Red. masses --      1.2466                 1.3569                 1.4774
 Frc consts  --      0.7213                 0.7895                 0.9991
 IR Inten    --      0.0277                 7.9855                 8.7575

                     16                     17                     18
                      A                      A                      A
 Frequencies --   1087.4950              1148.3017              1183.4374
 Red. masses --      1.5493                 1.3941                 2.4636
 Frc consts  --      1.0795                 1.0831                 2.0329
 IR Inten    --      1.1399                 0.2882                 5.3366

                     19                     20                     21
                      A                      A                      A
 Frequencies --   1285.1769              1342.0938              1425.0842
 Red. masses --      4.0855                 3.5926                 1.3173
 Frc consts  --      3.9758                 3.8126                 1.5762
 IR Inten    --     66.2619                64.5845                 3.7574

                     22                     23                     24
                      A                      A                      A
 Frequencies --   1432.2388              1447.2375              1476.4993
 Red. masses --      1.3214                 1.2157                 1.0456
 Frc consts  --      1.5970                 1.5002                 1.3430
 IR Inten    --      2.8192                 1.5987                 5.1501

                     25                     26                     27
                      A                      A                      A
 Frequencies --   1481.7582              1490.8807              1491.1799
 Red. masses --      1.0429                 1.1544                 1.0430
 Frc consts  --      1.3491                 1.5118                 1.3665
 IR Inten    --      0.7071                 2.4851                11.6530

                     28                     29                     30
                      A                      A                      A
 Frequencies --   1499.7579              1515.7845              1678.1014
 Red. masses --      1.0545                 1.0859                 5.4822
 Frc consts  --      1.3974                 1.4701                 9.0959
 IR Inten    --      3.5021                10.2896                35.7187

                     31                     32                     33
                      A                      A                      A
 Frequencies --   3026.4468              3040.8452              3067.0546
 Red. masses --      1.0427                 1.0365                 1.1003
 Frc consts  --      5.6267                 5.6468                 6.0985
 IR Inten    --     26.8951                20.7642                18.5833

                     34                     35                     36
                      A                      A                      A
 Frequencies --   3087.4854              3091.9610              3138.1406
 Red. masses --      1.0321                 1.0993                 1.1034
 Frc consts  --      5.7966                 6.1922                 6.4023
 IR Inten    --     16.4768                 8.9796                14.7700

                     37                     38                     39
                      A                      A                      A
 Frequencies --   3161.7154              3167.0427              3198.4374
 Red. masses --      1.0956                 1.1053                 1.1025
 Frc consts  --      6.4526                 6.5321                 6.6454
 IR Inten    --     18.0310                 6.4169                21.2165

 - Thermochemistry -
 -------------------
 Temperature   298.150 Kelvin.  Pressure   1.00000 Atm.
 Atom     1 has atomic number  6 and mass  12.00000

 Molecular mass:    87.06841 amu.
 Principal axes and moments of inertia in atomic units:
                           1         2         3
     Eigenvalues --   375.33348 530.18053 872.11156
           X            0.99332  -0.11537   0.00000
           Y            0.11537   0.99332   0.00000
           Z           -0.00000  -0.00000   1.00000
 This molecule is an asymmetric top.
 Rotational symmetry number  1.
 Rotational temperatures (Kelvin)      0.23076     0.16337     0.09932
 Rotational constants (GHZ):           4.80837     3.40401     2.06939
 Zero-point vibrational energy     339850.6 (Joules/Mol)
                                   81.22624 (Kcal/Mol)
 Warning -- explicit consideration of  10 degrees of freedom as
           vibrations may cause significant error
 Vibrational temperatures:    101.61   144.81   187.11   252.17   449.56
          (Kelvin)            453.41   565.76   676.56   834.22   837.71
                             1050.91  1349.94  1425.79  1429.78  1541.42
                             1564.66  1652.15  1702.70  1849.08  1930.97
                             2050.38  2060.67  2082.25  2124.35  2131.92
                             2145.04  2145.47  2157.81  2180.87  2414.41
                             4354.38  4375.09  4412.80  4442.20  4448.64
                             4515.08  4549.00  4556.66  4601.83

 Zero-point correction=                           0.129442 (Hartree/Particle)
 Thermal correction to Energy=                    0.137180
 Thermal correction to Enthalpy=                  0.138125
 Thermal correction to Gibbs Free Energy=         0.097629
 Sum of electronic and zero-point Energies=           -287.633698
 Sum of electronic and thermal Energies=              -287.625960
 Sum of electronic and thermal Enthalpies=            -287.625016
 Sum of electronic and thermal Free Energies=         -287.665511

                     E (Thermal)             CV                S
                      KCal/Mol        Cal/Mol-Kelvin    Cal/Mol-Kelvin
 Total                   86.082             26.030             85.229
 Electronic               0.000              0.000              0.000
 Translational            0.889              2.981             39.305
 Rotational               0.889              2.981             26.654
 Vibrational             84.305             20.068             19.271
 Vibration     1          0.598              1.968              4.136
 Vibration     2          0.604              1.949              3.442
 Vibration     3          0.612              1.923              2.945
 Vibration     4          0.627              1.873              2.378
 Vibration     5          0.701              1.650              1.349
 Vibration     6          0.702              1.645              1.335
 Vibration     7          0.760              1.485              0.988
 Vibration     8          0.827              1.316              0.737
 Vibration     9          0.936              1.075              0.486
 Vibration    10          0.939              1.070              0.481

 Optimization completed.
    -- Stationary point found.
 Normal termination of Gaussian 09 at Fri Sep 10 15:34:02 2021.
