 Gaussian 09, Revision E.01,
 Gaussian 09:  ES64L-G09RevE.01 30-Nov-2015

 -------------------------
 #P OPT Freq B3LYP/6-31G**
 -------------------------

 --------
 Frag_267
 --------
 Symbolic Z-matrix:
 Charge =  0 Multiplicity = 1

 SCF Done:  E(RB3LYP) =  -171.934265957     A.U. after   14 cycles
 SCF Done:  E(RB3LYP) =  -171.972117110     A.U. after   13 cycles
 SCF Done:  E(RB3LYP) =  -171.978069238     A.U. after   12 cycles
 SCF Done:  E(RB3LYP) =  -171.978905569     A.U. after   11 cycles
 SCF Done:  E(RB3LYP) =  -171.978988207     A.U. after   10 cycles
 SCF Done:  E(RB3LYP) =  -171.979018163     A.U. after   10 cycles
 SCF Done:  E(RB3LYP) =  -171.979022019     A.U. after    9 cycles
 SCF Done:  E(RB3LYP) =  -171.979022387     A.U. after    7 cycles
 Optimization completed.
    -- Stationary point found.
 Normal termination of Gaussian 09 at Sat Aug 21 01:33:14 2021.

 ----------------------------------------------------------------------
 #P Geom=AllCheck Guess=TCheck SCRF=Check GenChk RB3LYP/6-31G(d,p) Freq
 ----------------------------------------------------------------------

 Structure from the checkpoint file:  "/public/home/users/caep010/.cache/gau_scr/Gau-137301.chk"
 --------
 Frag_267
 --------
 Charge =  0 Multiplicity = 1

                         Standard orientation:
 ---------------------------------------------------------------------
 Center     Atomic      Atomic             Coordinates (Angstroms)
 Number     Number       Type             X           Y           Z
 ---------------------------------------------------------------------
      1          7           0       -1.475800   -0.114367   -0.194527
      2          6           0       -0.196980    0.007177    0.482266
      3          6           0        1.021930   -0.641522   -0.078597
      4          6           0        1.021180    0.662548   -0.121133
      5          1           0       -2.084225    0.660344    0.063444
      6          1           0       -1.339923   -0.059745   -1.201787
      7          1           0       -0.347161    0.032704    1.565023
      8          1           0        1.508873   -1.573907   -0.328251
      9          1           0        1.516258    1.571954   -0.431950
 ---------------------------------------------------------------------

 SCF Done:  E(RB3LYP) =  -171.979022387     A.U. after    1 cycles

 The electronic state is 1-A.
 Alpha  occ. eigenvalues --  -14.30574 -10.22611 -10.19798 -10.19657  -0.90039
 Alpha  occ. eigenvalues --   -0.82055  -0.58403  -0.56136  -0.50941  -0.47211
 Alpha  occ. eigenvalues --   -0.41608  -0.35444  -0.32112  -0.26076  -0.21488
 Alpha virt. eigenvalues --    0.01293   0.10183   0.13106   0.13382   0.14860
 Alpha virt. eigenvalues --    0.17268   0.19047   0.25468   0.28673   0.34854
 Alpha virt. eigenvalues --    0.49509   0.54148   0.55075   0.58048   0.60408

 Mulliken charges:
               1
     1  N   -0.587660
     2  C    0.041009
     3  C   -0.092300
     4  C   -0.101636
     5  H    0.232501
     6  H    0.223690
     7  H    0.091381
     8  H    0.096828
     9  H    0.096185
 Sum of Mulliken charges =  -0.00000

 Dipole moment (field-independent basis, Debye):
    X=              0.6565    Y=              1.2110    Z=             -0.6511  Tot=              1.5236
 Quadrupole moment (field-independent basis, Debye-Ang):
   XX=            -24.3951   YY=            -22.9926   ZZ=            -23.1915
   XY=             -3.0273   XZ=              0.1032   YZ=              0.0782

  Exact polarizability:  41.034  -1.528  36.268  -3.400   0.171  27.964
 Approx polarizability:  54.794  -1.316  61.192  -5.283   0.021  39.052

                      1                      2                      3
                      A                      A                      A
 Frequencies --    248.4003               422.2736               430.7673
 Red. masses --      1.0915                 2.5480                 1.9823
 Frc consts  --      0.0397                 0.2677                 0.2167
 IR Inten    --     45.3307                15.6700                 4.9096

                      4                      5                      6
                      A                      A                      A
 Frequencies --    634.7239               786.5308               861.0866
 Red. masses --      1.4309                 2.1022                 1.9526
 Frc consts  --      0.3396                 0.7662                 0.8530
 IR Inten    --     88.9483                13.4254               170.5595

                      7                      8                      9
                      A                      A                      A
 Frequencies --    881.9056               907.5274               995.2236
 Red. masses --      1.4720                 1.2592                 1.5716
 Frc consts  --      0.6745                 0.6110                 0.9171
 IR Inten    --      0.4314                16.7637                14.0875

                     10                     11                     12
                      A                      A                      A
 Frequencies --   1057.7654              1079.8264              1207.1756
 Red. masses --      1.7590                 1.3783                 1.8262
 Frc consts  --      1.1596                 0.9469                 1.5679
 IR Inten    --     23.1766                 7.5910                41.6696

                     13                     14                     15
                      A                      A                      A
 Frequencies --   1271.6793              1434.5473              1654.3233
 Red. masses --      2.0262                 1.3516                 1.1390
 Frc consts  --      1.9306                 1.6388                 1.8366
 IR Inten    --     16.7138                37.8675                27.1581

                     16                     17                     18
                      A                      A                      A
 Frequencies --   1714.7252              3085.3709              3234.8058
 Red. masses --      4.4175                 1.0849                 1.0840
 Frc consts  --      7.6528                 6.0847                 6.6828
 IR Inten    --     21.1496                60.8032                 2.6511

                     19                     20                     21
                      A                      A                      A
 Frequencies --   3277.6965              3475.8386              3568.1322
 Red. masses --      1.1414                 1.0491                 1.0928
 Frc consts  --      7.2245                 7.4680                 8.1973
 IR Inten    --      0.8118                 2.2256                 0.2113

 - Thermochemistry -
 -------------------
 Temperature   298.150 Kelvin.  Pressure   1.00000 Atm.
 Atom     1 has atomic number  7 and mass  14.00307

 Molecular mass:    55.04220 amu.
 Principal axes and moments of inertia in atomic units:
                           1         2         3
     Eigenvalues --    84.18475 266.92733 295.45287
           X            0.99967  -0.02537  -0.00357
           Y            0.02537   0.99968   0.00041
           Z            0.00355  -0.00050   0.99999
 This molecule is an asymmetric top.
 Rotational symmetry number  1.
 Rotational temperatures (Kelvin)      1.02885     0.32448     0.29316
 Rotational constants (GHZ):          21.43786     6.76117     6.10839
 Zero-point vibrational energy     192780.2 (Joules/Mol)
                                   46.07556 (Kcal/Mol)
 Warning -- explicit consideration of   3 degrees of freedom as
           vibrations may cause significant error
 Vibrational temperatures:    357.39   607.56   619.78   913.22  1131.64
          (Kelvin)           1238.91  1268.86  1305.73  1431.90  1521.89
                             1553.63  1736.85  1829.66  2063.99  2380.20
                             2467.10  4439.15  4654.16  4715.87  5000.95
                             5133.74

 Zero-point correction=                           0.073426 (Hartree/Particle)
 Thermal correction to Energy=                    0.077847
 Thermal correction to Enthalpy=                  0.078791
 Thermal correction to Gibbs Free Energy=         0.047325
 Sum of electronic and zero-point Energies=           -171.905596
 Sum of electronic and thermal Energies=              -171.901175
 Sum of electronic and thermal Enthalpies=            -171.900231
 Sum of electronic and thermal Free Energies=         -171.931697

                     E (Thermal)             CV                S
                      KCal/Mol        Cal/Mol-Kelvin    Cal/Mol-Kelvin
 Total                   48.850             15.288             66.227
 Electronic               0.000              0.000              0.000
 Translational            0.889              2.981             37.938
 Rotational               0.889              2.981             23.411
 Vibrational             47.072              9.327              4.877
 Vibration     1          0.662              1.765              1.742
 Vibration     2          0.785              1.422              0.884
 Vibration     3          0.792              1.403              0.856

 Optimization completed.
    -- Stationary point found.
 Normal termination of Gaussian 09 at Sat Aug 21 01:33:20 2021.
