 Gaussian 09, Revision D.01,
 Gaussian 09:  ES64L-G09RevD.01 24-Apr-2013

 -------------------------
 #P OPT Freq B3LYP/6-31G**
 -------------------------

 -------
 Frag_39
 -------
 Symbolic Z-matrix:
 Charge =  0 Multiplicity = 1

 SCF Done:  E(RB3LYP) =  -230.027371863     A.U. after   13 cycles
 Optimization completed.
    -- Stationary point found.

 1\1\GINC-FN19\FOpt\RB3LYP\6-31G(d,p)\C4H4O1\LIUJ201281\23-Jul-2021\0\\
 #P OPT Freq B3LYP/6-31G**\\Frag_39\\0,1\C,-0.7176,0.9597,0.\C,0.7177,0
 .9597,0.\C,1.0951,-0.3476,0.\O,0.,-1.1609,0.\C,-1.0951,-0.3476,0.\H,-1
 .3738,1.8181,-0.0001\H,1.3739,1.818,0.\H,2.0514,-0.847,0.\H,-2.0515,-0
 .8469,0.\\Version=ES64L-G09RevD.01\State=1-A\HF=-230.0273719\RMSD=6.64
 9e-09\RMSF=9.204e-05\Dipole=0.0000134,0.2474626,-0.0000268\Quadrupole=
 2.7828171,-0.1575721,-2.6252449,0.0001456,0.0000868,-0.0001166\PG=C01
 [X(C4H4O1)]\\@

 Normal termination of Gaussian 09 at Fri Jul 23 01:12:24 2021.

 ----------------------------------------------------------------------
 #P Geom=AllCheck Guess=TCheck SCRF=Check GenChk RB3LYP/6-31G(d,p) Freq
 ----------------------------------------------------------------------

 Structure from the checkpoint file:  "/vol2/users/liuj201281/HOFBenchmark/IsodesmicSplit/Sample60/Ring26/Running/Gau-268978.chk"
 -------
 Frag_39
 -------
 Charge =  0 Multiplicity = 1

                         Standard orientation:
 ---------------------------------------------------------------------
 Center     Atomic      Atomic             Coordinates (Angstroms)
 Number     Number       Type             X           Y           Z
 ---------------------------------------------------------------------
      1          6           0        0.717282    0.959944   -0.000003
      2          6           0       -0.718018    0.959444   -0.000003
      3          6           0       -1.094962   -0.347987   -0.000003
      4          8           0        0.000421   -1.160905   -0.000003
      5          6           0        1.095238   -0.347224   -0.000003
      6          1           0        1.373183    1.818573    0.000097
      7          1           0       -1.374517    1.817516   -0.000003
      8          1           0       -2.051088   -0.847720   -0.000003
      9          1           0        2.051812   -0.846191   -0.000003
 ---------------------------------------------------------------------

 SCF Done:  E(RB3LYP) =  -230.027371863     A.U. after    1 cycles

 The electronic state is 1-A.
 Alpha  occ. eigenvalues --  -19.21167 -10.23191 -10.23190 -10.18462 -10.18420
 Alpha  occ. eigenvalues --   -1.10344  -0.79278  -0.73937  -0.59287  -0.56509
 Alpha  occ. eigenvalues --   -0.53587  -0.44198  -0.44110  -0.40653  -0.39296
 Alpha  occ. eigenvalues --   -0.36655  -0.27388  -0.22497
 Alpha virt. eigenvalues --    0.01855   0.07705   0.11785   0.14104   0.15543
 Alpha virt. eigenvalues --    0.16678   0.19551   0.20484   0.31207   0.37687
 Alpha virt. eigenvalues --    0.43212   0.51290   0.53335   0.58070   0.58156

 Mulliken charges:
               1
     1  C   -0.131283
     2  C   -0.131247
     3  C    0.128691
     4  O   -0.405933
     5  C    0.128681
     6  H    0.094780
     7  H    0.094783
     8  H    0.110757
     9  H    0.110769
 Sum of Mulliken charges =   0.00000

 Dipole moment (field-independent basis, Debye):
    X=             -0.0003    Y=              0.6290    Z=              0.0001  Tot=              0.6290
 Quadrupole moment (field-independent basis, Debye-Ang):
   XX=            -23.7205   YY=            -27.6754   ZZ=            -30.9945
   XY=              0.0012   XZ=              0.0001   YZ=              0.0002

  Exact polarizability:  49.095   0.001  45.532   0.000   0.000  17.474
 Approx polarizability:  74.399  -0.003  79.841   0.000   0.000  25.779

                      1                      2                      3
                      A                      A                      A
 Frequencies --    614.2449               622.9897               727.7576
 Red. masses --      3.0763                 3.7890                 1.3145
 Frc consts  --      0.6839                 0.8664                 0.4102
 IR Inten    --      0.0000                17.2124                 0.0009

                      4                      5                      6
                      A                      A                      A
 Frequencies --    760.9198               838.8199               879.4733
 Red. masses --      1.2366                 1.2557                 1.2937
 Frc consts  --      0.4218                 0.5205                 0.5895
 IR Inten    --     77.9859                 0.3366                 0.0001

                      7                      8                      9
                      A                      A                      A
 Frequencies --    885.8151               890.0495              1022.5481
 Red. masses --      4.8999                 6.0204                 1.4668
 Frc consts  --      2.2653                 2.8100                 0.9036
 IR Inten    --     15.6789                 0.3771                37.6241

                     10                     11                     12
                      A                      A                      A
 Frequencies --   1071.0281              1098.1683              1172.5994
 Red. masses --      1.6006                 2.8678                 1.7979
 Frc consts  --      1.0817                 2.0377                 1.4565
 IR Inten    --      1.1302                11.8310                 0.3517

                     13                     14                     15
                      A                      A                      A
 Frequencies --   1220.0368              1295.9492              1430.0720
 Red. masses --      2.8421                 1.2621                 2.9767
 Frc consts  --      2.4925                 1.2489                 3.5867
 IR Inten    --     17.3933                 0.1726                 3.7347

                     16                     17                     18
                      A                      A                      A
 Frequencies --   1528.2259              1612.7032              3258.8795
 Red. masses --      3.4492                 4.5740                 1.0890
 Frc consts  --      4.7461                 7.0090                 6.8140
 IR Inten    --     18.4479                 0.5473                 2.8584

                     19                     20                     21
                      A                      A                      A
 Frequencies --   3269.6714              3293.3193              3299.6154
 Red. masses --      1.0943                 1.1006                 1.1086
 Frc consts  --      6.8927                 7.0333                 7.1112
 IR Inten    --      1.2843                 2.0327                 0.0043

 - Thermochemistry -
 -------------------
 Temperature   298.150 Kelvin.  Pressure   1.00000 Atm.
 Atom     1 has atomic number  6 and mass  12.00000

 Molecular mass:    68.02621 amu.
 Principal axes and moments of inertia in atomic units:
                           1         2         3
     Eigenvalues --   190.80055 195.03210 385.83265
           X           -0.00128   1.00000   0.00000
           Y            1.00000   0.00128   0.00000
           Z            0.00000   0.00000   1.00000
 This molecule is an asymmetric top.
 Rotational symmetry number  1.
 Rotational temperatures (Kelvin)      0.45395     0.44410     0.22449
 Rotational constants (GHZ):           9.45878     9.25356     4.67752
 Zero-point vibrational energy     184182.4 (Joules/Mol)
                                   44.02064 (Kcal/Mol)
 Warning -- explicit consideration of   1 degrees of freedom as
           vibrations may cause significant error
 Vibrational temperatures:    883.76   896.34  1047.08  1094.79  1206.87
          (Kelvin)           1265.36  1274.49  1280.58  1471.22  1540.97
                             1580.02  1687.11  1755.36  1864.58  2057.55
                             2198.77  2320.32  4688.79  4704.32  4738.35
                             4747.40

 Zero-point correction=                           0.070151 (Hartree/Particle)
 Thermal correction to Energy=                    0.073862
 Thermal correction to Enthalpy=                  0.074806
 Thermal correction to Gibbs Free Energy=         0.043881
 Sum of electronic and zero-point Energies=           -229.957221
 Sum of electronic and thermal Energies=              -229.953510
 Sum of electronic and thermal Enthalpies=            -229.952566
 Sum of electronic and thermal Free Energies=         -229.983491

                     E (Thermal)             CV                S
                      KCal/Mol        Cal/Mol-Kelvin    Cal/Mol-Kelvin
 Total                   46.349             13.312             65.087
 Electronic               0.000              0.000              0.000
 Translational            0.889              2.981             38.570
 Rotational               0.889              2.981             24.177
 Vibrational             44.572              7.350              2.340
 Vibration     1          0.974              1.002              0.426

 Optimization completed.
    -- Stationary point found.

 1\1\GINC-FN19\Freq\RB3LYP\6-31G(d,p)\C4H4O1\LIUJ201281\23-Jul-2021\0\\
 #P Geom=AllCheck Guess=TCheck SCRF=Check GenChk RB3LYP/6-31G(d,p) Freq
 \\Frag_39\\0,1\C,-0.7176,0.9597,0.\C,0.7177,0.9597,0.\C,1.0951,-0.3476
 ,0.\O,0.,-1.1609,0.\C,-1.0951,-0.3476,0.\H,-1.3738,1.8181,-0.0001\H,1.
 3739,1.818,0.\H,2.0514,-0.847,0.\H,-2.0515,-0.8469,0.\\Version=ES64L-G
 09RevD.01\State=1-A\HF=-230.0273719\RMSD=1.300e-09\RMSF=9.204e-05\Zero
 Point=0.0701514\Thermal=0.073862\Dipole=0.0000134,0.2474624,-0.0000268
 \DipoleDeriv=0.0362993,-0.0877563,0.000013,-0.0786024,-0.0676147,-0.00

 Normal termination of Gaussian 09 at Fri Jul 23 01:12:42 2021.
