 Gaussian 09, Revision D.01,
 Gaussian 09:  ES64L-G09RevD.01 24-Apr-2013

 -------------------------
 #P OPT Freq B3LYP/6-31G**
 -------------------------

 -------
 Frag_76
 -------
 Symbolic Z-matrix:
 Charge =  0 Multiplicity = 1

 SCF Done:  E(RB3LYP) =  -302.546071220     A.U. after   15 cycles
 Optimization completed.
    -- Stationary point found.
 Normal termination of Gaussian 09 at Fri Jul 23 19:35:35 2021.

 ----------------------------------------------------------------------
 #P Geom=AllCheck Guess=TCheck SCRF=Check GenChk RB3LYP/6-31G(d,p) Freq
 ----------------------------------------------------------------------

 Structure from the checkpoint file:  "/vol2/users/liuj201281/HOFBenchmark/IsodesmicSplit/Sample60/Ring26/Running/Gau-126005.chk"
 -------
 Frag_76
 -------
 Charge =  0 Multiplicity = 1

                         Standard orientation:
 ---------------------------------------------------------------------
 Center     Atomic      Atomic             Coordinates (Angstroms)
 Number     Number       Type             X           Y           Z
 ---------------------------------------------------------------------
      1          6           0        1.001980    1.487015   -0.000298
      2          6           0        0.656994    0.202411    0.000002
      3          6           0        1.605106   -0.960679    0.000502
      4          7           0       -0.809603   -0.097504   -0.000098
      5          7           0       -1.248691   -1.296309   -0.000198
      6          8           0       -1.577613    0.880988    0.000002
      7          1           0        0.240472    2.255607   -0.000598
      8          1           0        2.047177    1.773926   -0.000198
      9          1           0        1.482812   -1.592480    0.887902
     10          1           0        2.630902   -0.587568    0.000802
     11          1           0        1.483512   -1.592680   -0.886798
     12          1           0       -0.440384   -1.920500   -0.000298
 ---------------------------------------------------------------------

 SCF Done:  E(RB3LYP) =  -302.546071220     A.U. after    1 cycles

 The electronic state is 1-A.
 Alpha  occ. eigenvalues --  -19.14520 -14.52748 -14.35896 -10.25950 -10.22321
 Alpha  occ. eigenvalues --  -10.21458  -1.15767  -0.95467  -0.84157  -0.73063
 Alpha  occ. eigenvalues --   -0.68286  -0.59560  -0.52808  -0.49828  -0.48560
 Alpha  occ. eigenvalues --   -0.46063  -0.44456  -0.43319  -0.40232  -0.30540
 Alpha  occ. eigenvalues --   -0.29262  -0.26903  -0.25960
 Alpha virt. eigenvalues --   -0.06811   0.02633   0.06783   0.09299   0.14015
 Alpha virt. eigenvalues --    0.14707   0.15136   0.15966   0.18994   0.25507
 Alpha virt. eigenvalues --    0.30119   0.32026   0.35815   0.48646   0.49215

 Mulliken charges:
               1
     1  C   -0.248925
     2  C    0.292751
     3  C   -0.411608
     4  N    0.165369
     5  N   -0.302464
     6  O   -0.440536
     7  H    0.161527
     8  H    0.117537
     9  H    0.144275
    10  H    0.136443
    11  H    0.144272
    12  H    0.241359
 Sum of Mulliken charges =   0.00000

 Dipole moment (field-independent basis, Debye):
    X=              4.9968    Y=             -0.8021    Z=              0.0000  Tot=              5.0608
 Quadrupole moment (field-independent basis, Debye-Ang):
   XX=            -39.9962   YY=            -32.9845   ZZ=            -35.9824
   XY=             -0.3984   XZ=              0.0002   YZ=             -0.0010

  Exact polarizability:  53.547   4.136  70.012   0.001  -0.004  25.552
 Approx polarizability:  75.293   6.659 137.430  -0.001  -0.004  36.901

                      1                      2                      3
                      A                      A                      A
 Frequencies --     41.8049               244.9549               346.4986
 Red. masses --      4.0849                 1.0475                 3.4758
 Frc consts  --      0.0042                 0.0370                 0.2459
 IR Inten    --      2.4116                 0.5354                 3.7840

                      4                      5                      6
                      A                      A                      A
 Frequencies --    364.2884               424.5751               532.7716
 Red. masses --      3.4432                 2.6200                 4.2226
 Frc consts  --      0.2692                 0.2783                 0.7062
 IR Inten    --      3.3343                 2.2132                 4.0240

                      7                      8                      9
                      A                      A                      A
 Frequencies --    580.4205               615.0753               777.3288
 Red. masses --      4.0854                 1.7954                 1.1301
 Frc consts  --      0.8109                 0.4002                 0.4023
 IR Inten    --      1.6441                34.0097                37.0053

                     10                     11                     12
                      A                      A                      A
 Frequencies --    813.6583               822.0354               926.3979
 Red. masses --      1.8149                 6.6177                 1.8864
 Frc consts  --      0.7079                 2.6347                 0.9539
 IR Inten    --      0.3215                 7.9924                 3.7070

                     13                     14                     15
                      A                      A                      A
 Frequencies --    977.5319              1018.7190              1071.8282
 Red. masses --      1.3263                 1.4387                 1.4462
 Frc consts  --      0.7467                 0.8797                 0.9789
 IR Inten    --     36.6794                 6.7660                 0.2628

                     16                     17                     18
                      A                      A                      A
 Frequencies --   1235.4485              1265.4713              1403.7299
 Red. masses --      2.6235                 2.5332                 1.1478
 Frc consts  --      2.3593                 2.3901                 1.3325
 IR Inten    --      7.4060                51.4894                11.7117

                     19                     20                     21
                      A                      A                      A
 Frequencies --   1435.1924              1456.1188              1494.2849
 Red. masses --      1.3566                 2.3339                 1.0417
 Frc consts  --      1.6464                 2.9156                 1.3704
 IR Inten    --     19.7462               187.1867                 8.8580

                     22                     23                     24
                      A                      A                      A
 Frequencies --   1506.7314              1627.3573              1747.8325
 Red. masses --      1.0494                 4.4038                 5.9647
 Frc consts  --      1.4036                 6.8713                10.7359
 IR Inten    --     11.1244               111.6955                 0.2453

                     25                     26                     27
                      A                      A                      A
 Frequencies --   3040.0349              3097.5824              3144.3838
 Red. masses --      1.0393                 1.1020                 1.0983
 Frc consts  --      5.6591                 6.2298                 6.3982
 IR Inten    --      8.2349                10.1514                 6.6171

                     28                     29                     30
                      A                      A                      A
 Frequencies --   3190.7564              3294.8791              3487.4411
 Red. masses --      1.0616                 1.1168                 1.0725
 Frc consts  --      6.3678                 7.1432                 7.6855
 IR Inten    --      6.3271                 1.7580                 1.1547

 - Thermochemistry -
 -------------------
 Temperature   298.150 Kelvin.  Pressure   1.00000 Atm.
 Atom     1 has atomic number  6 and mass  12.00000

 Molecular mass:    86.04801 amu.
 Principal axes and moments of inertia in atomic units:
                           1         2         3
     Eigenvalues --   332.70229 485.13409 806.50107
           X            0.99947  -0.03267  -0.00010
           Y            0.03267   0.99947   0.00012
           Z            0.00010  -0.00012   1.00000
 This molecule is an asymmetric top.
 Rotational symmetry number  1.
 Rotational temperatures (Kelvin)      0.26033     0.17854     0.10739
 Rotational constants (GHZ):           5.42449     3.72009     2.23774
 Zero-point vibrational energy     251126.9 (Joules/Mol)
                                   60.02076 (Kcal/Mol)
 Warning -- explicit consideration of   8 degrees of freedom as
           vibrations may cause significant error
 Vibrational temperatures:     60.15   352.44   498.53   524.13   610.87
          (Kelvin)            766.54   835.09   884.96  1118.40  1170.67
                             1182.72  1332.88  1406.45  1465.71  1542.12
                             1777.53  1820.73  2019.65  2064.92  2095.03
                             2149.94  2167.85  2341.40  2514.74  4373.93
                             4456.72  4524.06  4590.78  4740.59  5017.64

 Zero-point correction=                           0.095649 (Hartree/Particle)
 Thermal correction to Energy=                    0.101793
 Thermal correction to Enthalpy=                  0.102737
 Thermal correction to Gibbs Free Energy=         0.065499
 Sum of electronic and zero-point Energies=           -302.450422
 Sum of electronic and thermal Energies=              -302.444278
 Sum of electronic and thermal Enthalpies=            -302.443334
 Sum of electronic and thermal Free Energies=         -302.480573

                     E (Thermal)             CV                S
                      KCal/Mol        Cal/Mol-Kelvin    Cal/Mol-Kelvin
 Total                   63.876             21.834             78.376
 Electronic               0.000              0.000              0.000
 Translational            0.889              2.981             39.270
 Rotational               0.889              2.981             26.368
 Vibrational             62.099             15.873             12.738
 Vibration     1          0.594              1.980              5.172
 Vibration     2          0.660              1.771              1.767
 Vibration     3          0.724              1.582              1.182
 Vibration     4          0.738              1.546              1.104
 Vibration     5          0.787              1.417              0.877
 Vibration     6          0.888              1.178              0.581
 Vibration     7          0.937              1.074              0.485
 Vibration     8          0.975              1.000              0.424

 Optimization completed.
    -- Stationary point found.
 Normal termination of Gaussian 09 at Fri Jul 23 19:35:48 2021.
