 Gaussian 09, Revision E.01,
 Gaussian 09:  ES64L-G09RevE.01 30-Nov-2015

 ----------------------------
 #P OPT Freq B3LYP/6-31G(d,p)
 ----------------------------

 --------
 Frag_966
 --------
 Symbolic Z-matrix:
 Charge =  0 Multiplicity = 1

 SCF Done:  E(RB3LYP) =  -226.383583594     A.U. after   12 cycles
 SCF Done:  E(RB3LYP) =  -226.423553279     A.U. after   11 cycles
 SCF Done:  E(RB3LYP) =  -226.432893356     A.U. after   12 cycles
 SCF Done:  E(RB3LYP) =  -226.438204594     A.U. after   12 cycles
 SCF Done:  E(RB3LYP) =  -226.438566460     A.U. after   10 cycles
 SCF Done:  E(RB3LYP) =  -226.438659261     A.U. after   10 cycles
 SCF Done:  E(RB3LYP) =  -226.438692335     A.U. after   10 cycles
 SCF Done:  E(RB3LYP) =  -226.438702621     A.U. after    9 cycles
 SCF Done:  E(RB3LYP) =  -226.438707411     A.U. after    9 cycles
 SCF Done:  E(RB3LYP) =  -226.438709033     A.U. after    8 cycles
 SCF Done:  E(RB3LYP) =  -226.444687721     A.U. after   10 cycles
 SCF Done:  E(RB3LYP) =  -226.445026012     A.U. after   11 cycles
 SCF Done:  E(RB3LYP) =  -226.445210154     A.U. after   10 cycles
 SCF Done:  E(RB3LYP) =  -226.445389307     A.U. after   10 cycles
 SCF Done:  E(RB3LYP) =  -226.445616606     A.U. after   10 cycles
 SCF Done:  E(RB3LYP) =  -226.445726175     A.U. after   10 cycles
 SCF Done:  E(RB3LYP) =  -226.445797494     A.U. after   10 cycles
 SCF Done:  E(RB3LYP) =  -226.445807055     A.U. after    8 cycles
 SCF Done:  E(RB3LYP) =  -226.445808135     A.U. after    7 cycles
 Optimization completed.
    -- Stationary point found.
 Normal termination of Gaussian 09 at Thu Sep  8 20:01:22 2022.

 ----------------------------------------------------------------------
 #P Geom=AllCheck Guess=TCheck SCRF=Check GenChk RB3LYP/6-31G(d,p) Freq
 ----------------------------------------------------------------------

 Structure from the checkpoint file:  "B3LYP6-31Gdp.Frag_966.chk"
 --------
 Frag_966
 --------
 Charge =  0 Multiplicity = 1

                         Standard orientation:
 ---------------------------------------------------------------------
 Center     Atomic      Atomic             Coordinates (Angstroms)
 Number     Number       Type             X           Y           Z
 ---------------------------------------------------------------------
      1          7           0       -1.207606    0.681513    0.079022
      2          6           0       -0.011217   -0.001675   -0.360029
      3          7           0        1.222202    0.640814    0.056096
      4          8           0       -0.006491   -1.331095    0.144982
      5          1           0       -2.023187    0.208960   -0.308098
      6          1           0       -1.280248    0.579797    1.091862
      7          1           0       -0.027200   -0.003405   -1.461022
      8          1           0        1.227489    0.710145    1.073531
      9          1           0        1.243550    1.591979   -0.305236
     10          1           0        0.876650   -1.684954   -0.036536
 ---------------------------------------------------------------------

 SCF Done:  E(RB3LYP) =  -226.445808135     A.U. after    1 cycles

 The electronic state is 1-A.
 Alpha  occ. eigenvalues --  -19.13917 -14.31754 -14.31463 -10.28176  -1.02854
 Alpha  occ. eigenvalues --   -0.89448  -0.84350  -0.62520  -0.52944  -0.49772
 Alpha  occ. eigenvalues --   -0.46952  -0.45423  -0.39890  -0.34667  -0.28032
 Alpha  occ. eigenvalues --   -0.26486  -0.24685
 Alpha virt. eigenvalues --    0.07876   0.10996   0.11796   0.13155   0.17082
 Alpha virt. eigenvalues --    0.17965   0.23066   0.27331   0.28301   0.55281
 Alpha virt. eigenvalues --    0.56681   0.62721   0.67767   0.70160   0.72464

 Mulliken charges:
               1
     1  N   -0.575610
     2  C    0.351886
     3  N   -0.592264
     4  O   -0.541238
     5  H    0.244822
     6  H    0.232416
     7  H    0.089863
     8  H    0.235243
     9  H    0.246568
    10  H    0.308315
 Sum of Mulliken charges =   0.00000

 Dipole moment (field-independent basis, Debye):
    X=              0.1145    Y=              0.2964    Z=              0.3226  Tot=              0.4528
 Quadrupole moment (field-independent basis, Debye-Ang):
   XX=            -24.3455   YY=            -25.6409   ZZ=            -22.3544
   XY=              0.3158   XZ=              0.4322   YZ=              1.5229

  Exact polarizability:  32.301  -0.060  29.192   0.482   0.299  28.466
 Approx polarizability:  41.460  -0.069  38.877   0.600  -0.457  39.231

                      1                      2                      3
                      A                      A                      A
 Frequencies --    258.7176               301.2676               397.1979
 Red. masses --      1.0745                 1.1232                 1.4070
 Frc consts  --      0.0424                 0.0601                 0.1308
 IR Inten    --     24.2734                30.5007                92.7573

                      4                      5                      6
                      A                      A                      A
 Frequencies --    443.0051               497.5779               582.8581
 Red. masses --      2.4610                 1.8548                 2.5157
 Frc consts  --      0.2846                 0.2706                 0.5035
 IR Inten    --     46.6700                56.7965                50.9393

                      7                      8                      9
                      A                      A                      A
 Frequencies --    894.9559               905.2566               937.9646
 Red. masses --      2.6173                 1.7371                 1.7876
 Frc consts  --      1.2351                 0.8387                 0.9266
 IR Inten    --     44.4224               194.0627                82.8796

                     10                     11                     12
                      A                      A                      A
 Frequencies --   1051.4809              1083.4340              1180.0531
 Red. masses --      1.9064                 1.7173                 1.4857
 Frc consts  --      1.2418                 1.1877                 1.2189
 IR Inten    --    148.7830                25.8859                85.3927

                     13                     14                     15
                      A                      A                      A
 Frequencies --   1301.7738              1338.7278              1410.5023
 Red. masses --      1.3233                 1.6337                 1.2796
 Frc consts  --      1.3212                 1.7250                 1.4999
 IR Inten    --     82.7807                22.7534                26.5925

                     16                     17                     18
                      A                      A                      A
 Frequencies --   1465.5619              1654.2366              1671.0127
 Red. masses --      1.3520                 1.1108                 1.1039
 Frc consts  --      1.7110                 1.7909                 1.8161
 IR Inten    --     56.7330                38.5097                30.1592

                     19                     20                     21
                      A                      A                      A
 Frequencies --   3006.2906              3465.8755              3476.0860
 Red. masses --      1.0857                 1.0499                 1.0504
 Frc consts  --      5.7811                 7.4304                 7.4777
 IR Inten    --     73.2622                 0.5656                 0.2692

                     22                     23                     24
                      A                      A                      A
 Frequencies --   3552.4401              3571.3821              3788.2488
 Red. masses --      1.0909                 1.0909                 1.0650
 Frc consts  --      8.1112                 8.1981                 9.0048
 IR Inten    --      0.1393                 0.4474                12.5708

 - Thermochemistry -
 -------------------
 Temperature   298.150 Kelvin.  Pressure   1.00000 Atm.
 Atom     1 has atomic number  7 and mass  14.00307

 Molecular mass:    62.04801 amu.
 Principal axes and moments of inertia in atomic units:
                           1         2         3
     Eigenvalues --   191.36417 206.00803 349.46825
           X            0.99875   0.04989   0.00395
           Y           -0.04997   0.99850   0.02253
           Z           -0.00282  -0.02270   0.99974
 This molecule is an asymmetric top.
 Rotational symmetry number  1.
 Rotational temperatures (Kelvin)      0.45261     0.42044     0.24784
 Rotational constants (GHZ):           9.43093     8.76054     5.16425
 Zero-point vibrational energy     228701.5 (Joules/Mol)
                                   54.66097 (Kcal/Mol)
 Warning -- explicit consideration of   6 degrees of freedom as
           vibrations may cause significant error
 Vibrational temperatures:    372.24   433.46   571.48   637.38   715.90
          (Kelvin)            838.60  1287.64  1302.46  1349.52  1512.84
                             1558.82  1697.83  1872.96  1926.13  2029.40
                             2108.61  2380.07  2404.21  4325.38  4986.62
                             5001.31  5111.16  5138.42  5450.44

 Zero-point correction=                           0.087108 (Hartree/Particle)
 Thermal correction to Energy=                    0.092079
 Thermal correction to Enthalpy=                  0.093023
 Thermal correction to Gibbs Free Energy=         0.060179
 Sum of electronic and zero-point Energies=           -226.358700
 Sum of electronic and thermal Energies=              -226.353729
 Sum of electronic and thermal Enthalpies=            -226.352785
 Sum of electronic and thermal Free Energies=         -226.385629

                     E (Thermal)             CV                S
                      KCal/Mol        Cal/Mol-Kelvin    Cal/Mol-Kelvin
 Total                   57.780             17.392             69.126
 Electronic               0.000              0.000              0.000
 Translational            0.889              2.981             38.295
 Rotational               0.889              2.981             24.136
 Vibrational             56.003             11.431              6.694
 Vibration     1          0.668              1.748              1.670
 Vibration     2          0.693              1.671              1.410
 Vibration     3          0.764              1.476              0.973
 Vibration     4          0.803              1.376              0.817
 Vibration     5          0.853              1.255              0.664
 Vibration     6          0.940              1.068              0.480

 Optimization completed.
    -- Stationary point found.
 Normal termination of Gaussian 09 at Thu Sep  8 20:01:28 2022.
