 Gaussian 09, Revision E.01,
 Gaussian 09:  ES64L-G09RevE.01 30-Nov-2015

 ----------------------------
 #P OPT Freq B3LYP/6-31G(d,p)
 ----------------------------

 --------
 Frag_639
 --------
 Symbolic Z-matrix:
 Charge =  0 Multiplicity = 1

 SCF Done:  E(RB3LYP) =  -229.958584444     A.U. after   15 cycles
 SCF Done:  E(RB3LYP) =  -229.958721571     A.U. after   12 cycles
 SCF Done:  E(RB3LYP) =  -229.957668219     A.U. after   13 cycles
 SCF Done:  E(RB3LYP) =  -229.958740237     A.U. after   10 cycles
 SCF Done:  E(RB3LYP) =  -229.958746782     A.U. after    9 cycles
 SCF Done:  E(RB3LYP) =  -229.958745597     A.U. after    9 cycles
 SCF Done:  E(RB3LYP) =  -229.958748287     A.U. after    9 cycles
 Optimization completed.
    -- Stationary point found.
 Normal termination of Gaussian 09 at Thu Sep  8 14:55:41 2022.

 ----------------------------------------------------------------------
 #P Geom=AllCheck Guess=TCheck SCRF=Check GenChk RB3LYP/6-31G(d,p) Freq
 ----------------------------------------------------------------------

 Structure from the checkpoint file:  "B3LYP6-31Gdp.Frag_639.chk"
 --------
 Frag_639
 --------
 Charge =  0 Multiplicity = 1

                         Standard orientation:
 ---------------------------------------------------------------------
 Center     Atomic      Atomic             Coordinates (Angstroms)
 Number     Number       Type             X           Y           Z
 ---------------------------------------------------------------------
      1          6           0        2.169701   -0.101996   -0.000004
      2          6           0        0.959225   -0.117618    0.000024
      3          6           0       -0.470557   -0.045865    0.000004
      4          6           0       -1.264805   -1.126053   -0.000005
      5          8           0       -1.015043    1.217346   -0.000006
      6          1           0        3.235274   -0.118610   -0.000061
      7          1           0       -2.342342   -1.013623   -0.000018
      8          1           0       -0.837922   -2.119296    0.000001
      9          1           0       -0.296044    1.861951    0.000012
 ---------------------------------------------------------------------

 SCF Done:  E(RB3LYP) =  -229.958748287     A.U. after    1 cycles

 The electronic state is 1-A.
 Alpha  occ. eigenvalues --  -19.17920 -10.26751 -10.20453 -10.20181 -10.17904
 Alpha  occ. eigenvalues --   -1.05948  -0.79222  -0.73913  -0.61956  -0.57453
 Alpha  occ. eigenvalues --   -0.52226  -0.45510  -0.40989  -0.40253  -0.37793
 Alpha  occ. eigenvalues --   -0.30099  -0.29102  -0.22574
 Alpha virt. eigenvalues --   -0.01793   0.02386   0.08430   0.11477   0.13235
 Alpha virt. eigenvalues --    0.15574   0.16927   0.24229   0.32054   0.35467
 Alpha virt. eigenvalues --    0.43879   0.50372   0.51121   0.52741   0.57668

 Mulliken charges:
               1
     1  C   -0.440725
     2  C    0.283082
     3  C    0.251695
     4  C   -0.280883
     5  O   -0.530981
     6  H    0.170530
     7  H    0.113642
     8  H    0.113801
     9  H    0.319839
 Sum of Mulliken charges =  -0.00000

 Dipole moment (field-independent basis, Debye):
    X=              1.6415    Y=              0.4398    Z=             -0.0000  Tot=              1.6994
 Quadrupole moment (field-independent basis, Debye-Ang):
   XX=            -24.7382   YY=            -25.6405   ZZ=            -30.9743
   XY=              2.1841   XZ=             -0.0002   YZ=              0.0001

  Exact polarizability:  69.591   9.429  41.488  -0.000   0.000  16.836
 Approx polarizability: 118.912  19.953  64.218  -0.001   0.000  23.113

                      1                      2                      3
                      A                      A                      A
 Frequencies --    187.0255               258.3482               285.4899
 Red. masses --      3.7384                 1.1492                 3.7318
 Frc consts  --      0.0770                 0.0452                 0.1792
 IR Inten    --      0.2340               105.9235                 2.2788

                      4                      5                      6
                      A                      A                      A
 Frequencies --    428.0714               582.0540               588.4368
 Red. masses --      2.7373                 1.4211                 5.9519
 Frc consts  --      0.2955                 0.2837                 1.2142
 IR Inten    --      1.6980                50.4901                10.1870

                      7                      8                      9
                      A                      A                      A
 Frequencies --    652.2343               672.9314               724.9358
 Red. masses --      3.4508                 1.2338                 1.0766
 Frc consts  --      0.8649                 0.3292                 0.3334
 IR Inten    --      1.4951                36.8748                 5.7097

                     10                     11                     12
                      A                      A                      A
 Frequencies --    816.6857               847.4450               978.7024
 Red. masses --      4.4875                 1.3944                 1.9049
 Frc consts  --      1.7635                 0.5900                 1.0750
 IR Inten    --     13.3970                60.2966                42.2338

                     13                     14                     15
                      A                      A                      A
 Frequencies --   1233.8552              1333.9422              1436.2489
 Red. masses --      1.4154                 3.0743                 1.1661
 Frc consts  --      1.2696                 3.2230                 1.4172
 IR Inten    --     25.7203               256.8777                 8.6201

                     16                     17                     18
                      A                      A                      A
 Frequencies --   1718.4264              2221.1888              3194.6474
 Red. masses --      5.0741                 6.1197                 1.0598
 Frc consts  --      8.8283                17.7889                 6.3726
 IR Inten    --     56.3303                 4.1329                 0.6233

                     19                     20                     21
                      A                      A                      A
 Frequencies --   3296.2924              3487.5751              3834.2869
 Red. masses --      1.1183                 1.1575                 1.0666
 Frc consts  --      7.1591                 8.2948                 9.2389
 IR Inten    --      1.7649                76.5320                60.3042

 - Thermochemistry -
 -------------------
 Temperature   298.150 Kelvin.  Pressure   1.00000 Atm.
 Atom     1 has atomic number  6 and mass  12.00000

 Molecular mass:    68.02621 amu.
 Principal axes and moments of inertia in atomic units:
                           1         2         3
     Eigenvalues --   171.91684 438.79803 610.71487
           X            0.99909   0.04270  -0.00000
           Y           -0.04270   0.99909   0.00000
           Z            0.00000  -0.00000   1.00000
 This molecule is an asymmetric top.
 Rotational symmetry number  1.
 Rotational temperatures (Kelvin)      0.50381     0.19739     0.14182
 Rotational constants (GHZ):          10.49776     4.11292     2.95513
 Zero-point vibrational energy     172135.6 (Joules/Mol)
                                   41.14139 (Kcal/Mol)
 Warning -- explicit consideration of   6 degrees of freedom as
           vibrations may cause significant error
 Vibrational temperatures:    269.09   371.70   410.76   615.90   837.44
          (Kelvin)            846.63   938.42   968.20  1043.02  1175.03
                             1219.28  1408.13  1775.24  1919.24  2066.44
                             2472.43  3195.79  4596.38  4742.62  5017.84
                             5516.68

 Zero-point correction=                           0.065563 (Hartree/Particle)
 Thermal correction to Energy=                    0.071083
 Thermal correction to Enthalpy=                  0.072027
 Thermal correction to Gibbs Free Energy=         0.037491
 Sum of electronic and zero-point Energies=           -229.893185
 Sum of electronic and thermal Energies=              -229.887665
 Sum of electronic and thermal Enthalpies=            -229.886721
 Sum of electronic and thermal Free Energies=         -229.921257

                     E (Thermal)             CV                S
                      KCal/Mol        Cal/Mol-Kelvin    Cal/Mol-Kelvin
 Total                   44.605             19.441             72.686
 Electronic               0.000              0.000              0.000
 Translational            0.889              2.981             38.570
 Rotational               0.889              2.981             25.336
 Vibrational             42.828             13.480              8.781
 Vibration     1          0.632              1.858              2.257
 Vibration     2          0.667              1.749              1.673
 Vibration     3          0.683              1.701              1.501
 Vibration     4          0.790              1.409              0.865
 Vibration     5          0.939              1.070              0.482
 Vibration     6          0.946              1.056              0.470

 Optimization completed.
    -- Stationary point found.
 Normal termination of Gaussian 09 at Thu Sep  8 14:55:48 2022.
