 Gaussian 09, Revision E.01,
 Gaussian 09:  ES64L-G09RevE.01 30-Nov-2015

 ----------------------------
 #P OPT Freq B3LYP/6-31G(d,p)
 ----------------------------

 --------
 Frag_576
 --------
 Symbolic Z-matrix:
 Charge =  0 Multiplicity = 1

 SCF Done:  E(RB3LYP) =  -248.487830713     A.U. after   13 cycles
 SCF Done:  E(RB3LYP) =  -248.487882565     A.U. after    9 cycles
 SCF Done:  E(RB3LYP) =  -248.487885148     A.U. after    8 cycles
 SCF Done:  E(RB3LYP) =  -248.487885655     A.U. after    8 cycles
 SCF Done:  E(RB3LYP) =  -248.487885830     A.U. after    7 cycles
 Optimization completed.
    -- Stationary point found.
 Normal termination of Gaussian 09 at Thu Sep  8 14:58:32 2022.

 ----------------------------------------------------------------------
 #P Geom=AllCheck Guess=TCheck SCRF=Check GenChk RB3LYP/6-31G(d,p) Freq
 ----------------------------------------------------------------------

 Structure from the checkpoint file:  "B3LYP6-31Gdp.Frag_576.chk"
 --------
 Frag_576
 --------
 Charge =  0 Multiplicity = 1

                         Standard orientation:
 ---------------------------------------------------------------------
 Center     Atomic      Atomic             Coordinates (Angstroms)
 Number     Number       Type             X           Y           Z
 ---------------------------------------------------------------------
      1          6           0        1.615026   -0.837314   -0.212096
      2          6           0        0.578594   -0.035424    0.082100
      3          7           0        0.627207    1.355628    0.162016
      4          6           0       -0.783121   -0.587869    0.438421
      5          8           0       -1.827138    0.037375   -0.315834
      6          1           0        2.602003   -0.445155   -0.438813
      7          1           0        1.502293   -1.914496   -0.189309
      8          1           0       -0.255732    1.789598   -0.080176
      9          1           0        1.411335    1.788139   -0.307681
     10          1           0       -0.789569   -1.677951    0.316053
     11          1           0       -1.016164   -0.359526    1.484131
     12          1           0       -1.690505   -0.205367   -1.242197
 ---------------------------------------------------------------------

 SCF Done:  E(RB3LYP) =  -248.487885830     A.U. after    1 cycles

 The electronic state is 1-A.
 Alpha  occ. eigenvalues --  -19.15292 -14.33090 -10.23475 -10.21665 -10.15807
 Alpha  occ. eigenvalues --   -1.02302  -0.90283  -0.74574  -0.67356  -0.56043
 Alpha  occ. eigenvalues --   -0.51443  -0.50751  -0.44648  -0.43026  -0.40725
 Alpha  occ. eigenvalues --   -0.38642  -0.33384  -0.32239  -0.27869  -0.20367
 Alpha virt. eigenvalues --    0.03397   0.07365   0.11076   0.13539   0.15078
 Alpha virt. eigenvalues --    0.15700   0.16787   0.21078   0.22009   0.25756
 Alpha virt. eigenvalues --    0.34533   0.38023   0.53442   0.53852   0.55427

 Mulliken charges:
               1
     1  C   -0.321845
     2  C    0.278214
     3  N   -0.628489
     4  C    0.005800
     5  O   -0.539174
     6  H    0.077602
     7  H    0.083953
     8  H    0.262794
     9  H    0.251555
    10  H    0.094853
    11  H    0.128407
    12  H    0.306330
 Sum of Mulliken charges =  -0.00000

 Dipole moment (field-independent basis, Debye):
    X=              0.3271    Y=              0.1349    Z=             -1.5552  Tot=              1.5949
 Quadrupole moment (field-independent basis, Debye-Ang):
   XX=            -33.4587   YY=            -27.8205   ZZ=            -29.9955
   XY=              2.2563   XZ=              0.0303   YZ=             -1.8294

  Exact polarizability:  50.538  -6.430  48.210  -4.374   1.311  29.104
 Approx polarizability:  71.035 -15.801  70.603  -7.671   5.087  41.217

                      1                      2                      3
                      A                      A                      A
 Frequencies --    111.9270               272.8785               372.1233
 Red. masses --      2.8649                 3.2428                 1.3330
 Frc consts  --      0.0211                 0.1423                 0.1088
 IR Inten    --      4.9699                 2.3338                50.1394

                      4                      5                      6
                      A                      A                      A
 Frequencies --    427.6664               439.7049               473.4268
 Red. masses --      1.8352                 1.2158                 1.6229
 Frc consts  --      0.1978                 0.1385                 0.2143
 IR Inten    --     15.6549                37.0719               128.1516

                      7                      8                      9
                      A                      A                      A
 Frequencies --    630.1850               668.7053               738.9060
 Red. masses --      2.9790                 1.1812                 1.2881
 Frc consts  --      0.6970                 0.3112                 0.4144
 IR Inten    --     28.7704               187.0170                33.6209

                     10                     11                     12
                      A                      A                      A
 Frequencies --    811.8188               876.4050               976.7353
 Red. masses --      1.4213                 3.1410                 1.4065
 Frc consts  --      0.5519                 1.4214                 0.7906
 IR Inten    --     70.7984                13.3014                26.8014

                     13                     14                     15
                      A                      A                      A
 Frequencies --    998.9266              1055.7585              1145.5949
 Red. masses --      1.7785                 5.1643                 1.4196
 Frc consts  --      1.0456                 3.3915                 1.0977
 IR Inten    --      8.0422                78.8713                10.7590

                     16                     17                     18
                      A                      A                      A
 Frequencies --   1204.8616              1366.1301              1378.9481
 Red. masses --      1.1160                 1.2343                 2.3380
 Frc consts  --      0.9546                 1.3572                 2.6193
 IR Inten    --     20.8680                 0.7744                21.8145

                     19                     20                     21
                      A                      A                      A
 Frequencies --   1418.4239              1464.5320              1505.3042
 Red. masses --      1.4265                 1.1687                 1.0865
 Frc consts  --      1.6909                 1.4769                 1.4505
 IR Inten    --     78.8717                 3.3340                 2.2540

                     22                     23                     24
                      A                      A                      A
 Frequencies --   1652.9135              1731.9127              3040.0279
 Red. masses --      1.1555                 5.1436                 1.0607
 Frc consts  --      1.8600                 9.0901                 5.7754
 IR Inten    --     47.4122               100.1967                39.2793

                     25                     26                     27
                      A                      A                      A
 Frequencies --   3094.2901              3164.7623              3253.9050
 Red. masses --      1.1051                 1.0609                 1.1150
 Frc consts  --      6.2343                 6.2606                 6.9557
 IR Inten    --     29.0074                 5.2300                13.9163

                     28                     29                     30
                      A                      A                      A
 Frequencies --   3550.5029              3661.4871              3798.3662
 Red. masses --      1.0474                 1.0978                 1.0663
 Frc consts  --      7.7792                 8.6715                 9.0637
 IR Inten    --     17.7500                15.6879                13.8907

 - Thermochemistry -
 -------------------
 Temperature   298.150 Kelvin.  Pressure   1.00000 Atm.
 Atom     1 has atomic number  6 and mass  12.00000

 Molecular mass:    73.05276 amu.
 Principal axes and moments of inertia in atomic units:
                           1         2         3
     Eigenvalues --   216.92783 451.15686 603.41846
           X            0.99990   0.00013  -0.01381
           Y           -0.00043   0.99976  -0.02187
           Z            0.01381   0.02187   0.99967
 This molecule is an asymmetric top.
 Rotational symmetry number  1.
 Rotational temperatures (Kelvin)      0.39927     0.19198     0.14354
 Rotational constants (GHZ):           8.31955     4.00025     2.99086
 Zero-point vibrational energy     270877.2 (Joules/Mol)
                                   64.74120 (Kcal/Mol)
 Warning -- explicit consideration of   6 degrees of freedom as
           vibrations may cause significant error
 Vibrational temperatures:    161.04   392.61   535.40   615.32   632.64
          (Kelvin)            681.15   906.69   962.12  1063.12  1168.02
                             1260.95  1405.30  1437.23  1519.00  1648.25
                             1733.52  1965.55  1984.00  2040.79  2107.13
                             2165.79  2378.17  2491.83  4373.92  4451.99
                             4553.38  4681.64  5108.38  5268.06  5464.99

 Zero-point correction=                           0.103172 (Hartree/Particle)
 Thermal correction to Energy=                    0.108994
 Thermal correction to Enthalpy=                  0.109938
 Thermal correction to Gibbs Free Energy=         0.074547
 Sum of electronic and zero-point Energies=           -248.384714
 Sum of electronic and thermal Energies=              -248.378892
 Sum of electronic and thermal Enthalpies=            -248.377947
 Sum of electronic and thermal Free Energies=         -248.413339

                     E (Thermal)             CV                S
                      KCal/Mol        Cal/Mol-Kelvin    Cal/Mol-Kelvin
 Total                   68.395             21.150             74.487
 Electronic               0.000              0.000              0.000
 Translational            0.889              2.981             38.782
 Rotational               0.889              2.981             25.582
 Vibrational             66.617             15.188             10.123
 Vibration     1          0.607              1.940              3.235
 Vibration     2          0.676              1.723              1.578
 Vibration     3          0.744              1.529              1.071
 Vibration     4          0.789              1.410              0.866
 Vibration     5          0.800              1.384              0.828
 Vibration     6          0.830              1.309              0.728

 Optimization completed.
    -- Stationary point found.
 Normal termination of Gaussian 09 at Thu Sep  8 14:58:41 2022.
