 Gaussian 09, Revision E.01,
 Gaussian 09:  ES64L-G09RevE.01 30-Nov-2015

 --------------------------------
 #P OPT=calcfc Freq B3LYP/6-31G**
 --------------------------------

 --------
 Frag_164
 --------
 Symbolic Z-matrix:
 Charge =  0 Multiplicity = 1

 SCF Done:  E(RB3LYP) =  -244.663005325     A.U. after   13 cycles
 SCF Done:  E(RB3LYP) =  -244.682717278     A.U. after   13 cycles
 SCF Done:  E(RB3LYP) =  -244.681004409     A.U. after   13 cycles
 SCF Done:  E(RB3LYP) =  -244.682985396     A.U. after   11 cycles
 SCF Done:  E(RB3LYP) =  -244.683107200     A.U. after   13 cycles
 SCF Done:  E(RB3LYP) =  -244.684590489     A.U. after   12 cycles
 SCF Done:  E(RB3LYP) =  -244.685048390     A.U. after   11 cycles
 SCF Done:  E(RB3LYP) =  -244.685019782     A.U. after   11 cycles
 SCF Done:  E(RB3LYP) =  -244.685201598     A.U. after    9 cycles
 SCF Done:  E(RB3LYP) =  -244.685150460     A.U. after   12 cycles
 SCF Done:  E(RB3LYP) =  -244.685271497     A.U. after   11 cycles
 SCF Done:  E(RB3LYP) =  -244.685281504     A.U. after   10 cycles
 SCF Done:  E(RB3LYP) =  -244.685280960     A.U. after   10 cycles
 SCF Done:  E(RB3LYP) =  -244.685286112     A.U. after   10 cycles
 SCF Done:  E(RB3LYP) =  -244.685286718     A.U. after    8 cycles
 SCF Done:  E(RB3LYP) =  -244.685286788     A.U. after    7 cycles
 Optimization completed.
    -- Stationary point found.
 Normal termination of Gaussian 09 at Sat Aug 21 02:19:44 2021.

 ----------------------------------------------------------------------
 #P Geom=AllCheck Guess=TCheck SCRF=Check GenChk RB3LYP/6-31G(d,p) Freq
 ----------------------------------------------------------------------

 Structure from the checkpoint file:  "/public/home/users/caep010/.cache/gau_scr/Gau-204801.chk"
 --------
 Frag_164
 --------
 Charge =  0 Multiplicity = 1

                         Standard orientation:
 ---------------------------------------------------------------------
 Center     Atomic      Atomic             Coordinates (Angstroms)
 Number     Number       Type             X           Y           Z
 ---------------------------------------------------------------------
      1          6           0       -1.896200   -0.002002   -0.012568
      2          7           0       -0.622323   -0.695276   -0.032162
      3          6           0        0.618065   -0.073692    0.000110
      4          7           0        1.764075   -0.657133    0.020626
      5          7           0        0.564926    1.321025   -0.078675
      6          1           0       -1.884860    0.808719   -0.745284
      7          1           0       -2.686721   -0.701105   -0.297210
      8          1           0       -2.162163    0.420855    0.970307
      9          1           0       -0.620799   -1.652433    0.283631
     10          1           0        1.658641   -1.668606   -0.071825
     11          1           0       -0.082042    1.766633    0.560726
     12          1           0        1.500004    1.699787    0.005882
 ---------------------------------------------------------------------

 SCF Done:  E(RB3LYP) =  -244.685286788     A.U. after    1 cycles

 The electronic state is 1-A.
 Alpha  occ. eigenvalues --  -14.34813 -14.33329 -14.26820 -10.27048 -10.22430
 Alpha  occ. eigenvalues --   -0.96663  -0.87786  -0.82927  -0.69531  -0.59584
 Alpha  occ. eigenvalues --   -0.53694  -0.48270  -0.46277  -0.44126  -0.43022
 Alpha  occ. eigenvalues --   -0.39782  -0.35999  -0.25927  -0.24664  -0.20953
 Alpha virt. eigenvalues --    0.06181   0.07585   0.09925   0.13294   0.14582
 Alpha virt. eigenvalues --    0.15190   0.16638   0.18039   0.20350   0.29380
 Alpha virt. eigenvalues --    0.34987   0.43313   0.52821   0.53776   0.55331

 Mulliken charges:
               1
     1  C   -0.180639
     2  N   -0.528524
     3  C    0.586025
     4  N   -0.601875
     5  N   -0.615621
     6  H    0.144234
     7  H    0.118072
     8  H    0.100562
     9  H    0.253048
    10  H    0.198385
    11  H    0.252885
    12  H    0.273447
 Sum of Mulliken charges =  -0.00000

 Dipole moment (field-independent basis, Debye):
    X=             -3.2615    Y=              0.0545    Z=              1.3057  Tot=              3.5136
 Quadrupole moment (field-independent basis, Debye-Ang):
   XX=            -34.2213   YY=            -24.3957   ZZ=            -32.5930
   XY=              2.1288   XZ=             -0.3851   YZ=              1.3831

  Exact polarizability:  54.983  -3.606  46.455  -1.164   0.621  25.350
 Approx polarizability:  77.277  -8.089  65.252  -1.168   0.087  35.259

                      1                      2                      3
                      A                      A                      A
 Frequencies --     90.3732               160.5054               288.2241
 Red. masses --      3.5665                 1.1006                 2.3695
 Frc consts  --      0.0172                 0.0167                 0.1160
 IR Inten    --      4.5635                 1.2324                 8.7791

                      4                      5                      6
                      A                      A                      A
 Frequencies --    367.9312               405.9273               520.8723
 Red. masses --      1.2358                 1.0630                 3.2075
 Frc consts  --      0.0986                 0.1032                 0.5127
 IR Inten    --     79.6128                57.2357                10.2323

                      7                      8                      9
                      A                      A                      A
 Frequencies --    577.1640               619.1346               752.9373
 Red. masses --      2.8536                 1.6283                 2.0211
 Frc consts  --      0.5601                 0.3678                 0.6751
 IR Inten    --      6.9389               132.7234               171.8394

                     10                     11                     12
                      A                      A                      A
 Frequencies --    811.1756               884.5303              1083.5420
 Red. masses --      1.4547                 3.1463                 1.7285
 Frc consts  --      0.5640                 1.4504                 1.1957
 IR Inten    --     46.0338                10.0473                59.5537

                     13                     14                     15
                      A                      A                      A
 Frequencies --   1145.8174              1162.7281              1174.7056
 Red. masses --      1.2809                 1.4584                 1.4225
 Frc consts  --      0.9908                 1.1616                 1.1566
 IR Inten    --     44.8655                53.7158                 4.5795

                     16                     17                     18
                      A                      A                      A
 Frequencies --   1206.6727              1432.7846              1468.6437
 Red. masses --      2.2021                 1.5899                 1.5338
 Frc consts  --      1.8892                 1.9230                 1.9492
 IR Inten    --      4.0197               101.2225                22.3583

                     19                     20                     21
                      A                      A                      A
 Frequencies --   1493.4810              1514.1533              1538.5220
 Red. masses --      1.3423                 1.2066                 1.0941
 Frc consts  --      1.7640                 1.6299                 1.5258
 IR Inten    --     65.6665                10.0340                33.2066

                     22                     23                     24
                      A                      A                      A
 Frequencies --   1632.8970              1742.4540              2977.3836
 Red. masses --      1.2622                 4.2198                 1.0589
 Frc consts  --      1.9829                 7.5485                 5.5304
 IR Inten    --    126.2117               328.6587                86.7934

                     25                     26                     27
                      A                      A                      A
 Frequencies --   3091.9252              3138.5768              3486.0042
 Red. masses --      1.0756                 1.1041                 1.0749
 Frc consts  --      6.0585                 6.4078                 7.6965
 IR Inten    --     28.6533                14.0534                 7.7174

                     28                     29                     30
                      A                      A                      A
 Frequencies --   3550.5635              3656.1912              3661.7558
 Red. masses --      1.0482                 1.0767                 1.0968
 Frc consts  --      7.7855                 8.4804                 8.6651
 IR Inten    --     10.0047                18.8761                16.3968

 - Thermochemistry -
 -------------------
 Temperature   298.150 Kelvin.  Pressure   1.00000 Atm.
 Atom     1 has atomic number  6 and mass  12.00000

 Molecular mass:    73.06400 amu.
 Principal axes and moments of inertia in atomic units:
                           1         2         3
     Eigenvalues --   186.99085 442.98830 615.02835
           X            1.00000   0.00106  -0.00221
           Y           -0.00103   0.99990   0.01385
           Z            0.00223  -0.01385   0.99990
 This molecule is an asymmetric top.
 Rotational symmetry number  1.
 Rotational temperatures (Kelvin)      0.46320     0.19552     0.14083
 Rotational constants (GHZ):           9.65149     4.07402     2.93440
 Zero-point vibrational energy     272973.3 (Joules/Mol)
                                   65.24219 (Kcal/Mol)
 Warning -- explicit consideration of   8 degrees of freedom as
           vibrations may cause significant error
 Vibrational temperatures:    130.03   230.93   414.69   529.37   584.04
          (Kelvin)            749.42   830.41   890.80  1083.31  1167.10
                             1272.64  1558.97  1648.57  1672.90  1690.14
                             1736.13  2061.45  2113.05  2148.78  2178.53
                             2213.59  2349.37  2507.00  4283.79  4448.59
                             4515.71  5015.58  5108.46  5260.44  5268.44

 Zero-point correction=                           0.103970 (Hartree/Particle)
 Thermal correction to Energy=                    0.110151
 Thermal correction to Enthalpy=                  0.111096
 Thermal correction to Gibbs Free Energy=         0.074811
 Sum of electronic and zero-point Energies=           -244.581317
 Sum of electronic and thermal Energies=              -244.575135
 Sum of electronic and thermal Enthalpies=            -244.574191
 Sum of electronic and thermal Free Energies=         -244.610475

                     E (Thermal)             CV                S
                      KCal/Mol        Cal/Mol-Kelvin    Cal/Mol-Kelvin
 Total                   69.121             21.321             76.366
 Electronic               0.000              0.000              0.000
 Translational            0.889              2.981             38.783
 Rotational               0.889              2.981             25.436
 Vibrational             67.344             15.360             12.148
 Vibration     1          0.602              1.956              3.652
 Vibration     2          0.622              1.891              2.544
 Vibration     3          0.685              1.696              1.484
 Vibration     4          0.741              1.538              1.088
 Vibration     5          0.771              1.457              0.941
 Vibration     6          0.876              1.204              0.608
 Vibration     7          0.934              1.081              0.491
 Vibration     8          0.979              0.991              0.418

 Optimization completed.
    -- Stationary point found.
 Normal termination of Gaussian 09 at Sat Aug 21 02:19:53 2021.
