 Gaussian 09, Revision E.01,
 Gaussian 09:  ES64L-G09RevE.01 30-Nov-2015

 ----------------------------
 #P OPT Freq B3LYP/6-31G(d,p)
 ----------------------------

 --------
 Frag_445
 --------
 Symbolic Z-matrix:
 Charge =  0 Multiplicity = 1

 SCF Done:  E(RB3LYP) =  -247.282977563     A.U. after   14 cycles
 SCF Done:  E(RB3LYP) =  -247.283074086     A.U. after    9 cycles
 SCF Done:  E(RB3LYP) =  -247.283078214     A.U. after    9 cycles
 SCF Done:  E(RB3LYP) =  -247.283050395     A.U. after   10 cycles
 SCF Done:  E(RB3LYP) =  -247.283078782     A.U. after   10 cycles
 Optimization completed.
    -- Stationary point found.
 Normal termination of Gaussian 09 at Thu Sep  8 15:05:57 2022.

 ----------------------------------------------------------------------
 #P Geom=AllCheck Guess=TCheck SCRF=Check GenChk RB3LYP/6-31G(d,p) Freq
 ----------------------------------------------------------------------

 Structure from the checkpoint file:  "B3LYP6-31Gdp.Frag_445.chk"
 --------
 Frag_445
 --------
 Charge =  0 Multiplicity = 1

                         Standard orientation:
 ---------------------------------------------------------------------
 Center     Atomic      Atomic             Coordinates (Angstroms)
 Number     Number       Type             X           Y           Z
 ---------------------------------------------------------------------
      1          6           0        0.740963    1.341376    0.000008
      2          6           0        0.502100   -0.144171   -0.000035
      3          7           0        1.361285   -1.090551   -0.000013
      4          6           0       -0.933679   -0.600840    0.000021
      5          8           0       -1.875703    0.162999   -0.000028
      6          1           0        1.808934    1.572558   -0.000689
      7          1           0        0.271499    1.799488    0.876524
      8          1           0        0.270224    1.799772   -0.875663
      9          1           0        2.316950   -0.716789   -0.000008
     10          1           0       -1.047285   -1.703354    0.000183
 ---------------------------------------------------------------------

 SCF Done:  E(RB3LYP) =  -247.283078782     A.U. after    1 cycles

 The electronic state is 1-A.
 Alpha  occ. eigenvalues --  -19.16440 -14.34711 -10.28329 -10.25506 -10.20352
 Alpha  occ. eigenvalues --   -1.05779  -0.92754  -0.74947  -0.67354  -0.54551
 Alpha  occ. eigenvalues --   -0.50162  -0.46329  -0.44878  -0.43616  -0.40542
 Alpha  occ. eigenvalues --   -0.39519  -0.32590  -0.29710  -0.26096
 Alpha virt. eigenvalues --   -0.07600   0.04404   0.08465   0.12196   0.13495
 Alpha virt. eigenvalues --    0.16211   0.16928   0.23401   0.26545   0.31005
 Alpha virt. eigenvalues --    0.38380   0.51139   0.52535   0.54548   0.55254

 Mulliken charges:
               1
     1  C   -0.358562
     2  C    0.219612
     3  N   -0.493688
     4  C    0.290597
     5  O   -0.391371
     6  H    0.111559
     7  H    0.146942
     8  H    0.146946
     9  H    0.234548
    10  H    0.093417
 Sum of Mulliken charges =  -0.00000

 Dipole moment (field-independent basis, Debye):
    X=              2.2027    Y=              1.1155    Z=              0.0003  Tot=              2.4690
 Quadrupole moment (field-independent basis, Debye-Ang):
   XX=            -31.2005   YY=            -30.7942   ZZ=            -28.7780
   XY=              3.7378   XZ=              0.0000   YZ=              0.0001

  Exact polarizability:  50.988  -5.778  44.411  -0.001  -0.000  23.287
 Approx polarizability:  80.532 -22.204  67.818  -0.001   0.000  33.603

                      1                      2                      3
                      A                      A                      A
 Frequencies --     84.2343               164.1063               259.5156
 Red. masses --      1.0844                 2.7832                 3.9550
 Frc consts  --      0.0045                 0.0442                 0.1569
 IR Inten    --      2.0067                 5.7609                13.5004

                      4                      5                      6
                      A                      A                      A
 Frequencies --    457.7737               466.6699               607.7829
 Red. masses --      2.2610                 3.1263                 4.6616
 Frc consts  --      0.2792                 0.4011                 1.0146
 IR Inten    --      1.3125                17.7771                 5.5772

                      7                      8                      9
                      A                      A                      A
 Frequencies --    811.1095               846.8508              1025.1161
 Red. masses --      3.6970                 1.1520                 1.7185
 Frc consts  --      1.4330                 0.4868                 1.0640
 IR Inten    --     15.4253                31.1123                11.3600

                     10                     11                     12
                      A                      A                      A
 Frequencies --   1053.4764              1087.5233              1119.2983
 Red. masses --      1.5544                 1.6199                 1.6313
 Frc consts  --      1.0164                 1.1288                 1.2041
 IR Inten    --     17.2309                16.8544                32.4468

                     13                     14                     15
                      A                      A                      A
 Frequencies --   1370.5427              1392.8615              1422.5239
 Red. masses --      1.2901                 1.4884                 1.5273
 Frc consts  --      1.4277                 1.7013                 1.8210
 IR Inten    --     25.2415                17.5698                37.4886

                     16                     17                     18
                      A                      A                      A
 Frequencies --   1476.6991              1486.3829              1723.1804
 Red. masses --      1.0453                 1.0768                 8.4071
 Frc consts  --      1.3430                 1.4017                14.7081
 IR Inten    --      7.1088                26.1569                28.7301

                     19                     20                     21
                      A                      A                      A
 Frequencies --   1813.6389              2965.6769              3053.4415
 Red. masses --     10.4190                 1.0882                 1.0352
 Frc consts  --     20.1920                 5.6388                 5.6865
 IR Inten    --    130.1596                76.4798                 3.9264

                     22                     23                     24
                      A                      A                      A
 Frequencies --   3120.0798              3143.6178              3429.1607
 Red. masses --      1.0996                 1.1052                 1.0749
 Frc consts  --      6.3067                 6.4351                 7.4471
 IR Inten    --      4.8585                11.1797                 1.9825

 - Thermochemistry -
 -------------------
 Temperature   298.150 Kelvin.  Pressure   1.00000 Atm.
 Atom     1 has atomic number  6 and mass  12.00000

 Molecular mass:    71.03711 amu.
 Principal axes and moments of inertia in atomic units:
                           1         2         3
     Eigenvalues --   203.07426 406.79989 598.82461
           X            0.99746   0.07122  -0.00000
           Y           -0.07122   0.99746  -0.00000
           Z            0.00000   0.00000   1.00000
 This molecule is an asymmetric top.
 Rotational symmetry number  1.
 Rotational temperatures (Kelvin)      0.42651     0.21292     0.14464
 Rotational constants (GHZ):           8.88710     4.43643     3.01381
 Zero-point vibrational energy     205645.6 (Joules/Mol)
                                   49.15048 (Kcal/Mol)
 Warning -- explicit consideration of   6 degrees of freedom as
           vibrations may cause significant error
 Vibrational temperatures:    121.19   236.11   373.38   658.63   671.43
          (Kelvin)            874.46  1167.00  1218.43  1474.91  1515.72
                             1564.70  1610.42  1971.90  2004.01  2046.69
                             2124.64  2138.57  2479.27  2609.42  4266.94
                             4393.22  4489.09  4522.96  4933.79

 Zero-point correction=                           0.078326 (Hartree/Particle)
 Thermal correction to Energy=                    0.083970
 Thermal correction to Enthalpy=                  0.084914
 Thermal correction to Gibbs Free Energy=         0.049393
 Sum of electronic and zero-point Energies=           -247.204753
 Sum of electronic and thermal Energies=              -247.199109
 Sum of electronic and thermal Enthalpies=            -247.198165
 Sum of electronic and thermal Free Energies=         -247.233686

                     E (Thermal)             CV                S
                      KCal/Mol        Cal/Mol-Kelvin    Cal/Mol-Kelvin
 Total                   52.692             18.216             74.760
 Electronic               0.000              0.000              0.000
 Translational            0.889              2.981             38.699
 Rotational               0.889              2.981             25.406
 Vibrational             50.914             12.254             10.655
 Vibration     1          0.601              1.960              3.790
 Vibration     2          0.623              1.887              2.502
 Vibration     3          0.668              1.747              1.665
 Vibration     4          0.816              1.344              0.773
 Vibration     5          0.824              1.324              0.747
 Vibration     6          0.967              1.015              0.436

 Optimization completed.
    -- Stationary point found.
 Normal termination of Gaussian 09 at Thu Sep  8 15:06:04 2022.
