 Gaussian 09, Revision E.01,
 Gaussian 09:  ES64L-G09RevE.01 30-Nov-2015

 ----------------------------
 #P OPT Freq B3LYP/6-31G(d,p)
 ----------------------------

 --------
 Frag_975
 --------
 Symbolic Z-matrix:
 Charge =  0 Multiplicity = 1

 SCF Done:  E(RB3LYP) =  -169.896940460     A.U. after   13 cycles
 SCF Done:  E(RB3LYP) =  -169.897023268     A.U. after    9 cycles
 SCF Done:  E(RB3LYP) =  -169.897026965     A.U. after    8 cycles
 Optimization completed.
    -- Stationary point found.
 Normal termination of Gaussian 09 at Thu Sep  8 15:15:06 2022.

 ----------------------------------------------------------------------
 #P Geom=AllCheck Guess=TCheck SCRF=Check GenChk RB3LYP/6-31G(d,p) Freq
 ----------------------------------------------------------------------

 Structure from the checkpoint file:  "B3LYP6-31Gdp.Frag_975.chk"
 --------
 Frag_975
 --------
 Charge =  0 Multiplicity = 1

                         Standard orientation:
 ---------------------------------------------------------------------
 Center     Atomic      Atomic             Coordinates (Angstroms)
 Number     Number       Type             X           Y           Z
 ---------------------------------------------------------------------
      1          7           0       -1.085559   -0.158818   -0.000006
      2          6           0        0.161509    0.387981   -0.000071
      3          8           0        1.199524   -0.245408    0.000026
      4          1           0       -1.180477   -1.163808    0.000018
      5          1           0       -1.913772    0.414423    0.000117
      6          1           0        0.127916    1.496493    0.000123
 ---------------------------------------------------------------------

 SCF Done:  E(RB3LYP) =  -169.897026965     A.U. after    1 cycles

 The electronic state is 1-A.
 Alpha  occ. eigenvalues --  -19.11714 -14.36547 -10.28959  -1.03163  -0.90901
 Alpha  occ. eigenvalues --   -0.62619  -0.55608  -0.47833  -0.40960  -0.40119
 Alpha  occ. eigenvalues --   -0.27293  -0.25461
 Alpha virt. eigenvalues --    0.02854   0.07325   0.10938   0.16399   0.26737
 Alpha virt. eigenvalues --    0.34172   0.53518   0.54409   0.64464   0.67311
 Alpha virt. eigenvalues --    0.68987   0.71134   0.82621   0.83794   0.84493

 Mulliken charges:
               1
     1  N   -0.569393
     2  C    0.408013
     3  O   -0.454943
     4  H    0.279956
     5  H    0.271371
     6  H    0.064996
 Sum of Mulliken charges =  -0.00000

 Dipole moment (field-independent basis, Debye):
    X=             -3.7476    Y=              0.7364    Z=              0.0001  Tot=              3.8193
 Quadrupole moment (field-independent basis, Debye-Ang):
   XX=            -17.2726   YY=            -15.0567   ZZ=            -18.3462
   XY=              1.0842   XZ=             -0.0006   YZ=              0.0001

  Exact polarizability:  28.632  -0.769  21.842  -0.000   0.001   9.886
 Approx polarizability:  46.881  -4.711  29.318   0.001   0.000  13.312

                      1                      2                      3
                      A                      A                      A
 Frequencies --    162.3593               563.0745               649.9743
 Red. masses --      1.2244                 2.4130                 1.2094
 Frc consts  --      0.0190                 0.4507                 0.3010
 IR Inten    --    248.3133                11.4509                20.7822

                      4                      5                      6
                      A                      A                      A
 Frequencies --   1047.2655              1054.3213              1274.4526
 Red. masses --      1.5408                 1.7570                 2.7987
 Frc consts  --      0.9957                 1.1507                 2.6783
 IR Inten    --      0.0967                 2.5960                95.0243

                      7                      8                      9
                      A                      A                      A
 Frequencies --   1432.4495              1621.0026              1836.8964
 Red. masses --      1.2060                 1.2506                 7.4276
 Frc consts  --      1.4580                 1.9361                14.7662
 IR Inten    --      5.1447                68.1136               351.7527

                     10                     11                     12
                      A                      A                      A
 Frequencies --   2949.2960              3596.2716              3740.7689
 Red. masses --      1.0858                 1.0452                 1.1053
 Frc consts  --      5.5647                 7.9645                 9.1128
 IR Inten    --    110.0398                30.8291                36.6428

 - Thermochemistry -
 -------------------
 Temperature   298.150 Kelvin.  Pressure   1.00000 Atm.
 Atom     1 has atomic number  7 and mass  14.00307

 Molecular mass:    45.02146 amu.
 Principal axes and moments of inertia in atomic units:
                           1         2         3
     Eigenvalues --    24.61282 159.85405 184.46687
           X            0.99982   0.01891  -0.00000
           Y           -0.01891   0.99982   0.00003
           Z            0.00001  -0.00003   1.00000
 This molecule is an asymmetric top.
 Rotational symmetry number  1.
 Rotational temperatures (Kelvin)      3.51905     0.54183     0.46954
 Rotational constants (GHZ):          73.32526    11.28993     9.78355
 Zero-point vibrational energy     119196.7 (Joules/Mol)
                                   28.48870 (Kcal/Mol)
 Warning -- explicit consideration of   2 degrees of freedom as
           vibrations may cause significant error
 Vibrational temperatures:    233.60   810.14   935.17  1506.78  1516.93
          (Kelvin)           1833.65  2060.97  2332.26  2642.88  4243.37
                             5174.23  5382.13

 Zero-point correction=                           0.045400 (Hartree/Particle)
 Thermal correction to Energy=                    0.049254
 Thermal correction to Enthalpy=                  0.050198
 Thermal correction to Gibbs Free Energy=         0.020659
 Sum of electronic and zero-point Energies=           -169.851627
 Sum of electronic and thermal Energies=              -169.847773
 Sum of electronic and thermal Enthalpies=            -169.846829
 Sum of electronic and thermal Free Energies=         -169.876368

                     E (Thermal)             CV                S
                      KCal/Mol        Cal/Mol-Kelvin    Cal/Mol-Kelvin
 Total                   30.907             10.866             62.170
 Electronic               0.000              0.000              0.000
 Translational            0.889              2.981             37.339
 Rotational               0.889              2.981             21.212
 Vibrational             29.130              4.904              3.619
 Vibration     1          0.622              1.889              2.522
 Vibration     2          0.919              1.111              0.518

 Optimization completed.
    -- Stationary point found.
 Normal termination of Gaussian 09 at Thu Sep  8 15:15:11 2022.
