 Gaussian 09, Revision E.01,
 Gaussian 09:  ES64L-G09RevE.01 30-Nov-2015

 ----------------------------
 #P OPT Freq B3LYP/6-31G(d,p)
 ----------------------------

 ---------
 Frag_1053
 ---------
 Symbolic Z-matrix:
 Charge =  0 Multiplicity = 1

 SCF Done:  E(RB3LYP) =  -305.481793300     A.U. after   12 cycles
 SCF Done:  E(RB3LYP) =  -305.481844879     A.U. after    9 cycles
 SCF Done:  E(RB3LYP) =  -305.481854218     A.U. after    8 cycles
 SCF Done:  E(RB3LYP) =  -305.481860018     A.U. after    8 cycles
 SCF Done:  E(RB3LYP) =  -305.481870531     A.U. after    9 cycles
 SCF Done:  E(RB3LYP) =  -305.481885176     A.U. after   10 cycles
 SCF Done:  E(RB3LYP) =  -305.481920624     A.U. after   10 cycles
 SCF Done:  E(RB3LYP) =  -305.483234565     A.U. after   13 cycles
 SCF Done:  E(RB3LYP) =  -305.486705748     A.U. after   13 cycles
 SCF Done:  E(RB3LYP) =  -305.487406512     A.U. after   13 cycles
 SCF Done:  E(RB3LYP) =  -305.487736159     A.U. after   10 cycles
 SCF Done:  E(RB3LYP) =  -305.487951521     A.U. after    7 cycles
 SCF Done:  E(RB3LYP) =  -305.488014532     A.U. after   10 cycles
 SCF Done:  E(RB3LYP) =  -305.488065972     A.U. after   10 cycles
 SCF Done:  E(RB3LYP) =  -305.488084257     A.U. after    9 cycles
 SCF Done:  E(RB3LYP) =  -305.488102474     A.U. after   10 cycles
 SCF Done:  E(RB3LYP) =  -305.488108238     A.U. after    8 cycles
 SCF Done:  E(RB3LYP) =  -305.488110183     A.U. after    8 cycles
 SCF Done:  E(RB3LYP) =  -305.488110706     A.U. after    7 cycles
 Optimization completed.
    -- Stationary point found.
 Normal termination of Gaussian 09 at Thu Sep  8 14:48:46 2022.

 ----------------------------------------------------------------------
 #P Geom=AllCheck Guess=TCheck SCRF=Check GenChk RB3LYP/6-31G(d,p) Freq
 ----------------------------------------------------------------------

 Structure from the checkpoint file:  "B3LYP6-31Gdp.Frag_1053.chk"
 ---------
 Frag_1053
 ---------
 Charge =  0 Multiplicity = 1

                         Standard orientation:
 ---------------------------------------------------------------------
 Center     Atomic      Atomic             Coordinates (Angstroms)
 Number     Number       Type             X           Y           Z
 ---------------------------------------------------------------------
      1          6           0        1.895731   -0.017758    0.052714
      2          8           0        0.643268   -0.588861   -0.304359
      3          6           0       -0.458721    0.016801    0.333029
      4          8           0       -1.570505   -0.748310   -0.012597
      5          8           0       -0.668983    1.330273   -0.057497
      6          1           0        1.939854    1.042861   -0.218030
      7          1           0        2.661152   -0.568129   -0.497073
      8          1           0        2.089303   -0.115750    1.130885
      9          1           0       -0.289400    0.055839    1.421707
     10          1           0       -1.244186   -1.641490   -0.191211
     11          1           0       -1.009021    1.287591   -0.965106
 ---------------------------------------------------------------------

 SCF Done:  E(RB3LYP) =  -305.488110706     A.U. after    1 cycles

 The electronic state is 1-A.
 Alpha  occ. eigenvalues --  -19.16050 -19.15808 -19.15701 -10.33121 -10.23354
 Alpha  occ. eigenvalues --   -1.10304  -1.01183  -1.00506  -0.70980  -0.64678
 Alpha  occ. eigenvalues --   -0.54642  -0.52909  -0.49982  -0.45017  -0.43158
 Alpha  occ. eigenvalues --   -0.38558  -0.36755  -0.34285  -0.31356  -0.28995
 Alpha  occ. eigenvalues --   -0.27736
 Alpha virt. eigenvalues --    0.08864   0.10404   0.10889   0.14478   0.15493
 Alpha virt. eigenvalues --    0.16763   0.17452   0.23222   0.25702   0.29549
 Alpha virt. eigenvalues --    0.49798   0.52949   0.54391   0.56592   0.62590

 Mulliken charges:
               1
     1  C   -0.076451
     2  O   -0.504916
     3  C    0.594271
     4  O   -0.545995
     5  O   -0.508491
     6  H    0.119161
     7  H    0.118426
     8  H    0.098066
     9  H    0.079321
    10  H    0.317902
    11  H    0.308708
 Sum of Mulliken charges =  -0.00000

 Dipole moment (field-independent basis, Debye):
    X=              1.4774    Y=             -0.8522    Z=             -0.3649  Tot=              1.7441
 Quadrupole moment (field-independent basis, Debye-Ang):
   XX=            -29.8191   YY=            -29.2535   ZZ=            -28.0466
   XY=              0.9865   XZ=              1.9594   YZ=             -1.8534

  Exact polarizability:  37.345   0.155  32.503   1.324  -0.328  29.929
 Approx polarizability:  45.239   0.045  44.965   1.988   1.035  40.869

                      1                      2                      3
                      A                      A                      A
 Frequencies --    124.6736               175.5266               246.5931
 Red. masses --      2.0934                 1.3189                 1.1975
 Frc consts  --      0.0192                 0.0239                 0.0429
 IR Inten    --      4.3935                 3.0849                81.6210

                      4                      5                      6
                      A                      A                      A
 Frequencies --    298.1910               358.3137               499.7889
 Red. masses --      3.1397                 1.2278                 3.2211
 Frc consts  --      0.1645                 0.0929                 0.4741
 IR Inten    --      9.7848               102.9075                21.8830

                      7                      8                      9
                      A                      A                      A
 Frequencies --    573.2190               634.6614               951.2321
 Red. masses --      4.2159                 3.9724                 3.1741
 Frc consts  --      0.8162                 0.9427                 1.6921
 IR Inten    --     31.7416                22.7475                75.8209

                     10                     11                     12
                      A                      A                      A
 Frequencies --   1047.5567              1114.1730              1147.7298
 Red. masses --      3.5038                 7.2801                 4.1260
 Frc consts  --      2.2654                 5.3247                 3.2023
 IR Inten    --    181.7134                54.2548               347.1860

                     13                     14                     15
                      A                      A                      A
 Frequencies --   1182.3614              1210.8992              1289.5246
 Red. masses --      1.2930                 1.3746                 1.2958
 Frc consts  --      1.0650                 1.1876                 1.2695
 IR Inten    --      8.3252                 4.0067               101.7977

                     16                     17                     18
                      A                      A                      A
 Frequencies --   1346.1633              1401.9339              1460.2205
 Red. masses --      1.4258                 1.3341                 1.2379
 Frc consts  --      1.5223                 1.5449                 1.5552
 IR Inten    --     17.8831               135.9796                64.6919

                     19                     20                     21
                      A                      A                      A
 Frequencies --   1498.2803              1498.9181              1528.5094
 Red. masses --      1.1382                 1.1135                 1.0605
 Frc consts  --      1.5055                 1.4740                 1.4599
 IR Inten    --     21.4042                29.2152                 3.2059

                     22                     23                     24
                      A                      A                      A
 Frequencies --   3000.0254              3012.2368              3085.6506
 Red. masses --      1.0777                 1.0485                 1.0954
 Frc consts  --      5.7146                 5.6054                 6.1450
 IR Inten    --     45.2872                86.7646                39.1295

                     25                     26                     27
                      A                      A                      A
 Frequencies --   3146.8542              3775.1465              3816.2029
 Red. masses --      1.1021                 1.0644                 1.0651
 Frc consts  --      6.4300                 8.9380                 9.1393
 IR Inten    --     23.5450                28.8784                40.1458

 - Thermochemistry -
 -------------------
 Temperature   298.150 Kelvin.  Pressure   1.00000 Atm.
 Atom     1 has atomic number  6 and mass  12.00000

 Molecular mass:    78.03169 amu.
 Principal axes and moments of inertia in atomic units:
                           1         2         3
     Eigenvalues --   200.33597 443.35181 590.44225
           X            0.99980   0.01503   0.01299
           Y           -0.01474   0.99965  -0.02194
           Z           -0.01332   0.02175   0.99967
 This molecule is an asymmetric top.
 Rotational symmetry number  1.
 Rotational temperatures (Kelvin)      0.43234     0.19536     0.14669
 Rotational constants (GHZ):           9.00857     4.07068     3.05659
 Zero-point vibrational energy     235811.4 (Joules/Mol)
                                   56.36027 (Kcal/Mol)
 Warning -- explicit consideration of   7 degrees of freedom as
           vibrations may cause significant error
 Vibrational temperatures:    179.38   252.54   354.79   429.03   515.53
          (Kelvin)            719.08   824.73   913.14  1368.61  1507.20
                             1603.04  1651.33  1701.15  1742.21  1855.34
                             1936.83  2017.07  2100.93  2155.69  2156.61
                             2199.18  4316.36  4333.93  4439.56  4527.62
                             5431.59  5490.66

 Zero-point correction=                           0.089816 (Hartree/Particle)
 Thermal correction to Energy=                    0.095946
 Thermal correction to Enthalpy=                  0.096890
 Thermal correction to Gibbs Free Energy=         0.060681
 Sum of electronic and zero-point Energies=           -305.398295
 Sum of electronic and thermal Energies=              -305.392165
 Sum of electronic and thermal Enthalpies=            -305.391221
 Sum of electronic and thermal Free Energies=         -305.427430

                     E (Thermal)             CV                S
                      KCal/Mol        Cal/Mol-Kelvin    Cal/Mol-Kelvin
 Total                   60.207             20.441             76.209
 Electronic               0.000              0.000              0.000
 Translational            0.889              2.981             38.979
 Rotational               0.889              2.981             25.464
 Vibrational             58.430             14.480             11.766
 Vibration     1          0.610              1.928              3.027
 Vibration     2          0.627              1.873              2.375
 Vibration     3          0.661              1.768              1.755
 Vibration     4          0.691              1.677              1.427
 Vibration     5          0.733              1.558              1.129
 Vibration     6          0.855              1.250              0.659
 Vibration     7          0.929              1.089              0.498

 Optimization completed.
    -- Stationary point found.
 Normal termination of Gaussian 09 at Thu Sep  8 14:48:54 2022.
