 Gaussian 09, Revision E.01,
 Gaussian 09:  ES64L-G09RevE.01 30-Nov-2015

 ----------------------------
 #P OPT Freq B3LYP/6-31G(d,p)
 ----------------------------

 --------
 Frag_895
 --------
 Symbolic Z-matrix:
 Charge =  0 Multiplicity = 1

 SCF Done:  E(RB3LYP) =  -264.525060303     A.U. after   13 cycles
 SCF Done:  E(RB3LYP) =  -264.525153433     A.U. after   10 cycles
 SCF Done:  E(RB3LYP) =  -264.525169003     A.U. after   10 cycles
 SCF Done:  E(RB3LYP) =  -264.525179007     A.U. after   10 cycles
 SCF Done:  E(RB3LYP) =  -264.525182449     A.U. after    8 cycles
 SCF Done:  E(RB3LYP) =  -264.525183069     A.U. after    8 cycles
 SCF Done:  E(RB3LYP) =  -264.525183177     A.U. after    7 cycles
 Optimization completed.
    -- Stationary point found.
 Normal termination of Gaussian 09 at Thu Sep  8 15:03:05 2022.

 ----------------------------------------------------------------------
 #P Geom=AllCheck Guess=TCheck SCRF=Check GenChk RB3LYP/6-31G(d,p) Freq
 ----------------------------------------------------------------------

 Structure from the checkpoint file:  "B3LYP6-31Gdp.Frag_895.chk"
 --------
 Frag_895
 --------
 Charge =  0 Multiplicity = 1

                         Standard orientation:
 ---------------------------------------------------------------------
 Center     Atomic      Atomic             Coordinates (Angstroms)
 Number     Number       Type             X           Y           Z
 ---------------------------------------------------------------------
      1          7           0       -1.976372    0.017490    0.083968
      2          6           0       -0.753290   -0.668944    0.038305
      3          6           0        0.446128   -0.071779   -0.005055
      4          7           0        0.562895    1.344144   -0.040339
      5          8           0        1.603770   -0.838647   -0.094961
      6          1           0       -1.847809    0.989243   -0.184936
      7          1           0       -2.693285   -0.417404   -0.486941
      8          1           0       -0.804954   -1.750367    0.106609
      9          1           0        0.759247    1.751100    0.872431
     10          1           0        1.298339    1.632388   -0.680826
     11          1           0        2.195606   -0.582884    0.628447
 ---------------------------------------------------------------------

 SCF Done:  E(RB3LYP) =  -264.525183177     A.U. after    1 cycles

 The electronic state is 1-A.
 Alpha  occ. eigenvalues --  -19.15054 -14.32760 -14.31912 -10.23296 -10.19338
 Alpha  occ. eigenvalues --   -1.02904  -0.89580  -0.86661  -0.69887  -0.56347
 Alpha  occ. eigenvalues --   -0.53193  -0.48959  -0.47853  -0.44599  -0.40421
 Alpha  occ. eigenvalues --   -0.37900  -0.32385  -0.29820  -0.25969  -0.17698
 Alpha virt. eigenvalues --    0.05672   0.07662   0.09407   0.12282   0.14668
 Alpha virt. eigenvalues --    0.16381   0.19843   0.25194   0.27114   0.38670
 Alpha virt. eigenvalues --    0.42475   0.56394   0.59630   0.61152   0.61433

 Mulliken charges:
               1
     1  N   -0.612828
     2  C    0.073490
     3  C    0.330074
     4  N   -0.644279
     5  O   -0.545447
     6  H    0.261253
     7  H    0.247475
     8  H    0.096839
     9  H    0.249343
    10  H    0.248938
    11  H    0.295142
 Sum of Mulliken charges =  -0.00000

 Dipole moment (field-independent basis, Debye):
    X=              0.8158    Y=              1.2571    Z=              0.3940  Tot=              1.5495
 Quadrupole moment (field-independent basis, Debye-Ang):
   XX=            -24.9168   YY=            -28.7107   ZZ=            -29.8112
   XY=              4.0522   XZ=              5.9535   YZ=              0.0510

  Exact polarizability:  57.398   5.310  39.910   2.307   0.440  23.801
 Approx polarizability:  84.785   9.287  54.556   0.764   1.052  33.904

                      1                      2                      3
                      A                      A                      A
 Frequencies --    224.2559               253.9803               276.5034
 Red. masses --      1.1705                 3.1777                 1.3321
 Frc consts  --      0.0347                 0.1208                 0.0600
 IR Inten    --     13.4212                 2.5578               140.6025

                      4                      5                      6
                      A                      A                      A
 Frequencies --    327.5396               392.5710               462.8003
 Red. masses --      1.7432                 1.2436                 3.3797
 Frc consts  --      0.1102                 0.1129                 0.4265
 IR Inten    --     81.1426                52.7396                35.2911

                      7                      8                      9
                      A                      A                      A
 Frequencies --    490.3286               599.5915               793.2654
 Red. masses --      2.7442                 3.5789                 1.5695
 Frc consts  --      0.3887                 0.7581                 0.5819
 IR Inten    --      1.9265                22.6659                95.5171

                     10                     11                     12
                      A                      A                      A
 Frequencies --    809.4421               879.1290               891.6730
 Red. masses --      1.3497                 1.9770                 1.7571
 Frc consts  --      0.5210                 0.9003                 0.8231
 IR Inten    --    318.0374                 5.8772                57.1348

                     13                     14                     15
                      A                      A                      A
 Frequencies --   1123.0571              1141.6949              1229.6588
 Red. masses --      1.3975                 1.8067                 1.8629
 Frc consts  --      1.0385                 1.3875                 1.6597
 IR Inten    --     50.4232               104.6505               100.1746

                     16                     17                     18
                      A                      A                      A
 Frequencies --   1257.2417              1295.4901              1388.4833
 Red. masses --      1.4496                 2.2276                 1.5482
 Frc consts  --      1.3500                 2.2027                 1.7586
 IR Inten    --      1.9025                36.3012                31.4828

                     19                     20                     21
                      A                      A                      A
 Frequencies --   1635.7625              1647.6343              1804.8975
 Red. masses --      1.1644                 1.1282                 5.0347
 Frc consts  --      1.8357                 1.8044                 9.6634
 IR Inten    --     32.1991                20.9548                 6.7048

                     22                     23                     24
                      A                      A                      A
 Frequencies --   3214.3162              3474.7971              3502.4130
 Red. masses --      1.0917                 1.0491                 1.0474
 Frc consts  --      6.6453                 7.4630                 7.5699
 IR Inten    --      9.7612                 2.1837                 4.3302

                     25                     26                     27
                      A                      A                      A
 Frequencies --   3560.3945              3610.8549              3743.6356
 Red. masses --      1.0922                 1.0963                 1.0661
 Frc consts  --      8.1573                 8.4220                 8.8028
 IR Inten    --      3.3805                 6.2057                 4.8939

 - Thermochemistry -
 -------------------
 Temperature   298.150 Kelvin.  Pressure   1.00000 Atm.
 Atom     1 has atomic number  7 and mass  14.00307

 Molecular mass:    74.04801 amu.
 Principal axes and moments of inertia in atomic units:
                           1         2         3
     Eigenvalues --   194.10772 465.32304 644.13241
           X            0.99908   0.03719   0.02143
           Y           -0.03717   0.99931  -0.00097
           Z           -0.02145   0.00018   0.99977
 This molecule is an asymmetric top.
 Rotational symmetry number  1.
 Rotational temperatures (Kelvin)      0.44622     0.18614     0.13447
 Rotational constants (GHZ):           9.29763     3.87847     2.80182
 Zero-point vibrational energy     239441.0 (Joules/Mol)
                                   57.22777 (Kcal/Mol)
 Warning -- explicit consideration of   8 degrees of freedom as
           vibrations may cause significant error
 Vibrational temperatures:    322.65   365.42   397.83   471.26   564.82
          (Kelvin)            665.87   705.47   862.68  1141.33  1164.61
                             1264.87  1282.92  1615.83  1642.64  1769.20
                             1808.89  1863.92  1997.72  2353.49  2370.58
                             2596.84  4624.68  4999.45  5039.18  5122.61
                             5195.21  5386.25

 Zero-point correction=                           0.091198 (Hartree/Particle)
 Thermal correction to Energy=                    0.097202
 Thermal correction to Enthalpy=                  0.098146
 Thermal correction to Gibbs Free Energy=         0.062665
 Sum of electronic and zero-point Energies=           -264.433985
 Sum of electronic and thermal Energies=              -264.427981
 Sum of electronic and thermal Enthalpies=            -264.427037
 Sum of electronic and thermal Free Energies=         -264.462518

                     E (Thermal)             CV                S
                      KCal/Mol        Cal/Mol-Kelvin    Cal/Mol-Kelvin
 Total                   60.995             21.559             74.676
 Electronic               0.000              0.000              0.000
 Translational            0.889              2.981             38.822
 Rotational               0.889              2.981             25.568
 Vibrational             59.218             15.598             10.286
 Vibration     1          0.649              1.804              1.924
 Vibration     2          0.665              1.756              1.703
 Vibration     3          0.678              1.717              1.555
 Vibration     4          0.711              1.620              1.272
 Vibration     5          0.760              1.486              0.990
 Vibration     6          0.820              1.333              0.758
 Vibration     7          0.846              1.271              0.683
 Vibration     8          0.958              1.033              0.450

 Optimization completed.
    -- Stationary point found.
 Normal termination of Gaussian 09 at Thu Sep  8 15:03:13 2022.
