 Gaussian 09, Revision E.01,
 Gaussian 09:  ES64L-G09RevE.01 30-Nov-2015

 ----------------------------
 #P OPT Freq B3LYP/6-31G(d,p)
 ----------------------------

 --------
 Frag_621
 --------
 Symbolic Z-matrix:
 Charge =  0 Multiplicity = 1

 SCF Done:  E(RB3LYP) =  -265.763185568     A.U. after   13 cycles
 SCF Done:  E(RB3LYP) =  -265.763224833     A.U. after    9 cycles
 SCF Done:  E(RB3LYP) =  -265.763230485     A.U. after    8 cycles
 SCF Done:  E(RB3LYP) =  -265.763233165     A.U. after    8 cycles
 SCF Done:  E(RB3LYP) =  -265.763235445     A.U. after    8 cycles
 SCF Done:  E(RB3LYP) =  -265.763238477     A.U. after    8 cycles
 SCF Done:  E(RB3LYP) =  -265.763242241     A.U. after    9 cycles
 SCF Done:  E(RB3LYP) =  -265.763246916     A.U. after    9 cycles
 SCF Done:  E(RB3LYP) =  -265.763254853     A.U. after   10 cycles
 SCF Done:  E(RB3LYP) =  -265.763392932     A.U. after   12 cycles
 SCF Done:  E(RB3LYP) =  -265.767165675     A.U. after   13 cycles
 SCF Done:  E(RB3LYP) =  -265.768355159     A.U. after   10 cycles
 SCF Done:  E(RB3LYP) =  -265.769232854     A.U. after   11 cycles
 SCF Done:  E(RB3LYP) =  -265.769623437     A.U. after   11 cycles
 SCF Done:  E(RB3LYP) =  -265.769777264     A.U. after   10 cycles
 SCF Done:  E(RB3LYP) =  -265.769784510     A.U. after   10 cycles
 SCF Done:  E(RB3LYP) =  -265.769822296     A.U. after   10 cycles
 SCF Done:  E(RB3LYP) =  -265.769823655     A.U. after    7 cycles
 SCF Done:  E(RB3LYP) =  -265.769824178     A.U. after    7 cycles
 Optimization completed.
    -- Stationary point found.
 Normal termination of Gaussian 09 at Thu Sep  8 15:24:33 2022.

 ----------------------------------------------------------------------
 #P Geom=AllCheck Guess=TCheck SCRF=Check GenChk RB3LYP/6-31G(d,p) Freq
 ----------------------------------------------------------------------

 Structure from the checkpoint file:  "B3LYP6-31Gdp.Frag_621.chk"
 --------
 Frag_621
 --------
 Charge =  0 Multiplicity = 1

                         Standard orientation:
 ---------------------------------------------------------------------
 Center     Atomic      Atomic             Coordinates (Angstroms)
 Number     Number       Type             X           Y           Z
 ---------------------------------------------------------------------
      1          6           0       -1.487636    0.088059   -0.299725
      2          6           0        0.010626   -0.011116    0.005458
      3          7           0        0.490439   -1.329834   -0.371858
      4          7           0        0.860713    0.936558   -0.709494
      5          8           0        0.131437    0.289608    1.396036
      6          1           0       -1.851487    1.088865   -0.052635
      7          1           0       -2.053732   -0.631115    0.300765
      8          1           0       -1.671028   -0.118187   -1.356596
      9          1           0        0.019652   -2.029150    0.196444
     10          1           0        1.485125   -1.387570   -0.161966
     11          1           0        0.860360    0.714044   -1.701584
     12          1           0        0.489253    1.876332   -0.596975
     13          1           0        1.074360    0.461184    1.539328
 ---------------------------------------------------------------------

 SCF Done:  E(RB3LYP) =  -265.769824178     A.U. after    1 cycles

 The electronic state is 1-A.
 Alpha  occ. eigenvalues --  -19.13309 -14.31692 -14.31074 -10.28496 -10.17130
 Alpha  occ. eigenvalues --   -1.02554  -0.89484  -0.83930  -0.71921  -0.58490
 Alpha  occ. eigenvalues --   -0.52761  -0.49741  -0.46919  -0.42682  -0.40710
 Alpha  occ. eigenvalues --   -0.38162  -0.37477  -0.34264  -0.29609  -0.25285
 Alpha  occ. eigenvalues --   -0.23869
 Alpha virt. eigenvalues --    0.07015   0.11289   0.12042   0.14615   0.15636
 Alpha virt. eigenvalues --    0.15924   0.18196   0.20238   0.23616   0.25676
 Alpha virt. eigenvalues --    0.27697   0.28664   0.55238   0.55947   0.58369

 Mulliken charges:
               1
     1  C   -0.294245
     2  C    0.423073
     3  N   -0.575320
     4  N   -0.604530
     5  O   -0.535924
     6  H    0.105316
     7  H    0.108115
     8  H    0.108564
     9  H    0.241507
    10  H    0.234750
    11  H    0.250075
    12  H    0.243696
    13  H    0.294923
 Sum of Mulliken charges =  -0.00000

 Dipole moment (field-independent basis, Debye):
    X=              0.3299    Y=              0.2335    Z=             -0.4649  Tot=              0.6160
 Quadrupole moment (field-independent basis, Debye-Ang):
   XX=            -30.4015   YY=            -28.5252   ZZ=            -32.5472
   XY=             -0.6916   XZ=              2.3590   YZ=             -3.2339

  Exact polarizability:  41.055   0.442  41.056  -0.300  -0.494  38.163
 Approx polarizability:  53.372   1.425  54.607  -1.966   0.699  53.445

                      1                      2                      3
                      A                      A                      A
 Frequencies --    238.0879               284.0160               319.3528
 Red. masses --      1.0525                 1.0466                 1.3836
 Frc consts  --      0.0352                 0.0497                 0.0831
 IR Inten    --      2.6373                18.7645                13.0863

                      4                      5                      6
                      A                      A                      A
 Frequencies --    354.3322               396.6094               441.7869
 Red. masses --      2.5607                 1.6061                 1.4479
 Frc consts  --      0.1894                 0.1488                 0.1665
 IR Inten    --     11.2624                47.1071                51.0998

                      7                      8                      9
                      A                      A                      A
 Frequencies --    481.7555               522.2040               546.5308
 Red. masses --      2.6168                 2.7554                 2.1119
 Frc consts  --      0.3578                 0.4427                 0.3717
 IR Inten    --     16.9905                24.1251                58.2505

                     10                     11                     12
                      A                      A                      A
 Frequencies --    796.8661               864.6166               902.9176
 Red. masses --      4.5641                 1.7668                 1.5876
 Frc consts  --      1.7076                 0.7782                 0.7626
 IR Inten    --      6.8318               154.8561               185.7603

                     13                     14                     15
                      A                      A                      A
 Frequencies --    940.0808               996.2896              1012.8235
 Red. masses --      1.6959                 1.5386                 1.9619
 Frc consts  --      0.8830                 0.8998                 1.1857
 IR Inten    --     53.6932                23.6832                57.1525

                     16                     17                     18
                      A                      A                      A
 Frequencies --   1076.8443              1198.8074              1276.1245
 Red. masses --      1.3606                 1.4531                 2.0278
 Frc consts  --      0.9296                 1.2304                 1.9456
 IR Inten    --     10.6506               149.1383                35.3861

                     19                     20                     21
                      A                      A                      A
 Frequencies --   1337.1524              1399.4471              1445.6583
 Red. masses --      2.0687                 1.3220                 1.7140
 Frc consts  --      2.1792                 1.5254                 2.1105
 IR Inten    --     56.4575                22.9574                48.8392

                     22                     23                     24
                      A                      A                      A
 Frequencies --   1498.0780              1508.9718              1644.6844
 Red. masses --      1.0706                 1.0512                 1.1303
 Frc consts  --      1.4156                 1.4103                 1.8015
 IR Inten    --      0.6757                 0.7377                48.0356

                     25                     26                     27
                      A                      A                      A
 Frequencies --   1658.5529              3056.2190              3128.4816
 Red. masses --      1.1062                 1.0359                 1.1015
 Frc consts  --      1.7929                 5.7006                 6.3516
 IR Inten    --     33.2810                13.8603                26.0592

                     28                     29                     30
                      A                      A                      A
 Frequencies --   3148.6764              3492.9082              3503.8573
 Red. masses --      1.1044                 1.0499                 1.0490
 Frc consts  --      6.4514                 7.5468                 7.5875
 IR Inten    --     20.8909                 0.0902                 0.3696

                     31                     32                     33
                      A                      A                      A
 Frequencies --   3586.8037              3598.3932              3777.0781
 Red. masses --      1.0919                 1.0936                 1.0651
 Frc consts  --      8.2768                 8.3430                 8.9524
 IR Inten    --      0.7972                 1.2187                12.3947

 - Thermochemistry -
 -------------------
 Temperature   298.150 Kelvin.  Pressure   1.00000 Atm.
 Atom     1 has atomic number  6 and mass  12.00000

 Molecular mass:    76.06366 amu.
 Principal axes and moments of inertia in atomic units:
                           1         2         3
     Eigenvalues --   353.61564 368.14934 383.60019
           X            0.98012   0.06941   0.18586
           Y            0.04085   0.84612  -0.53142
           Z           -0.19415   0.52845   0.82647
 This molecule is an asymmetric top.
 Rotational symmetry number  1.
 Rotational temperatures (Kelvin)      0.24494     0.23527     0.22579
 Rotational constants (GHZ):           5.10368     4.90220     4.70475
 Zero-point vibrational energy     301668.3 (Joules/Mol)
                                   72.10046 (Kcal/Mol)
 Warning -- explicit consideration of   9 degrees of freedom as
           vibrations may cause significant error
 Vibrational temperatures:    342.55   408.64   459.48   509.80   570.63
          (Kelvin)            635.63   693.14   751.33   786.33  1146.51
                             1243.99  1299.10  1352.56  1433.44  1457.23
                             1549.34  1724.81  1836.06  1923.86  2013.49
                             2079.98  2155.40  2171.07  2366.33  2386.28
                             4397.21  4501.18  4530.24  5025.51  5041.26
                             5160.60  5177.28  5434.37

 Zero-point correction=                           0.114899 (Hartree/Particle)
 Thermal correction to Energy=                    0.121058
 Thermal correction to Enthalpy=                  0.122003
 Thermal correction to Gibbs Free Energy=         0.086460
 Sum of electronic and zero-point Energies=           -265.654925
 Sum of electronic and thermal Energies=              -265.648766
 Sum of electronic and thermal Enthalpies=            -265.647822
 Sum of electronic and thermal Free Energies=         -265.683365

                     E (Thermal)             CV                S
                      KCal/Mol        Cal/Mol-Kelvin    Cal/Mol-Kelvin
 Total                   75.965             23.269             74.806
 Electronic               0.000              0.000              0.000
 Translational            0.889              2.981             38.903
 Rotational               0.889              2.981             25.416
 Vibrational             74.188             17.307             10.488
 Vibration     1          0.656              1.782              1.817
 Vibration     2          0.682              1.703              1.509
 Vibration     3          0.705              1.637              1.313
 Vibration     4          0.730              1.566              1.147
 Vibration     5          0.763              1.477              0.975
 Vibration     6          0.802              1.379              0.821
 Vibration     7          0.838              1.291              0.705
 Vibration     8          0.877              1.201              0.605
 Vibration     9          0.902              1.147              0.551

 Normal termination of Gaussian 09 at Thu Sep  8 15:24:43 2022.
