 Gaussian 09, Revision E.01,
 Gaussian 09:  ES64L-G09RevE.01 30-Nov-2015

 --------------------------------
 #P OPT=calcfc Freq B3LYP/6-31G**
 --------------------------------

 --------
 Frag_310
 --------
 Symbolic Z-matrix:
 Charge =  0 Multiplicity = 1

 SCF Done:  E(RB3LYP) =  -244.631479934     A.U. after   14 cycles
 SCF Done:  E(RB3LYP) =  -244.648038447     A.U. after   14 cycles
 SCF Done:  E(RB3LYP) =  -244.639778919     A.U. after   13 cycles
 SCF Done:  E(RB3LYP) =  -244.648760887     A.U. after   10 cycles
 SCF Done:  E(RB3LYP) =  -244.650468620     A.U. after   13 cycles
 SCF Done:  E(RB3LYP) =  -244.653335756     A.U. after   14 cycles
 SCF Done:  E(RB3LYP) =  -244.648794664     A.U. after   14 cycles
 SCF Done:  E(RB3LYP) =  -244.655039805     A.U. after   11 cycles
 SCF Done:  E(RB3LYP) =  -244.654804926     A.U. after   12 cycles
 SCF Done:  E(RB3LYP) =  -244.655908454     A.U. after   10 cycles
 SCF Done:  E(RB3LYP) =  -244.655993039     A.U. after   11 cycles
 SCF Done:  E(RB3LYP) =  -244.656102247     A.U. after    8 cycles
 SCF Done:  E(RB3LYP) =  -244.656174084     A.U. after   11 cycles
 SCF Done:  E(RB3LYP) =  -244.656206965     A.U. after   11 cycles
 SCF Done:  E(RB3LYP) =  -244.656217890     A.U. after   10 cycles
 SCF Done:  E(RB3LYP) =  -244.656221291     A.U. after    9 cycles
 SCF Done:  E(RB3LYP) =  -244.656221952     A.U. after    8 cycles
 SCF Done:  E(RB3LYP) =  -244.656222069     A.U. after    7 cycles
 SCF Done:  E(RB3LYP) =  -244.656222082     A.U. after    6 cycles
 Optimization completed.
    -- Stationary point found.
 Normal termination of Gaussian 09 at Fri Sep 10 17:33:27 2021.

 ----------------------------------------------------------------------
 #P Geom=AllCheck Guess=TCheck SCRF=Check GenChk RB3LYP/6-31G(d,p) Freq
 ----------------------------------------------------------------------

 Structure from the checkpoint file:  "/public/home/users/caep010/.cache/gau_scr/Gau-68662.chk"
 --------
 Frag_310
 --------
 Charge =  0 Multiplicity = 1

                         Standard orientation:
 ---------------------------------------------------------------------
 Center     Atomic      Atomic             Coordinates (Angstroms)
 Number     Number       Type             X           Y           Z
 ---------------------------------------------------------------------
      1          6           0       -0.456753    1.428424   -0.021662
      2          6           0       -0.418220   -0.078384   -0.016276
      3          7           0       -1.648948   -0.725907    0.123315
      4          7           0        0.643336   -0.800185   -0.049750
      5          7           0        1.868993   -0.078783   -0.077451
      6          1           0       -0.333030    1.830481    0.991797
      7          1           0       -1.411967    1.802611   -0.401296
      8          1           0        0.358113    1.814154   -0.639626
      9          1           0       -2.395192   -0.328969   -0.435595
     10          1           0       -1.561792   -1.726754   -0.016458
     11          1           0        1.952856    0.523339    0.743861
     12          1           0        2.597185   -0.780976    0.012150
 ---------------------------------------------------------------------

 SCF Done:  E(RB3LYP) =  -244.656222082     A.U. after    1 cycles

 The electronic state is 1-A.
 Alpha  occ. eigenvalues --  -14.33807 -14.33242 -14.32028 -10.23960 -10.18720
 Alpha  occ. eigenvalues --   -0.96427  -0.89532  -0.76917  -0.71886  -0.55667
 Alpha  occ. eigenvalues --   -0.51551  -0.49613  -0.44079  -0.42946  -0.41782
 Alpha  occ. eigenvalues --   -0.38768  -0.34801  -0.30414  -0.24649  -0.19061
 Alpha virt. eigenvalues --    0.03900   0.08340   0.09250   0.13691   0.14510
 Alpha virt. eigenvalues --    0.16756   0.17676   0.19613   0.21022   0.25286
 Alpha virt. eigenvalues --    0.35349   0.39476   0.53842   0.55223   0.56987

 Mulliken charges:
               1
     1  C   -0.384076
     2  C    0.439312
     3  N   -0.609522
     4  N   -0.374597
     5  N   -0.464111
     6  H    0.130756
     7  H    0.104201
     8  H    0.150139
     9  H    0.249576
    10  H    0.260520
    11  H    0.238836
    12  H    0.258966
 Sum of Mulliken charges =  -0.00000

 Dipole moment (field-independent basis, Debye):
    X=             -0.8183    Y=              0.9562    Z=              0.2979  Tot=              1.2933
 Quadrupole moment (field-independent basis, Debye-Ang):
   XX=            -25.2866   YY=            -29.6698   ZZ=            -32.0553
   XY=              0.2915   XZ=              5.5045   YZ=              1.2751

  Exact polarizability:  62.035  -2.025  42.676   1.933   1.318  26.985
 Approx polarizability:  91.824  -6.775  58.326   0.191   2.243  38.459

                      1                      2                      3
                      A                      A                      A
 Frequencies --    111.7012               198.3394               294.5474
 Red. masses --      1.0388                 1.3173                 3.5031
 Frc consts  --      0.0076                 0.0305                 0.1791
 IR Inten    --      6.0093                16.5475                15.4475

                      4                      5                      6
                      A                      A                      A
 Frequencies --    316.6860               384.8653               434.8416
 Red. masses --      2.0032                 1.1583                 2.3033
 Frc consts  --      0.1184                 0.1011                 0.2566
 IR Inten    --     10.4714                74.5143                 6.0300

                      7                      8                      9
                      A                      A                      A
 Frequencies --    519.4313               609.3668               742.3825
 Red. masses --      2.5461                 4.1087                 1.4237
 Frc consts  --      0.4048                 0.8989                 0.4623
 IR Inten    --     29.3193                 8.3985               270.1315

                     10                     11                     12
                      A                      A                      A
 Frequencies --    826.0287               900.0268              1015.7675
 Red. masses --      4.1578                 1.9060                 1.3878
 Frc consts  --      1.6715                 0.9097                 0.8436
 IR Inten    --     10.4262               126.8656                 0.4812

                     13                     14                     15
                      A                      A                      A
 Frequencies --   1048.9585              1076.5490              1210.9394
 Red. masses --      1.6065                 1.5723                 1.7700
 Frc consts  --      1.0415                 1.0736                 1.5292
 IR Inten    --     13.5844                34.1600                15.2133

                     16                     17                     18
                      A                      A                      A
 Frequencies --   1311.6329              1380.6298              1424.3333
 Red. masses --      1.3857                 1.8237                 1.6284
 Frc consts  --      1.4046                 2.0482                 1.9464
 IR Inten    --     22.1253                17.5655                39.3727

                     19                     20                     21
                      A                      A                      A
 Frequencies --   1486.3184              1510.4084              1635.1906
 Red. masses --      1.0475                 1.1068                 1.2048
 Frc consts  --      1.3634                 1.4876                 1.8980
 IR Inten    --      7.7489                 7.1347                57.8286

                     22                     23                     24
                      A                      A                      A
 Frequencies --   1667.7992              1746.6388              3040.3984
 Red. masses --      1.1680                 4.2178                 1.0401
 Frc consts  --      1.9141                 7.5812                 5.6649
 IR Inten    --     16.8602                96.1839                15.9098

                     25                     26                     27
                      A                      A                      A
 Frequencies --   3102.4150              3141.0305              3431.8495
 Red. masses --      1.0957                 1.1031                 1.0550
 Frc consts  --      6.2138                 6.4123                 7.3205
 IR Inten    --     20.0876                 6.1804                 9.4642

                     28                     29                     30
                      A                      A                      A
 Frequencies --   3528.6746              3566.5167              3642.0705
 Red. masses --      1.0470                 1.0878                 1.0976
 Frc consts  --      7.6808                 8.1522                 8.5784
 IR Inten    --      4.0413                 1.8996                 6.8593

 - Thermochemistry -
 -------------------
 Temperature   298.150 Kelvin.  Pressure   1.00000 Atm.
 Atom     1 has atomic number  6 and mass  12.00000

 Molecular mass:    73.06400 amu.
 Principal axes and moments of inertia in atomic units:
                           1         2         3
     Eigenvalues --   205.08665 432.67440 619.22984
           X            0.99976  -0.00134   0.02189
           Y            0.00114   0.99996   0.00936
           Z           -0.02190  -0.00933   0.99972
 This molecule is an asymmetric top.
 Rotational symmetry number  1.
 Rotational temperatures (Kelvin)      0.42233     0.20018     0.13987
 Rotational constants (GHZ):           8.79990     4.17113     2.91449
 Zero-point vibrational energy     270992.1 (Joules/Mol)
                                   64.76866 (Kcal/Mol)
 Warning -- explicit consideration of   8 degrees of freedom as
           vibrations may cause significant error
 Vibrational temperatures:    160.71   285.37   423.79   455.64   553.73
          (Kelvin)            625.64   747.34   876.74  1068.12  1188.47
                             1294.94  1461.46  1509.22  1548.91  1742.27
                             1887.14  1986.42  2049.30  2138.48  2173.14
                             2352.67  2399.59  2513.02  4374.45  4463.68
                             4519.24  4937.66  5076.97  5131.42  5240.12

 Zero-point correction=                           0.103215 (Hartree/Particle)
 Thermal correction to Energy=                    0.109490
 Thermal correction to Enthalpy=                  0.110434
 Thermal correction to Gibbs Free Energy=         0.074169
 Sum of electronic and zero-point Energies=           -244.553007
 Sum of electronic and thermal Energies=              -244.546732
 Sum of electronic and thermal Enthalpies=            -244.545788
 Sum of electronic and thermal Free Energies=         -244.582053

                     E (Thermal)             CV                S
                      KCal/Mol        Cal/Mol-Kelvin    Cal/Mol-Kelvin
 Total                   68.706             21.852             76.325
 Electronic               0.000              0.000              0.000
 Translational            0.889              2.981             38.783
 Rotational               0.889              2.981             25.511
 Vibrational             66.928             15.890             12.032
 Vibration     1          0.607              1.940              3.239
 Vibration     2          0.637              1.842              2.148
 Vibration     3          0.689              1.684              1.448
 Vibration     4          0.704              1.642              1.327
 Vibration     5          0.754              1.502              1.020
 Vibration     6          0.795              1.394              0.843
 Vibration     7          0.874              1.207              0.611
 Vibration     8          0.968              1.012              0.434

 Optimization completed.
    -- Stationary point found.
 Normal termination of Gaussian 09 at Fri Sep 10 17:33:35 2021.
