 Gaussian 09, Revision E.01,
 Gaussian 09:  ES64L-G09RevE.01 30-Nov-2015

 --------------------------------
 #P OPT=calcfc Freq B3LYP/6-31G**
 --------------------------------

 --------
 Frag_418
 --------
 Symbolic Z-matrix:
 Charge =  0 Multiplicity = 1

 SCF Done:  E(RB3LYP) =  -344.791682032     A.U. after   13 cycles
 SCF Done:  E(RB3LYP) =  -344.799944736     A.U. after   13 cycles
 SCF Done:  E(RB3LYP) =  -344.796797755     A.U. after   13 cycles
 SCF Done:  E(RB3LYP) =  -344.800209810     A.U. after   10 cycles
 SCF Done:  E(RB3LYP) =  -344.765099891     A.U. after   13 cycles
 SCF Done:  E(RB3LYP) =  -344.800336508     A.U. after    9 cycles
 SCF Done:  E(RB3LYP) =  -344.800695275     A.U. after   11 cycles
 SCF Done:  E(RB3LYP) =  -344.800882356     A.U. after   10 cycles
 SCF Done:  E(RB3LYP) =  -344.800949522     A.U. after   10 cycles
 SCF Done:  E(RB3LYP) =  -344.800978558     A.U. after   10 cycles
 SCF Done:  E(RB3LYP) =  -344.800980579     A.U. after    8 cycles
 SCF Done:  E(RB3LYP) =  -344.800980626     A.U. after    7 cycles
 Optimization completed.
    -- Stationary point found.
 Normal termination of Gaussian 09 at Fri Sep 10 17:48:40 2021.

 ----------------------------------------------------------------------
 #P Geom=AllCheck Guess=TCheck SCRF=Check GenChk RB3LYP/6-31G(d,p) Freq
 ----------------------------------------------------------------------

 Structure from the checkpoint file:  "/public/home/users/caep010/.cache/gau_scr/Gau-160762.chk"
 --------
 Frag_418
 --------
 Charge =  0 Multiplicity = 1

                         Standard orientation:
 ---------------------------------------------------------------------
 Center     Atomic      Atomic             Coordinates (Angstroms)
 Number     Number       Type             X           Y           Z
 ---------------------------------------------------------------------
      1          6           0        1.867228   -0.602967   -0.278497
      2          6           0        0.687736    0.354842   -0.363754
      3          8           0        0.746685    1.245006    0.733883
      4          6           0       -0.670705   -0.363537   -0.394859
      5          8           0       -1.727682    0.599029   -0.286776
      6          8           0       -0.776135   -1.208289    0.704650
      7          1           0        1.886632   -1.279187   -1.139835
      8          1           0        2.801896   -0.036412   -0.262706
      9          1           0        1.798134   -1.195469    0.636027
     10          1           0        0.747958    0.915593   -1.317585
     11          1           0       -0.153573    1.589038    0.844071
     12          1           0       -0.779345   -0.914326   -1.347807
     13          1           0       -1.854421    1.008803   -1.153948
     14          1           0       -1.695778   -1.504034    0.750387
 ---------------------------------------------------------------------

 SCF Done:  E(RB3LYP) =  -344.800980626     A.U. after    1 cycles

 The electronic state is 1-A.
 Alpha  occ. eigenvalues --  -19.16863 -19.15738 -19.12873 -10.29024 -10.23220
 Alpha  occ. eigenvalues --  -10.16901  -1.07453  -1.00656  -1.00154  -0.75894
 Alpha  occ. eigenvalues --   -0.67460  -0.58649  -0.54086  -0.53483  -0.50243
 Alpha  occ. eigenvalues --   -0.44855  -0.41198  -0.38077  -0.37735  -0.36602
 Alpha  occ. eigenvalues --   -0.35666  -0.32886  -0.31516  -0.27760  -0.25511
 Alpha virt. eigenvalues --    0.05319   0.08741   0.12015   0.13133   0.15045
 Alpha virt. eigenvalues --    0.16241   0.18094   0.19559   0.19961   0.21126
 Alpha virt. eigenvalues --    0.25141   0.26509   0.30484   0.52211   0.54606

 Mulliken charges:
               1
     1  C   -0.317018
     2  C    0.180099
     3  O   -0.546549
     4  C    0.355342
     5  O   -0.556082
     6  O   -0.512128
     7  H    0.090324
     8  H    0.115331
     9  H    0.138095
    10  H    0.053858
    11  H    0.310520
    12  H    0.063609
    13  H    0.309896
    14  H    0.314704
 Sum of Mulliken charges =   0.00000

 Dipole moment (field-independent basis, Debye):
    X=             -2.0354    Y=             -0.4549    Z=             -2.7526  Tot=              3.4535
 Quadrupole moment (field-independent basis, Debye-Ang):
   XX=            -34.5519   YY=            -35.5672   ZZ=            -35.2029
   XY=             -0.5609   XZ=              0.2365   YZ=             -1.6758

  Exact polarizability:  47.409  -1.539  42.318  -0.176  -0.682  42.209
 Approx polarizability:  59.608  -2.079  57.077   0.474  -0.857  61.186

                      1                      2                      3
                      A                      A                      A
 Frequencies --    104.2102               227.6893               246.3110
 Red. masses --      4.4872                 1.1224                 2.4505
 Frc consts  --      0.0287                 0.0343                 0.0876
 IR Inten    --      3.4370                 0.6730                 4.2719

                      4                      5                      6
                      A                      A                      A
 Frequencies --    261.8178               286.8821               325.3598
 Red. masses --      1.1543                 4.8108                 1.1834
 Frc consts  --      0.0466                 0.2333                 0.0738
 IR Inten    --     42.7019                 6.1796               123.1649

                      7                      8                      9
                      A                      A                      A
 Frequencies --    374.6056               462.8275               504.7833
 Red. masses --      3.2726                 1.5303                 1.7392
 Frc consts  --      0.2706                 0.1931                 0.2611
 IR Inten    --      2.0675                94.2392                84.0619

                     10                     11                     12
                      A                      A                      A
 Frequencies --    559.5112               729.4818               830.1774
 Red. masses --      3.6810                 3.5988                 2.9973
 Frc consts  --      0.6790                 1.1283                 1.2171
 IR Inten    --     23.5178                18.7670                27.7688

                     13                     14                     15
                      A                      A                      A
 Frequencies --    939.4486              1019.8749              1031.4151
 Red. masses --      1.9053                 2.0271                 3.0343
 Frc consts  --      0.9908                 1.2423                 1.9019
 IR Inten    --      1.4007                74.7803                74.8960

                     16                     17                     18
                      A                      A                      A
 Frequencies --   1082.6268              1114.8829              1180.8994
 Red. masses --      2.3910                 1.6949                 2.2111
 Frc consts  --      1.6512                 1.2412                 1.8167
 IR Inten    --    110.2207                36.8084                50.9546

                     19                     20                     21
                      A                      A                      A
 Frequencies --   1241.2241              1281.8668              1311.5757
 Red. masses --      1.3626                 1.2833                 1.1489
 Frc consts  --      1.2369                 1.2424                 1.1645
 IR Inten    --     45.4650                53.1588                74.2789

                     22                     23                     24
                      A                      A                      A
 Frequencies --   1386.8900              1395.5564              1421.1779
 Red. masses --      1.2421                 1.2768                 1.3066
 Frc consts  --      1.4076                 1.4651                 1.5548
 IR Inten    --     62.4198                18.1248                26.9083

                     25                     26                     27
                      A                      A                      A
 Frequencies --   1451.5260              1471.6696              1501.5633
 Red. masses --      1.5168                 1.5760                 1.0917
 Frc consts  --      1.8829                 2.0110                 1.4503
 IR Inten    --     42.0379                12.1090                 4.8360

                     28                     29                     30
                      A                      A                      A
 Frequencies --   1516.7824              2914.5666              2946.3218
 Red. masses --      1.0775                 1.0817                 1.0848
 Frc consts  --      1.4606                 5.4137                 5.5482
 IR Inten    --      1.6483                55.9769               127.6444

                     31                     32                     33
                      A                      A                      A
 Frequencies --   3056.0835              3127.7299              3154.6847
 Red. masses --      1.0372                 1.1006                 1.1028
 Frc consts  --      5.7077                 6.3434                 6.4665
 IR Inten    --     19.2554                25.0401                14.0319

                     34                     35                     36
                      A                      A                      A
 Frequencies --   3758.1513              3806.0421              3810.9331
 Red. masses --      1.0651                 1.0662                 1.0653
 Frc consts  --      8.8629                 9.1001                 9.1158
 IR Inten    --     41.5430                22.3810                26.9153

 - Thermochemistry -
 -------------------
 Temperature   298.150 Kelvin.  Pressure   1.00000 Atm.
 Atom     1 has atomic number  6 and mass  12.00000

 Molecular mass:    92.04734 amu.
 Principal axes and moments of inertia in atomic units:
                           1         2         3
     Eigenvalues --   364.19885 613.24521 762.10189
           X            0.99912  -0.04091  -0.00906
           Y            0.04088   0.99916  -0.00350
           Z            0.00919   0.00312   0.99995
 This molecule is an asymmetric top.
 Rotational symmetry number  1.
 Rotational temperatures (Kelvin)      0.23782     0.14124     0.11365
 Rotational constants (GHZ):           4.95537     2.94294     2.36811
 Zero-point vibrational energy     310055.0 (Joules/Mol)
                                   74.10493 (Kcal/Mol)
 Warning -- explicit consideration of  10 degrees of freedom as
           vibrations may cause significant error
 Vibrational temperatures:    149.94   327.59   354.39   376.70   412.76
          (Kelvin)            468.12   538.97   665.90   726.27   805.01
                             1049.56  1194.44  1351.66  1467.37  1483.97
                             1557.66  1604.07  1699.05  1785.84  1844.32
                             1887.06  1995.42  2007.89  2044.76  2088.42
                             2117.40  2160.41  2182.31  4193.41  4239.09
                             4397.02  4500.10  4538.88  5407.13  5476.04
                             5483.08

 Zero-point correction=                           0.118094 (Hartree/Particle)
 Thermal correction to Energy=                    0.125385
 Thermal correction to Enthalpy=                  0.126329
 Thermal correction to Gibbs Free Energy=         0.087531
 Sum of electronic and zero-point Energies=           -344.682887
 Sum of electronic and thermal Energies=              -344.675596
 Sum of electronic and thermal Enthalpies=            -344.674652
 Sum of electronic and thermal Free Energies=         -344.713450

                     E (Thermal)             CV                S
                      KCal/Mol        Cal/Mol-Kelvin    Cal/Mol-Kelvin
 Total                   78.680             26.174             81.658
 Electronic               0.000              0.000              0.000
 Translational            0.889              2.981             39.471
 Rotational               0.889              2.981             26.634
 Vibrational             76.903             20.212             15.553
 Vibration     1          0.605              1.946              3.374
 Vibration     2          0.651              1.799              1.897
 Vibration     3          0.661              1.769              1.757
 Vibration     4          0.669              1.743              1.650
 Vibration     5          0.684              1.698              1.492
 Vibration     6          0.709              1.625              1.283
 Vibration     7          0.746              1.524              1.061
 Vibration     8          0.820              1.333              0.758
 Vibration     9          0.860              1.239              0.646
 Vibration    10          0.915              1.119              0.525

 Optimization completed.
    -- Stationary point found.
 Normal termination of Gaussian 09 at Fri Sep 10 17:48:52 2021.
