 Gaussian 09, Revision E.01,
 Gaussian 09:  ES64L-G09RevE.01 30-Nov-2015

 ----------------------------
 #P OPT Freq B3LYP/6-31G(d,p)
 ----------------------------

 --------
 Frag_944
 --------
 Symbolic Z-matrix:
 Charge =  0 Multiplicity = 1

 SCF Done:  E(RB3LYP) =  -226.383024943     A.U. after   13 cycles
 SCF Done:  E(RB3LYP) =  -226.383061817     A.U. after    8 cycles
 SCF Done:  E(RB3LYP) =  -226.383067669     A.U. after    8 cycles
 Optimization completed.
    -- Stationary point found.
 Normal termination of Gaussian 09 at Thu Sep  8 14:57:53 2022.

 ----------------------------------------------------------------------
 #P Geom=AllCheck Guess=TCheck SCRF=Check GenChk RB3LYP/6-31G(d,p) Freq
 ----------------------------------------------------------------------

 Structure from the checkpoint file:  "B3LYP6-31Gdp.Frag_944.chk"
 --------
 Frag_944
 --------
 Charge =  0 Multiplicity = 1

                         Standard orientation:
 ---------------------------------------------------------------------
 Center     Atomic      Atomic             Coordinates (Angstroms)
 Number     Number       Type             X           Y           Z
 ---------------------------------------------------------------------
      1          7           0        1.831640   -0.088669   -0.000013
      2          6           0        0.537089    0.518036   -0.000033
      3          8           0       -0.483886   -0.499891    0.000087
      4          7           0       -1.772669    0.153706   -0.000067
      5          1           0        1.941167   -0.682544    0.818191
      6          1           0        1.941112   -0.682688   -0.818121
      7          1           0        0.421309    1.150176    0.889199
      8          1           0        0.421230    1.150027   -0.889356
      9          1           0       -2.244483   -0.249988   -0.811488
     10          1           0       -2.244576   -0.249335    0.811632
 ---------------------------------------------------------------------

 SCF Done:  E(RB3LYP) =  -226.383067669     A.U. after    1 cycles

 The electronic state is 1-A.
 Alpha  occ. eigenvalues --  -19.15957 -14.36467 -14.31782 -10.24430  -1.04676
 Alpha  occ. eigenvalues --   -0.88829  -0.79305  -0.62991  -0.51395  -0.48500
 Alpha  occ. eigenvalues --   -0.48344  -0.45205  -0.38520  -0.37690  -0.26109
 Alpha  occ. eigenvalues --   -0.25594  -0.24632
 Alpha virt. eigenvalues --    0.08140   0.09067   0.11911   0.14602   0.15329
 Alpha virt. eigenvalues --    0.16011   0.20339   0.21071   0.28509   0.53970
 Alpha virt. eigenvalues --    0.57477   0.60085   0.63593   0.70302   0.70762

 Mulliken charges:
               1
     1  N   -0.596521
     2  C    0.212971
     3  O   -0.449850
     4  N   -0.366566
     5  H    0.245847
     6  H    0.245846
     7  H    0.096625
     8  H    0.096637
     9  H    0.257510
    10  H    0.257502
 Sum of Mulliken charges =  -0.00000

 Dipole moment (field-independent basis, Debye):
    X=             -1.1241    Y=             -1.2941    Z=              0.0004  Tot=              1.7141
 Quadrupole moment (field-independent basis, Debye-Ang):
   XX=            -22.7581   YY=            -25.8999   ZZ=            -21.8447
   XY=             -0.5203   XZ=             -0.0006   YZ=              0.0013

  Exact polarizability:  40.537  -1.410  24.881  -0.000   0.002  28.532
 Approx polarizability:  49.057  -2.653  33.810  -0.000   0.002  38.461

                      1                      2                      3
                      A                      A                      A
 Frequencies --    105.1623               180.2771               312.3824
 Red. masses --      2.9033                 1.1572                 3.3956
 Frc consts  --      0.0189                 0.0222                 0.1952
 IR Inten    --      1.4517                40.7392                 4.1277

                      4                      5                      6
                      A                      A                      A
 Frequencies --    389.2543               495.5791               840.8915
 Red. masses --      1.1109                 3.7931                 1.6813
 Frc consts  --      0.0992                 0.5489                 0.7004
 IR Inten    --     64.8173                30.6375               186.2471

                      7                      8                      9
                      A                      A                      A
 Frequencies --    930.4333               945.0182               979.6888
 Red. masses --      5.5489                 1.1197                 4.6589
 Frc consts  --      2.8303                 0.5892                 2.6346
 IR Inten    --     12.9439                 2.0674               203.2133

                     10                     11                     12
                      A                      A                      A
 Frequencies --   1167.0563              1228.1781              1241.5525
 Red. masses --      2.6495                 1.6225                 1.1402
 Frc consts  --      2.1261                 1.4420                 1.0355
 IR Inten    --     55.0799                49.5963                 0.8599

                     13                     14                     15
                      A                      A                      A
 Frequencies --   1310.7996              1381.0856              1416.4458
 Red. masses --      1.1384                 1.2689                 1.2481
 Frc consts  --      1.1524                 1.4260                 1.4753
 IR Inten    --      1.9696                 0.3237                35.7948

                     16                     17                     18
                      A                      A                      A
 Frequencies --   1533.7669              1657.1325              1686.3066
 Red. masses --      1.0982                 1.0672                 1.0983
 Frc consts  --      1.5221                 1.7266                 1.8401
 IR Inten    --      2.6648                15.2830                23.0482

                     19                     20                     21
                      A                      A                      A
 Frequencies --   3032.0454              3075.9374              3423.7562
 Red. masses --      1.0559                 1.1120                 1.0477
 Frc consts  --      5.7195                 6.1988                 7.2356
 IR Inten    --     53.6564                56.4309                 3.4096

                     22                     23                     24
                      A                      A                      A
 Frequencies --   3502.7775              3512.7632              3587.2999
 Red. masses --      1.0486                 1.0959                 1.0931
 Frc consts  --      7.5806                 7.9673                 8.2878
 IR Inten    --      0.0470                 0.6897                 0.6367

 - Thermochemistry -
 -------------------
 Temperature   298.150 Kelvin.  Pressure   1.00000 Atm.
 Atom     1 has atomic number  7 and mass  14.00307

 Molecular mass:    62.04801 amu.
 Principal axes and moments of inertia in atomic units:
                           1         2         3
     Eigenvalues --    55.90218 430.55824 455.95777
           X            0.99999  -0.00526  -0.00000
           Y            0.00526   0.99999   0.00007
           Z            0.00000  -0.00007   1.00000
 This molecule is an asymmetric top.
 Rotational symmetry number  1.
 Rotational temperatures (Kelvin)      1.54938     0.20117     0.18996
 Rotational constants (GHZ):          32.28392     4.19163     3.95813
 Zero-point vibrational energy     226905.2 (Joules/Mol)
                                   54.23165 (Kcal/Mol)
 Warning -- explicit consideration of   5 degrees of freedom as
           vibrations may cause significant error
 Vibrational temperatures:    151.30   259.38   449.45   560.05   713.03
          (Kelvin)           1209.85  1338.68  1359.67  1409.55  1679.13
                             1767.07  1786.31  1885.95  1987.07  2037.95
                             2206.75  2384.24  2426.22  4362.43  4425.58
                             4926.02  5039.71  5054.08  5161.32

 Zero-point correction=                           0.086424 (Hartree/Particle)
 Thermal correction to Energy=                    0.091809
 Thermal correction to Enthalpy=                  0.092754
 Thermal correction to Gibbs Free Energy=         0.058720
 Sum of electronic and zero-point Energies=           -226.296644
 Sum of electronic and thermal Energies=              -226.291258
 Sum of electronic and thermal Enthalpies=            -226.290314
 Sum of electronic and thermal Free Energies=         -226.324348

                     E (Thermal)             CV                S
                      KCal/Mol        Cal/Mol-Kelvin    Cal/Mol-Kelvin
 Total                   57.611             17.161             71.631
 Electronic               0.000              0.000              0.000
 Translational            0.889              2.981             38.295
 Rotational               0.889              2.981             23.910
 Vibrational             55.834             11.199              9.425
 Vibration     1          0.605              1.945              3.356
 Vibration     2          0.629              1.866              2.326
 Vibration     3          0.701              1.650              1.350
 Vibration     4          0.757              1.493              1.003
 Vibration     5          0.851              1.260              0.669

 Optimization completed.
    -- Stationary point found.
 Normal termination of Gaussian 09 at Thu Sep  8 14:57:59 2022.
