 Gaussian 09, Revision E.01,
 Gaussian 09:  ES64L-G09RevE.01 30-Nov-2015

 ----------------------------
 #P OPT Freq B3LYP/6-31G(d,p)
 ----------------------------

 --------
 Frag_845
 --------
 Symbolic Z-matrix:
 Charge =  0 Multiplicity = 1

 SCF Done:  E(RB3LYP) =  -229.978856153     A.U. after   15 cycles
 SCF Done:  E(RB3LYP) =  -229.979026058     A.U. after   12 cycles
 SCF Done:  E(RB3LYP) =  -229.979004263     A.U. after   11 cycles
 SCF Done:  E(RB3LYP) =  -229.979018191     A.U. after   11 cycles
 SCF Done:  E(RB3LYP) =  -229.979031326     A.U. after   11 cycles
 SCF Done:  E(RB3LYP) =  -229.979027164     A.U. after    9 cycles
 SCF Done:  E(RB3LYP) =  -229.979032727     A.U. after    9 cycles
 SCF Done:  E(RB3LYP) =  -229.979032646     A.U. after    8 cycles
 Optimization completed.
    -- Stationary point found.
 Normal termination of Gaussian 09 at Thu Sep  8 15:11:26 2022.

 ----------------------------------------------------------------------
 #P Geom=AllCheck Guess=TCheck SCRF=Check GenChk RB3LYP/6-31G(d,p) Freq
 ----------------------------------------------------------------------

 Structure from the checkpoint file:  "B3LYP6-31Gdp.Frag_845.chk"
 --------
 Frag_845
 --------
 Charge =  0 Multiplicity = 1

                         Standard orientation:
 ---------------------------------------------------------------------
 Center     Atomic      Atomic             Coordinates (Angstroms)
 Number     Number       Type             X           Y           Z
 ---------------------------------------------------------------------
      1          6           0        2.191320   -0.168079    0.000099
      2          6           0        0.993954    0.004290   -0.000721
      3          6           0       -0.452306    0.201577   -0.000171
      4          6           0       -1.288234   -1.060206    0.000125
      5          8           0       -0.933084    1.320828    0.000207
      6          1           0        3.249369   -0.302049    0.001774
      7          1           0       -1.053047   -1.667955    0.880820
      8          1           0       -1.053846   -1.667837   -0.880863
      9          1           0       -2.346212   -0.794273    0.000622
 ---------------------------------------------------------------------

 SCF Done:  E(RB3LYP) =  -229.979032646     A.U. after    1 cycles

 The electronic state is 1-A.
 Alpha  occ. eigenvalues --  -19.15206 -10.30299 -10.21505 -10.20734 -10.20014
 Alpha  occ. eigenvalues --   -1.05111  -0.78741  -0.74552  -0.63427  -0.53705
 Alpha  occ. eigenvalues --   -0.48582  -0.45255  -0.44497  -0.40719  -0.37490
 Alpha  occ. eigenvalues --   -0.29798  -0.29741  -0.26573
 Alpha virt. eigenvalues --   -0.05925   0.03253   0.08865   0.10692   0.11103
 Alpha virt. eigenvalues --    0.15801   0.18111   0.19900   0.29590   0.33448
 Alpha virt. eigenvalues --    0.42335   0.49831   0.50149   0.53353   0.55031

 Mulliken charges:
               1
     1  C   -0.415493
     2  C    0.296617
     3  C    0.308777
     4  C   -0.385583
     5  O   -0.405426
     6  H    0.177896
     7  H    0.140345
     8  H    0.140335
     9  H    0.142533
 Sum of Mulliken charges =  -0.00000

 Dipole moment (field-independent basis, Debye):
    X=              1.2475    Y=             -2.6843    Z=              0.0013  Tot=              2.9600
 Quadrupole moment (field-independent basis, Debye-Ang):
   XX=            -22.7451   YY=            -31.6634   ZZ=            -28.4417
   XY=              2.0348   XZ=              0.0074   YZ=             -0.0014

  Exact polarizability:  61.333  -4.709  35.365   0.009   0.000  23.155
 Approx polarizability: 100.374 -18.977  56.958   0.021   0.002  32.196

                      1                      2                      3
                      A                      A                      A
 Frequencies --    122.4972               175.3347               246.1795
 Red. masses --      1.0467                 3.7864                 4.5012
 Frc consts  --      0.0093                 0.0686                 0.1607
 IR Inten    --      0.0786                 3.6513                 0.6534

                      4                      5                      6
                      A                      A                      A
 Frequencies --    436.9113               598.3513               601.0783
 Red. masses --      3.3969                 2.7355                 8.0449
 Frc consts  --      0.3820                 0.5770                 1.7125
 IR Inten    --      2.9795                 2.1738                 7.9423

                      7                      8                      9
                      A                      A                      A
 Frequencies --    635.2635               694.8454               746.5594
 Red. masses --      1.2277                 1.2536                 4.2907
 Frc consts  --      0.2919                 0.3566                 1.4090
 IR Inten    --     47.6700                34.8561                11.9484

                     10                     11                     12
                      A                      A                      A
 Frequencies --    984.0111              1046.1723              1215.8829
 Red. masses --      1.8868                 1.7898                 3.3730
 Frc consts  --      1.0764                 1.1542                 2.9380
 IR Inten    --     29.6219                 6.1757               153.6819

                     13                     14                     15
                      A                      A                      A
 Frequencies --   1398.1868              1474.2636              1482.3606
 Red. masses --      1.3115                 1.0532                 1.0469
 Frc consts  --      1.5106                 1.3487                 1.3554
 IR Inten    --     32.7976                14.4278                 8.7128

                     16                     17                     18
                      A                      A                      A
 Frequencies --   1778.3113              2211.4720              3049.3967
 Red. masses --     11.0515                 5.9548                 1.0362
 Frc consts  --     20.5915                17.1584                 5.6772
 IR Inten    --    168.9826                57.0830                 1.1480

                     19                     20                     21
                      A                      A                      A
 Frequencies --   3114.6811              3166.6028              3481.7662
 Red. masses --      1.0999                 1.1037                 1.1601
 Frc consts  --      6.2869                 6.5204                 8.2860
 IR Inten    --      5.8877                 7.2318                48.6399

 - Thermochemistry -
 -------------------
 Temperature   298.150 Kelvin.  Pressure   1.00000 Atm.
 Atom     1 has atomic number  6 and mass  12.00000

 Molecular mass:    68.02621 amu.
 Principal axes and moments of inertia in atomic units:
                           1         2         3
     Eigenvalues --   177.04394 449.95364 615.82788
           X            0.99831   0.05810   0.00004
           Y           -0.05810   0.99831  -0.00002
           Z           -0.00004   0.00002   1.00000
 This molecule is an asymmetric top.
 Rotational symmetry number  1.
 Rotational temperatures (Kelvin)      0.48922     0.19249     0.14065
 Rotational constants (GHZ):          10.19375     4.01095     2.93059
 Zero-point vibrational energy     171425.6 (Joules/Mol)
                                   40.97171 (Kcal/Mol)
 Warning -- explicit consideration of   6 degrees of freedom as
           vibrations may cause significant error
 Vibrational temperatures:    176.25   252.27   354.20   628.62   860.89
          (Kelvin)            864.82   914.00   999.73  1074.13  1415.77
                             1505.21  1749.38  2011.68  2121.13  2132.78
                             2558.59  3181.81  4387.40  4481.33  4556.03
                             5009.48

 Zero-point correction=                           0.065293 (Hartree/Particle)
 Thermal correction to Energy=                    0.070963
 Thermal correction to Enthalpy=                  0.071907
 Thermal correction to Gibbs Free Energy=         0.036688
 Sum of electronic and zero-point Energies=           -229.913740
 Sum of electronic and thermal Energies=              -229.908070
 Sum of electronic and thermal Enthalpies=            -229.907126
 Sum of electronic and thermal Free Energies=         -229.942345

                     E (Thermal)             CV                S
                      KCal/Mol        Cal/Mol-Kelvin    Cal/Mol-Kelvin
 Total                   44.530             18.749             74.125
 Electronic               0.000              0.000              0.000
 Translational            0.889              2.981             38.570
 Rotational               0.889              2.981             25.398
 Vibrational             42.752             12.787             10.157
 Vibration     1          0.610              1.930              3.061
 Vibration     2          0.627              1.873              2.378
 Vibration     3          0.661              1.769              1.758
 Vibration     4          0.797              1.390              0.836
 Vibration     5          0.956              1.035              0.453
 Vibration     6          0.959              1.030              0.448

 Optimization completed.
    -- Stationary point found.
 Normal termination of Gaussian 09 at Thu Sep  8 15:11:33 2022.
