 Gaussian 09, Revision E.01,
 Gaussian 09:  ES64L-G09RevE.01 30-Nov-2015

 -------------------------
 #P OPT Freq B3LYP/6-31G**
 -------------------------

 --------
 Frag_266
 --------
 Symbolic Z-matrix:
 Charge =  0 Multiplicity = 1

 SCF Done:  E(RB3LYP) =  -155.896785588     A.U. after   12 cycles
 SCF Done:  E(RB3LYP) =  -155.938023866     A.U. after   12 cycles
 SCF Done:  E(RB3LYP) =  -155.944783781     A.U. after   11 cycles
 SCF Done:  E(RB3LYP) =  -155.945758468     A.U. after   10 cycles
 SCF Done:  E(RB3LYP) =  -155.945809407     A.U. after    8 cycles
 SCF Done:  E(RB3LYP) =  -155.945818910     A.U. after    8 cycles
 SCF Done:  E(RB3LYP) =  -155.945820467     A.U. after    7 cycles
 Optimization completed.
    -- Stationary point found.
 Normal termination of Gaussian 09 at Sat Aug 21 01:33:09 2021.

 ----------------------------------------------------------------------
 #P Geom=AllCheck Guess=TCheck SCRF=Check GenChk RB3LYP/6-31G(d,p) Freq
 ----------------------------------------------------------------------

 Structure from the checkpoint file:  "/public/home/users/caep010/.cache/gau_scr/Gau-110767.chk"
 --------
 Frag_266
 --------
 Charge =  0 Multiplicity = 1

                         Standard orientation:
 ---------------------------------------------------------------------
 Center     Atomic      Atomic             Coordinates (Angstroms)
 Number     Number       Type             X           Y           Z
 ---------------------------------------------------------------------
      1          6           0       -1.509222   -0.000001   -0.210758
      2          6           0       -0.159475    0.000000    0.491610
      3          6           0        1.061987   -0.648599   -0.113886
      4          6           0        1.061986    0.648599   -0.113886
      5          1           0       -1.384990   -0.000006   -1.298675
      6          1           0       -2.099297    0.883635    0.062150
      7          1           0       -2.099299   -0.883632    0.062158
      8          1           0       -0.249163    0.000005    1.584433
      9          1           0        1.550549   -1.578168   -0.364271
     10          1           0        1.550548    1.578167   -0.364277
 ---------------------------------------------------------------------

 SCF Done:  E(RB3LYP) =  -155.945820467     A.U. after    1 cycles

 The electronic state is 1-A.
 Alpha  occ. eigenvalues --  -10.20069 -10.19659 -10.19543 -10.16613  -0.86601
 Alpha  occ. eigenvalues --   -0.70377  -0.56157  -0.55951  -0.49333  -0.42378
 Alpha  occ. eigenvalues --   -0.39835  -0.37188  -0.32730  -0.27350  -0.24628
 Alpha virt. eigenvalues --    0.01570   0.12209   0.12662   0.14131   0.15985
 Alpha virt. eigenvalues --    0.17421   0.17493   0.20022   0.24511   0.27473
 Alpha virt. eigenvalues --    0.34940   0.48464   0.53472   0.54404   0.54588

 Mulliken charges:
               1
     1  C   -0.313305
     2  C   -0.086161
     3  C   -0.086574
     4  C   -0.086572
     5  H    0.096457
     6  H    0.100926
     7  H    0.100926
     8  H    0.080207
     9  H    0.097047
    10  H    0.097047
 Sum of Mulliken charges =  -0.00000

 Dipole moment (field-independent basis, Debye):
    X=              0.3552    Y=              0.0000    Z=             -0.1872  Tot=              0.4015
 Quadrupole moment (field-independent basis, Debye-Ang):
   XX=            -24.6530   YY=            -23.1348   ZZ=            -25.5275
   XY=             -0.0000   XZ=             -0.6076   YZ=             -0.0000

  Exact polarizability:  43.684  -0.000  41.213  -4.505   0.000  30.840
 Approx polarizability:  55.210  -0.000  68.368  -7.383   0.000  43.139

                      1                      2                      3
                      A                      A                      A
 Frequencies --    193.2216               364.9314               416.3407
 Red. masses --      1.0815                 2.2758                 2.0397
 Frc consts  --      0.0238                 0.1786                 0.2083
 IR Inten    --      0.0972                 2.8912                 3.9568

                      4                      5                      6
                      A                      A                      A
 Frequencies --    616.4669               785.6193               839.2102
 Red. masses --      1.3034                 2.5318                 1.9330
 Frc consts  --      0.2919                 0.9207                 0.8021
 IR Inten    --     61.7970                 3.9563                 2.0434

                      7                      8                      9
                      A                      A                      A
 Frequencies --    863.9666               964.7771              1013.7136
 Red. masses --      1.4396                 1.1961                 1.1733
 Frc consts  --      0.6331                 0.6559                 0.7104
 IR Inten    --      0.0144                 0.6002                16.1313

                     10                     11                     12
                      A                      A                      A
 Frequencies --   1047.5716              1099.3260              1127.3567
 Red. masses --      1.5835                 1.9853                 1.5689
 Frc consts  --      1.0239                 1.4136                 1.1748
 IR Inten    --     13.9785                 4.8275                 8.1360

                     13                     14                     15
                      A                      A                      A
 Frequencies --   1234.9728              1407.1288              1421.7948
 Red. masses --      2.9592                 1.2839                 1.3052
 Frc consts  --      2.6591                 1.4977                 1.5546
 IR Inten    --      3.1579                19.0536                 6.4295

                     16                     17                     18
                      A                      A                      A
 Frequencies --   1505.2742              1510.4608              1737.8745
 Red. masses --      1.0454                 1.0476                 5.1757
 Frc consts  --      1.3956                 1.4082                 9.2099
 IR Inten    --      2.8648                 3.3027                15.5444

                     19                     20                     21
                      A                      A                      A
 Frequencies --   3026.4214              3042.1340              3087.0508
 Red. masses --      1.0377                 1.0820                 1.1016
 Frc consts  --      5.6001                 5.8998                 6.1855
 IR Inten    --     35.8762                59.2605                32.5088

                     22                     23                     24
                      A                      A                      A
 Frequencies --   3111.5890              3253.5016              3298.5685
 Red. masses --      1.1018                 1.0837                 1.1441
 Frc consts  --      6.2851                 6.7584                 7.3344
 IR Inten    --     42.7085                 0.6134                 0.4974

 - Thermochemistry -
 -------------------
 Temperature   298.150 Kelvin.  Pressure   1.00000 Atm.
 Atom     1 has atomic number  6 and mass  12.00000

 Molecular mass:    54.04695 amu.
 Principal axes and moments of inertia in atomic units:
                           1         2         3
     Eigenvalues --    89.05547 280.48004 310.62943
           X            1.00000  -0.00000   0.00047
           Y            0.00000   1.00000  -0.00000
           Z           -0.00047   0.00000   1.00000
 This molecule is an asymmetric top.
 Rotational symmetry number  1.
 Rotational temperatures (Kelvin)      0.97258     0.30881     0.27883
 Rotational constants (GHZ):          20.26536     6.43447     5.80995
 Zero-point vibrational energy     221125.4 (Joules/Mol)
                                   52.85023 (Kcal/Mol)
 Warning -- explicit consideration of   4 degrees of freedom as
           vibrations may cause significant error
 Vibrational temperatures:    278.00   525.05   599.02   886.96  1130.33
          (Kelvin)           1207.43  1243.05  1388.10  1458.51  1507.22
                             1581.68  1622.01  1776.85  2024.54  2045.64
                             2165.75  2173.21  2500.41  4354.34  4376.95
                             4441.57  4476.88  4681.06  4745.90

 Zero-point correction=                           0.084222 (Hartree/Particle)
 Thermal correction to Energy=                    0.088824
 Thermal correction to Enthalpy=                  0.089768
 Thermal correction to Gibbs Free Energy=         0.057877
 Sum of electronic and zero-point Energies=           -155.861598
 Sum of electronic and thermal Energies=              -155.856997
 Sum of electronic and thermal Enthalpies=            -155.856053
 Sum of electronic and thermal Free Energies=         -155.887944

                     E (Thermal)             CV                S
                      KCal/Mol        Cal/Mol-Kelvin    Cal/Mol-Kelvin
 Total                   55.738             15.810             67.121
 Electronic               0.000              0.000              0.000
 Translational            0.889              2.981             37.884
 Rotational               0.889              2.981             23.566
 Vibrational             53.960              9.848              5.671
 Vibration     1          0.635              1.849              2.197
 Vibration     2          0.738              1.544              1.101
 Vibration     3          0.780              1.435              0.904
 Vibration     4          0.976              0.997              0.422

 Optimization completed.
    -- Stationary point found.
 Normal termination of Gaussian 09 at Sat Aug 21 01:33:16 2021.
