 Gaussian 09, Revision E.01,
 Gaussian 09:  ES64L-G09RevE.01 30-Nov-2015

 ----------------------------
 #P OPT Freq B3LYP/6-31G(d,p)
 ----------------------------

 ---------
 Frag_1066
 ---------
 Symbolic Z-matrix:
 Charge =  0 Multiplicity = 1

 SCF Done:  E(RB3LYP) =  -323.727178586     A.U. after   14 cycles
 SCF Done:  E(RB3LYP) =  -323.727286481     A.U. after   10 cycles
 SCF Done:  E(RB3LYP) =  -323.726972549     A.U. after   12 cycles
 SCF Done:  E(RB3LYP) =  -323.727279507     A.U. after   12 cycles
 SCF Done:  E(RB3LYP) =  -323.727295721     A.U. after   10 cycles
 SCF Done:  E(RB3LYP) =  -323.727295894     A.U. after    8 cycles
 SCF Done:  E(RB3LYP) =  -323.727295963     A.U. after    7 cycles
 Optimization completed.
    -- Stationary point found.
 Normal termination of Gaussian 09 at Thu Sep  8 14:46:09 2022.

 ----------------------------------------------------------------------
 #P Geom=AllCheck Guess=TCheck SCRF=Check GenChk RB3LYP/6-31G(d,p) Freq
 ----------------------------------------------------------------------

 Structure from the checkpoint file:  "B3LYP6-31Gdp.Frag_1066.chk"
 ---------
 Frag_1066
 ---------
 Charge =  0 Multiplicity = 1

                         Standard orientation:
 ---------------------------------------------------------------------
 Center     Atomic      Atomic             Coordinates (Angstroms)
 Number     Number       Type             X           Y           Z
 ---------------------------------------------------------------------
      1          6           0        1.212796    1.220319   -0.119293
      2          6           0        0.354984   -0.042432    0.033631
      3          7           0        0.996860   -1.147872   -0.661431
      4          8           0        0.111798   -0.291510    1.403993
      5          6           0       -0.990036    0.169232   -0.673428
      6          8           0       -2.045328    0.106505   -0.078150
      7          1           0        2.162462    1.065385    0.402798
      8          1           0        1.420070    1.438600   -1.170441
      9          1           0        0.712685    2.075547    0.341238
     10          1           0        0.551553   -2.016749   -0.373215
     11          1           0        1.969113   -1.212038   -0.367639
     12          1           0       -0.857395   -0.280277    1.506673
     13          1           0       -0.934733    0.361958   -1.761605
 ---------------------------------------------------------------------

 SCF Done:  E(RB3LYP) =  -323.727295963     A.U. after    1 cycles

 The electronic state is 1-A.
 Alpha  occ. eigenvalues --  -19.17570 -19.14144 -14.32901 -10.28933 -10.27773
 Alpha  occ. eigenvalues --  -10.19108  -1.07547  -1.02236  -0.89039  -0.75054
 Alpha  occ. eigenvalues --   -0.66401  -0.57441  -0.53010  -0.50341  -0.48625
 Alpha  occ. eigenvalues --   -0.45947  -0.41131  -0.40599  -0.39278  -0.38309
 Alpha  occ. eigenvalues --   -0.35308  -0.30365  -0.27773  -0.25197
 Alpha virt. eigenvalues --   -0.04213   0.08213   0.11699   0.12091   0.13777
 Alpha virt. eigenvalues --    0.15120   0.17087   0.17837   0.20555   0.23447
 Alpha virt. eigenvalues --    0.26113   0.28187   0.33190   0.50255   0.52726

 Mulliken charges:
               1
     1  C   -0.316340
     2  C    0.282544
     3  N   -0.576831
     4  O   -0.559126
     5  C    0.304703
     6  O   -0.407997
     7  H    0.122777
     8  H    0.117637
     9  H    0.122515
    10  H    0.246267
    11  H    0.249260
    12  H    0.315557
    13  H    0.099033
 Sum of Mulliken charges =  -0.00000

 Dipole moment (field-independent basis, Debye):
    X=              1.4060    Y=              0.0464    Z=             -0.8264  Tot=              1.6316
 Quadrupole moment (field-independent basis, Debye-Ang):
   XX=            -37.7110   YY=            -32.6239   ZZ=            -38.6769
   XY=              0.1342   XZ=             -0.1936   YZ=             -1.0357

  Exact polarizability:  50.782   0.067  39.625  -2.555  -0.703  42.351
 Approx polarizability:  74.468  -0.297  51.925  -7.628  -0.918  61.963

                      1                      2                      3
                      A                      A                      A
 Frequencies --     72.9096               223.4655               296.1971
 Red. masses --      4.0530                 1.0413                 1.1167
 Frc consts  --      0.0127                 0.0306                 0.0577
 IR Inten    --      0.0673                 1.2883                59.9605

                      4                      5                      6
                      A                      A                      A
 Frequencies --    307.2272               335.3685               374.9231
 Red. masses --      3.1032                 2.5056                 3.1636
 Frc consts  --      0.1726                 0.1660                 0.2620
 IR Inten    --      9.2627                 6.5114                 3.0794

                      7                      8                      9
                      A                      A                      A
 Frequencies --    401.8886               434.5682               517.7017
 Red. masses --      1.7965                 2.9628                 1.4655
 Frc consts  --      0.1710                 0.3297                 0.2314
 IR Inten    --     57.9942                34.3076                 9.0564

                     10                     11                     12
                      A                      A                      A
 Frequencies --    645.5826               831.1266               849.4232
 Red. masses --      3.8125                 4.0303                 2.0741
 Frc consts  --      0.9362                 1.6403                 0.8817
 IR Inten    --      6.0537                71.4973               129.8682

                     13                     14                     15
                      A                      A                      A
 Frequencies --    902.9985               986.5158              1004.0732
 Red. masses --      1.8194                 1.6178                 1.7505
 Frc consts  --      0.8741                 0.9276                 1.0398
 IR Inten    --     15.7721                 5.2395                 2.7765

                     16                     17                     18
                      A                      A                      A
 Frequencies --   1039.5482              1211.4592              1219.7506
 Red. masses --      1.6315                 3.3472                 2.2063
 Frc consts  --      1.0388                 2.8943                 1.9340
 IR Inten    --     34.2582                74.4517                 8.5873

                     19                     20                     21
                      A                      A                      A
 Frequencies --   1284.3220              1371.6537              1412.5562
 Red. masses --      1.6076                 1.2002                 1.2587
 Frc consts  --      1.5623                 1.3304                 1.4798
 IR Inten    --     82.9538                65.0798                 6.0669

                     22                     23                     24
                      A                      A                      A
 Frequencies --   1441.9866              1502.6800              1507.1079
 Red. masses --      1.5138                 1.0456                 1.1229
 Frc consts  --      1.8546                 1.3911                 1.5027
 IR Inten    --     44.1708                 2.0880                 4.4159

                     25                     26                     27
                      A                      A                      A
 Frequencies --   1676.0555              1817.3562              2985.4084
 Red. masses --      1.0965                10.1429                 1.0886
 Frc consts  --      1.8147                19.7376                 5.7164
 IR Inten    --     24.4325               135.1883                62.8201

                     28                     29                     30
                      A                      A                      A
 Frequencies --   3054.8095              3130.5654              3147.3989
 Red. masses --      1.0351                 1.1019                 1.1043
 Frc consts  --      5.6911                 6.3627                 6.4455
 IR Inten    --     10.1299                15.2357                15.6295

                     31                     32                     33
                      A                      A                      A
 Frequencies --   3490.8581              3574.5940              3674.7603
 Red. masses --      1.0493                 1.0927                 1.0650
 Frc consts  --      7.5336                 8.2265                 8.4735
 IR Inten    --      0.3023                 1.7163                70.3860

 - Thermochemistry -
 -------------------
 Temperature   298.150 Kelvin.  Pressure   1.00000 Atm.
 Atom     1 has atomic number  6 and mass  12.00000

 Molecular mass:    89.04768 amu.
 Principal axes and moments of inertia in atomic units:
                           1         2         3
     Eigenvalues --   364.91468 626.13136 630.53667
           X            0.99939   0.02170  -0.02742
           Y           -0.03118   0.90811  -0.41758
           Z            0.01584   0.41818   0.90823
 This molecule is an asymmetric top.
 Rotational symmetry number  1.
 Rotational temperatures (Kelvin)      0.23735     0.13833     0.13737
 Rotational constants (GHZ):           4.94565     2.88237     2.86223
 Zero-point vibrational energy     279488.6 (Joules/Mol)
                                   66.79937 (Kcal/Mol)
 Warning -- explicit consideration of   9 degrees of freedom as
           vibrations may cause significant error
 Vibrational temperatures:    104.90   321.52   426.16   442.03   482.52
          (Kelvin)            539.43   578.23   625.25   744.86   928.85
                             1195.80  1222.13  1299.21  1419.37  1444.64
                             1495.68  1743.02  1754.95  1847.85  1973.50
                             2032.35  2074.69  2162.02  2168.39  2411.47
                             2614.77  4295.33  4395.18  4504.18  4528.40
                             5022.56  5143.04  5287.15

 Zero-point correction=                           0.106452 (Hartree/Particle)
 Thermal correction to Energy=                    0.113451
 Thermal correction to Enthalpy=                  0.114396
 Thermal correction to Gibbs Free Energy=         0.076053
 Sum of electronic and zero-point Energies=           -323.620844
 Sum of electronic and thermal Energies=              -323.613844
 Sum of electronic and thermal Enthalpies=            -323.612900
 Sum of electronic and thermal Free Energies=         -323.651243

                     E (Thermal)             CV                S
                      KCal/Mol        Cal/Mol-Kelvin    Cal/Mol-Kelvin
 Total                   71.192             25.049             80.700
 Electronic               0.000              0.000              0.000
 Translational            0.889              2.981             39.372
 Rotational               0.889              2.981             26.469
 Vibrational             69.414             19.087             14.859
 Vibration     1          0.599              1.967              4.073
 Vibration     2          0.649              1.805              1.931
 Vibration     3          0.690              1.681              1.438
 Vibration     4          0.697              1.660              1.377
 Vibration     5          0.716              1.605              1.234
 Vibration     6          0.746              1.524              1.060
 Vibration     7          0.768              1.466              0.956
 Vibration     8          0.795              1.395              0.844
 Vibration     9          0.873              1.211              0.615

 Optimization completed.
    -- Stationary point found.
 Normal termination of Gaussian 09 at Thu Sep  8 14:46:20 2022.
