 Gaussian 09, Revision E.01,
 Gaussian 09:  ES64L-G09RevE.01 30-Nov-2015

 ----------------------------
 #P OPT Freq B3LYP/6-31G(d,p)
 ----------------------------

 --------
 Frag_551
 --------
 Symbolic Z-matrix:
 Charge =  0 Multiplicity = 1

 SCF Done:  E(RB3LYP) =  -229.846072973     A.U. after   12 cycles
 SCF Done:  E(RB3LYP) =  -229.846088564     A.U. after    8 cycles
 SCF Done:  E(RB3LYP) =  -229.846089768     A.U. after    7 cycles
 Optimization completed.
    -- Stationary point found.
 Normal termination of Gaussian 09 at Thu Sep  8 15:21:10 2022.

 ----------------------------------------------------------------------
 #P Geom=AllCheck Guess=TCheck SCRF=Check GenChk RB3LYP/6-31G(d,p) Freq
 ----------------------------------------------------------------------

 Structure from the checkpoint file:  "B3LYP6-31Gdp.Frag_551.chk"
 --------
 Frag_551
 --------
 Charge =  0 Multiplicity = 1

                         Standard orientation:
 ---------------------------------------------------------------------
 Center     Atomic      Atomic             Coordinates (Angstroms)
 Number     Number       Type             X           Y           Z
 ---------------------------------------------------------------------
      1          6           0       -2.007383   -0.008805    0.115482
      2          7           0       -0.745710   -0.616878   -0.280801
      3          6           0        0.455197   -0.040300    0.314463
      4          6           0        0.778654    1.398382   -0.116113
      5          7           0        1.559484   -0.909121   -0.090725
      6          1           0       -2.830560   -0.542615   -0.369125
      7          1           0       -2.116490    1.063484   -0.124181
      8          1           0       -2.139074   -0.117119    1.198393
      9          1           0       -0.637130   -0.611236   -1.292825
     10          1           0        0.273679   -0.036937    1.406536
     11          1           0       -0.045607    2.077712    0.120200
     12          1           0        1.671366    1.774849    0.397136
     13          1           0        0.968157    1.430116   -1.194179
     14          1           0        2.429548   -0.599567    0.335243
     15          1           0        1.370884   -1.852346    0.240489
 ---------------------------------------------------------------------

 SCF Done:  E(RB3LYP) =  -229.846089768     A.U. after    1 cycles

 The electronic state is 1-A.
 Alpha  occ. eigenvalues --  -14.30876 -14.30472 -10.23183 -10.19823 -10.16902
 Alpha  occ. eigenvalues --   -0.91613  -0.84249  -0.71775  -0.66280  -0.58300
 Alpha  occ. eigenvalues --   -0.49080  -0.47941  -0.44134  -0.43107  -0.38937
 Alpha  occ. eigenvalues --   -0.38347  -0.36378  -0.36230  -0.34795  -0.23432
 Alpha  occ. eigenvalues --   -0.21372
 Alpha virt. eigenvalues --    0.08227   0.11172   0.12741   0.14166   0.14731
 Alpha virt. eigenvalues --    0.16884   0.17380   0.18347   0.19017   0.21450
 Alpha virt. eigenvalues --    0.23545   0.25295   0.25432   0.30329   0.52699

 Mulliken charges:
               1
     1  C   -0.169973
     2  N   -0.486900
     3  C    0.190932
     4  C   -0.314970
     5  N   -0.600764
     6  H    0.106853
     7  H    0.082319
     8  H    0.108438
     9  H    0.237755
    10  H    0.068109
    11  H    0.101897
    12  H    0.093643
    13  H    0.109981
    14  H    0.230957
    15  H    0.241722
 Sum of Mulliken charges =  -0.00000

 Dipole moment (field-independent basis, Debye):
    X=              0.0570    Y=              0.6594    Z=              0.8059  Tot=              1.0429
 Quadrupole moment (field-independent basis, Debye-Ang):
   XX=            -30.7425   YY=            -33.8039   ZZ=            -32.4239
   XY=             -0.7768   XZ=              3.0464   YZ=             -0.9839

  Exact polarizability:  56.008  -0.275  46.816   0.775   0.708  42.206
 Approx polarizability:  68.918  -0.522  62.170   0.609   2.349  60.498

                      1                      2                      3
                      A                      A                      A
 Frequencies --    121.6986               223.3770               239.7575
 Red. masses --      1.8798                 1.1419                 1.1023
 Frc consts  --      0.0164                 0.0336                 0.0373
 IR Inten    --      3.4150                 0.4583                 4.8788

                      4                      5                      6
                      A                      A                      A
 Frequencies --    277.7120               321.1616               406.9358
 Red. masses --      2.3273                 1.1431                 2.3688
 Frc consts  --      0.1058                 0.0695                 0.2311
 IR Inten    --      4.8034                30.9771                 5.7791

                      7                      8                      9
                      A                      A                      A
 Frequencies --    453.2926               525.3728               757.7697
 Red. masses --      2.3787                 2.8186                 1.7336
 Frc consts  --      0.2880                 0.4584                 0.5865
 IR Inten    --      2.9283                12.9003                81.0293

                     10                     11                     12
                      A                      A                      A
 Frequencies --    861.7400               867.7435               959.8661
 Red. masses --      1.3081                 1.5528                 1.7909
 Frc consts  --      0.5723                 0.6889                 0.9722
 IR Inten    --    123.7049                56.4684                15.3483

                     13                     14                     15
                      A                      A                      A
 Frequencies --    990.1144              1054.2399              1123.7972
 Red. masses --      1.6050                 1.3128                 2.2591
 Frc consts  --      0.9270                 0.8597                 1.6810
 IR Inten    --      6.0933                 9.2127                 0.9996

                     16                     17                     18
                      A                      A                      A
 Frequencies --   1167.3753              1173.2860              1217.7550
 Red. masses --      2.5136                 1.5824                 1.7556
 Frc consts  --      2.0182                 1.2834                 1.5339
 IR Inten    --     64.4173                 7.4443                 9.7959

                     19                     20                     21
                      A                      A                      A
 Frequencies --   1297.8814              1374.2793              1393.4833
 Red. masses --      1.4851                 1.3751                 1.2778
 Frc consts  --      1.4739                 1.5301                 1.4619
 IR Inten    --     11.4357                22.2202                 3.8875

                     22                     23                     24
                      A                      A                      A
 Frequencies --   1420.9070              1468.7475              1486.8402
 Red. masses --      1.3699                 1.1556                 1.1839
 Frc consts  --      1.6296                 1.4688                 1.5420
 IR Inten    --     26.1750                 2.1028                28.9300

                     25                     26                     27
                      A                      A                      A
 Frequencies --   1498.4147              1511.6669              1518.5026
 Red. masses --      1.0485                 1.1289                 1.0726
 Frc consts  --      1.3870                 1.5199                 1.4572
 IR Inten    --      6.8033                 2.1386                 9.8060

                     28                     29                     30
                      A                      A                      A
 Frequencies --   1534.9107              1645.9580              2923.1296
 Red. masses --      1.0479                 1.1048                 1.0819
 Frc consts  --      1.4546                 1.7635                 5.4469
 IR Inten    --     11.2789                40.4200                79.9995

                     31                     32                     33
                      A                      A                      A
 Frequencies --   2959.7285              3039.1066              3063.0476
 Red. masses --      1.0592                 1.0365                 1.0756
 Frc consts  --      5.4666                 5.6405                 5.9459
 IR Inten    --     85.5155                20.2275                46.1204

                     34                     35                     36
                      A                      A                      A
 Frequencies --   3106.6771              3110.2937              3127.3636
 Red. masses --      1.1003                 1.1015                 1.1030
 Frc consts  --      6.2569                 6.2781                 6.3558
 IR Inten    --     33.6783                32.6112                28.7434

                     37                     38                     39
                      A                      A                      A
 Frequencies --   3492.4206              3513.8031              3586.4636
 Red. masses --      1.0492                 1.0737                 1.0932
 Frc consts  --      7.5395                 7.8110                 8.2851
 IR Inten    --      1.3618                 0.0835                 0.0523

 - Thermochemistry -
 -------------------
 Temperature   298.150 Kelvin.  Pressure   1.00000 Atm.
 Atom     1 has atomic number  6 and mass  12.00000

 Molecular mass:    74.08440 amu.
 Principal axes and moments of inertia in atomic units:
                           1         2         3
     Eigenvalues --   233.23732 496.40000 659.87187
           X            0.99999   0.00203   0.00487
           Y           -0.00195   0.99988  -0.01536
           Z           -0.00490   0.01535   0.99987
 This molecule is an asymmetric top.
 Rotational symmetry number  1.
 Rotational temperatures (Kelvin)      0.37135     0.17448     0.13126
 Rotational constants (GHZ):           7.73779     3.63566     2.73499
 Zero-point vibrational energy     363764.2 (Joules/Mol)
                                   86.94172 (Kcal/Mol)
 Warning -- explicit consideration of   8 degrees of freedom as
           vibrations may cause significant error
 Vibrational temperatures:    175.10   321.39   344.96   399.57   462.08
          (Kelvin)            585.49   652.19   755.89  1090.26  1239.85
                             1248.49  1381.03  1424.55  1516.81  1616.89
                             1679.59  1688.09  1752.08  1867.36  1977.28
                             2004.91  2044.37  2113.20  2139.23  2155.88
                             2174.95  2184.78  2208.39  2368.16  4205.73
                             4258.38  4372.59  4407.04  4469.81  4475.01
                             4499.57  5024.81  5055.57  5160.11

 Zero-point correction=                           0.138550 (Hartree/Particle)
 Thermal correction to Energy=                    0.145184
 Thermal correction to Enthalpy=                  0.146128
 Thermal correction to Gibbs Free Energy=         0.109144
 Sum of electronic and zero-point Energies=           -229.707539
 Sum of electronic and thermal Energies=              -229.700906
 Sum of electronic and thermal Enthalpies=            -229.699962
 Sum of electronic and thermal Free Energies=         -229.736946

                     E (Thermal)             CV                S
                      KCal/Mol        Cal/Mol-Kelvin    Cal/Mol-Kelvin
 Total                   91.104             23.651             77.840
 Electronic               0.000              0.000              0.000
 Translational            0.889              2.981             38.824
 Rotational               0.889              2.981             25.838
 Vibrational             89.327             17.689             13.178
 Vibration     1          0.609              1.931              3.073
 Vibration     2          0.649              1.805              1.932
 Vibration     3          0.657              1.780              1.805
 Vibration     4          0.679              1.715              1.548
 Vibration     5          0.707              1.633              1.304
 Vibration     6          0.772              1.455              0.938
 Vibration     7          0.812              1.354              0.786
 Vibration     8          0.880              1.194              0.598

 Normal termination of Gaussian 09 at Thu Sep  8 15:21:22 2022.
