 Gaussian 09, Revision E.01,
 Gaussian 09:  ES64L-G09RevE.01 30-Nov-2015

 --------------------------------
 #P OPT=calcfc Freq B3LYP/6-31G**
 --------------------------------

 --------
 Frag_352
 --------
 Symbolic Z-matrix:
 Charge =  0 Multiplicity = 1

 SCF Done:  E(RB3LYP) =  -303.788564264     A.U. after   15 cycles
 SCF Done:  E(RB3LYP) =  -303.804576771     A.U. after   14 cycles
 SCF Done:  E(RB3LYP) =  -303.802857578     A.U. after   13 cycles
 SCF Done:  E(RB3LYP) =  -303.804701381     A.U. after   11 cycles
 SCF Done:  E(RB3LYP) =  -303.806387216     A.U. after   14 cycles
 SCF Done:  E(RB3LYP) =  -303.763528415     A.U. after   14 cycles
 SCF Done:  E(RB3LYP) =  -303.806407664     A.U. after    8 cycles
 SCF Done:  E(RB3LYP) =  -303.807108734     A.U. after   14 cycles
 SCF Done:  E(RB3LYP) =  -303.787268546     A.U. after   13 cycles
 SCF Done:  E(RB3LYP) =  -303.807286432     A.U. after   10 cycles
 SCF Done:  E(RB3LYP) =  -303.807928530     A.U. after   12 cycles
 SCF Done:  E(RB3LYP) =  -303.807962767     A.U. after   11 cycles
 SCF Done:  E(RB3LYP) =  -303.807982471     A.U. after   12 cycles
 SCF Done:  E(RB3LYP) =  -303.808018334     A.U. after   11 cycles
 SCF Done:  E(RB3LYP) =  -303.808026188     A.U. after   10 cycles
 SCF Done:  E(RB3LYP) =  -303.808030049     A.U. after   10 cycles
 SCF Done:  E(RB3LYP) =  -303.808030739     A.U. after    8 cycles
 SCF Done:  E(RB3LYP) =  -303.808030870     A.U. after    7 cycles
 SCF Done:  E(RB3LYP) =  -303.808030874     A.U. after    6 cycles
 Optimization completed.
    -- Stationary point found.
 Normal termination of Gaussian 09 at Fri Sep 10 21:04:19 2021.

 ----------------------------------------------------------------------
 #P Geom=AllCheck Guess=TCheck SCRF=Check GenChk RB3LYP/6-31G(d,p) Freq
 ----------------------------------------------------------------------

 Structure from the checkpoint file:  "/public/home/users/caep010/.cache/gau_scr/Gau-35129.chk"
 --------
 Frag_352
 --------
 Charge =  0 Multiplicity = 1

                         Standard orientation:
 ---------------------------------------------------------------------
 Center     Atomic      Atomic             Coordinates (Angstroms)
 Number     Number       Type             X           Y           Z
 ---------------------------------------------------------------------
      1          6           0        1.453832    1.264478   -0.005832
      2          6           0        0.651715    0.000854   -0.005828
      3          7           0        1.315279   -1.199045    0.098740
      4          7           0       -0.662756   -0.092236   -0.021814
      5          6           0       -1.599382    1.031449    0.012298
      6          8           0       -1.244117   -1.267671   -0.018582
      7          1           0        2.256978    1.193817   -0.749839
      8          1           0        0.865483    2.147891   -0.246835
      9          1           0        1.931790    1.421351    0.968762
     10          1           0        2.201448   -1.266134   -0.381570
     11          1           0        0.655645   -1.962809   -0.049829
     12          1           0       -2.261911    0.927796   -0.849572
     13          1           0       -1.104062    2.001297   -0.006546
     14          1           0       -2.197091    0.936442    0.921775
 ---------------------------------------------------------------------

 SCF Done:  E(RB3LYP) =  -303.808030874     A.U. after    1 cycles

 The electronic state is 1-A.
 Alpha  occ. eigenvalues --  -19.07731 -14.42977 -14.33860 -10.25803 -10.22085
 Alpha  occ. eigenvalues --  -10.20994  -1.05814  -0.91324  -0.82336  -0.74442
 Alpha  occ. eigenvalues --   -0.71132  -0.56022  -0.53571  -0.49321  -0.47298
 Alpha  occ. eigenvalues --   -0.45159  -0.43123  -0.42087  -0.40978  -0.37855
 Alpha  occ. eigenvalues --   -0.36289  -0.29021  -0.21567  -0.17030
 Alpha virt. eigenvalues --    0.01663   0.07418   0.10520   0.12017   0.14001
 Alpha virt. eigenvalues --    0.15393   0.15834   0.18069   0.18765   0.21098
 Alpha virt. eigenvalues --    0.22818   0.25178   0.36885   0.38780   0.47550

 Mulliken charges:
               1
     1  C   -0.368377
     2  C    0.453253
     3  N   -0.618635
     4  N   -0.045310
     5  C   -0.170356
     6  O   -0.577045
     7  H    0.121963
     8  H    0.125893
     9  H    0.144946
    10  H    0.255053
    11  H    0.291714
    12  H    0.142888
    13  H    0.099919
    14  H    0.144094
 Sum of Mulliken charges =   0.00000

 Dipole moment (field-independent basis, Debye):
    X=              2.6742    Y=              3.2294    Z=             -0.8686  Tot=              4.2819
 Quadrupole moment (field-independent basis, Debye-Ang):
   XX=            -34.0881   YY=            -36.0412   ZZ=            -37.2992
   XY=             -5.5559   XZ=             -2.0543   YZ=              1.4464

  Exact polarizability:  73.698   0.974  55.174  -0.405   0.343  32.969
 Approx polarizability: 123.138  11.896  80.896   1.082  -0.150  46.730

                      1                      2                      3
                      A                      A                      A
 Frequencies --     77.9006               140.8120               160.7710
 Red. masses --      1.0517                 1.1496                 2.7589
 Frc consts  --      0.0038                 0.0134                 0.0420
 IR Inten    --      0.4005                 0.0706                 5.7859

                      4                      5                      6
                      A                      A                      A
 Frequencies --    326.7063               336.1630               405.5449
 Red. masses --      3.3546                 3.0000                 2.6073
 Frc consts  --      0.2110                 0.1997                 0.2526
 IR Inten    --      1.8143                 3.7164                 2.1520

                      7                      8                      9
                      A                      A                      A
 Frequencies --    411.3631               468.3507               550.5650
 Red. masses --      1.1914                 2.4534                 4.1327
 Frc consts  --      0.1188                 0.3171                 0.7381
 IR Inten    --    111.7480                18.5760                25.4123

                     10                     11                     12
                      A                      A                      A
 Frequencies --    588.1299               709.5763               754.1297
 Red. masses --      4.8671                 1.3504                 3.8523
 Frc consts  --      0.9919                 0.4006                 1.2908
 IR Inten    --     42.4436               215.8276                 3.4602

                     13                     14                     15
                      A                      A                      A
 Frequencies --    985.2760              1028.7233              1054.7376
 Red. masses --      2.2100                 1.3942                 1.4168
 Frc consts  --      1.2640                 0.8693                 0.9286
 IR Inten    --     29.4285                 8.2947                10.4899

                     16                     17                     18
                      A                      A                      A
 Frequencies --   1100.5249              1150.1908              1256.4065
 Red. masses --      1.4014                 1.3446                 6.1594
 Frc consts  --      1.0000                 1.0480                 5.7286
 IR Inten    --      2.9023                 0.4673                29.8743

                     19                     20                     21
                      A                      A                      A
 Frequencies --   1295.0866              1399.7435              1443.8288
 Red. masses --      2.2780                 1.6677                 1.5218
 Frc consts  --      2.2511                 1.9252                 1.8692
 IR Inten    --     99.5188                10.5649                14.8367

                     22                     23                     24
                      A                      A                      A
 Frequencies --   1455.1057              1478.0102              1490.4716
 Red. masses --      1.4173                 1.0562                 1.0824
 Frc consts  --      1.7681                 1.3594                 1.4167
 IR Inten    --      2.3066                 2.7464                 8.3719

                     25                     26                     27
                      A                      A                      A
 Frequencies --   1504.4470              1515.2827              1595.2606
 Red. masses --      1.0540                 1.0783                 1.3494
 Frc consts  --      1.4056                 1.4588                 2.0232
 IR Inten    --      9.3719                 9.1429               111.2650

                     28                     29                     30
                      A                      A                      A
 Frequencies --   1703.9404              3036.0340              3071.6017
 Red. masses --      5.1426                 1.0428                 1.0324
 Frc consts  --      8.7971                 5.6630                 5.7388
 IR Inten    --     70.9880                39.3225                31.8936

                     31                     32                     33
                      A                      A                      A
 Frequencies --   3080.9664              3143.5028              3167.1207
 Red. masses --      1.1008                 1.1050                 1.1017
 Frc consts  --      6.1564                 6.4334                 6.5111
 IR Inten    --     16.6409                11.4255                13.7600

                     34                     35                     36
                      A                      A                      A
 Frequencies --   3185.4853              3471.6605              3655.6025
 Red. masses --      1.0967                 1.0517                 1.0929
 Frc consts  --      6.5567                 7.4686                 8.6046
 IR Inten    --     19.1203                28.7586                21.5160

 - Thermochemistry -
 -------------------
 Temperature   298.150 Kelvin.  Pressure   1.00000 Atm.
 Atom     1 has atomic number  6 and mass  12.00000

 Molecular mass:    88.06366 amu.
 Principal axes and moments of inertia in atomic units:
                           1         2         3
     Eigenvalues --   357.99488 521.69635 855.08268
           X            0.99788  -0.06462  -0.00737
           Y            0.06466   0.99789   0.00629
           Z            0.00695  -0.00675   0.99995
 This molecule is an asymmetric top.
 Rotational symmetry number  1.
 Rotational temperatures (Kelvin)      0.24194     0.16602     0.10129
 Rotational constants (GHZ):           5.04125     3.45937     2.11060
 Zero-point vibrational energy     312219.5 (Joules/Mol)
                                   74.62225 (Kcal/Mol)
 Warning -- explicit consideration of  10 degrees of freedom as
           vibrations may cause significant error
 Vibrational temperatures:    112.08   202.60   231.31   470.06   483.66
          (Kelvin)            583.49   591.86   673.85   792.14   846.19
                             1020.92  1085.02  1417.59  1480.10  1517.53
                             1583.41  1654.87  1807.69  1863.34  2013.92
                             2077.34  2093.57  2126.52  2144.45  2164.56
                             2180.15  2295.22  2451.59  4368.17  4419.34
                             4432.82  4522.79  4556.77  4583.20  4994.94
                             5259.59

 Zero-point correction=                           0.118918 (Hartree/Particle)
 Thermal correction to Energy=                    0.126203
 Thermal correction to Enthalpy=                  0.127147
 Thermal correction to Gibbs Free Energy=         0.087998
 Sum of electronic and zero-point Energies=           -303.689113
 Sum of electronic and thermal Energies=              -303.681828
 Sum of electronic and thermal Enthalpies=            -303.680884
 Sum of electronic and thermal Free Energies=         -303.720033

                     E (Thermal)             CV                S
                      KCal/Mol        Cal/Mol-Kelvin    Cal/Mol-Kelvin
 Total                   79.193             25.494             82.395
 Electronic               0.000              0.000              0.000
 Translational            0.889              2.981             39.339
 Rotational               0.889              2.981             26.571
 Vibrational             77.416             19.532             16.485
 Vibration     1          0.599              1.964              3.943
 Vibration     2          0.615              1.912              2.793
 Vibration     3          0.622              1.890              2.541
 Vibration     4          0.710              1.622              1.276
 Vibration     5          0.717              1.603              1.230
 Vibration     6          0.771              1.458              0.942
 Vibration     7          0.775              1.446              0.922
 Vibration     8          0.826              1.320              0.742
 Vibration     9          0.906              1.138              0.543
 Vibration    10          0.945              1.057              0.471

 Optimization completed.
    -- Stationary point found.
 Normal termination of Gaussian 09 at Fri Sep 10 21:04:30 2021.
