 Gaussian 09, Revision E.01,
 Gaussian 09:  ES64L-G09RevE.01 30-Nov-2015

 -------------------------
 #P OPT Freq B3LYP/6-31G**
 -------------------------

 --------
 Frag_135
 --------
 Symbolic Z-matrix:
 Charge =  0 Multiplicity = 1

 SCF Done:  E(RB3LYP) =  -258.248973325     A.U. after   14 cycles
 SCF Done:  E(RB3LYP) =  -258.252943075     A.U. after   13 cycles
 SCF Done:  E(RB3LYP) =  -258.255605497     A.U. after   12 cycles
 SCF Done:  E(RB3LYP) =  -258.255871809     A.U. after   11 cycles
 SCF Done:  E(RB3LYP) =  -258.255942999     A.U. after   10 cycles
 SCF Done:  E(RB3LYP) =  -258.255948413     A.U. after    9 cycles
 SCF Done:  E(RB3LYP) =  -258.255949390     A.U. after    8 cycles
 Optimization completed.
    -- Stationary point found.
 Normal termination of Gaussian 09 at Sat Aug 21 01:35:41 2021.

 ----------------------------------------------------------------------
 #P Geom=AllCheck Guess=TCheck SCRF=Check GenChk RB3LYP/6-31G(d,p) Freq
 ----------------------------------------------------------------------

 Structure from the checkpoint file:  "/public/home/users/caep010/.cache/gau_scr/Gau-114316.chk"
 --------
 Frag_135
 --------
 Charge =  0 Multiplicity = 1

                         Standard orientation:
 ---------------------------------------------------------------------
 Center     Atomic      Atomic             Coordinates (Angstroms)
 Number     Number       Type             X           Y           Z
 ---------------------------------------------------------------------
      1          6           0        0.973184    0.501551    0.000002
      2          7           0       -0.151671    1.183850    0.000028
      3          7           0       -1.149141    0.250946   -0.000053
      4          7           0       -0.671859   -0.949398    0.000053
      5          7           0        0.674898   -0.812423   -0.000025
      6          1           0        1.973390    0.906548    0.000004
      7          1           0        1.271913   -1.626679   -0.000038
 ---------------------------------------------------------------------

 SCF Done:  E(RB3LYP) =  -258.255949390     A.U. after    1 cycles

 The electronic state is 1-A.
 Alpha  occ. eigenvalues --  -14.45144 -14.41544 -14.39756 -14.36786 -10.28328
 Alpha  occ. eigenvalues --   -1.14484  -0.94923  -0.89741  -0.68284  -0.66743
 Alpha  occ. eigenvalues --   -0.59929  -0.50234  -0.49816  -0.38202  -0.33396
 Alpha  occ. eigenvalues --   -0.31252  -0.30650  -0.29313
 Alpha virt. eigenvalues --   -0.02393   0.01400   0.05319   0.10486   0.17816
 Alpha virt. eigenvalues --    0.19768   0.27783   0.32056   0.40554   0.50866
 Alpha virt. eigenvalues --    0.51698   0.59090   0.60174   0.63448   0.66041

 Mulliken charges:
               1
     1  C    0.322466
     2  N   -0.307231
     3  N   -0.082368
     4  N   -0.051510
     5  N   -0.339450
     6  H    0.158648
     7  H    0.299444
 Sum of Mulliken charges =  -0.00000

 Dipole moment (field-independent basis, Debye):
    X=              4.9194    Y=             -2.0508    Z=             -0.0001  Tot=              5.3298
 Quadrupole moment (field-independent basis, Debye-Ang):
   XX=            -25.7903   YY=            -28.8209   ZZ=            -28.1012
   XY=             -1.5837   XZ=             -0.0001   YZ=              0.0001

  Exact polarizability:  38.543   0.007  36.453   0.000  -0.000  15.652
 Approx polarizability:  68.518  -2.202  68.665   0.000  -0.000  24.200

                      1                      2                      3
                      A                      A                      A
 Frequencies --    575.8784               689.7929               736.8242
 Red. masses --      1.7340                 2.0248                 8.3992
 Frc consts  --      0.3388                 0.5676                 2.6867
 IR Inten    --     87.8646                 8.7124                 8.1655

                      4                      5                      6
                      A                      A                      A
 Frequencies --    853.5734               970.2354              1009.1512
 Red. masses --      1.3526                 4.9326                 6.0083
 Frc consts  --      0.5806                 2.7358                 3.6051
 IR Inten    --     16.3362                 4.0690                 0.3136

                      7                      8                      9
                      A                      A                      A
 Frequencies --   1043.4675              1068.4546              1149.6555
 Red. masses --      4.9831                 3.6006                 1.9325
 Frc consts  --      3.1967                 2.4218                 1.5049
 IR Inten    --     17.3511                27.9352                15.8401

                     10                     11                     12
                      A                      A                      A
 Frequencies --   1270.1224              1299.6008              1463.9926
 Red. masses --      2.2856                10.8310                 3.1580
 Frc consts  --      2.1724                10.7781                 3.9879
 IR Inten    --      2.8404                16.1219                 9.2520

                     13                     14                     15
                      A                      A                      A
 Frequencies --   1514.3229              3300.6198              3665.3605
 Red. masses --      3.3142                 1.1003                 1.0837
 Frc consts  --      4.4778                 7.0623                 8.5782
 IR Inten    --     17.7149                 1.0136                86.0377

 - Thermochemistry -
 -------------------
 Temperature   298.150 Kelvin.  Pressure   1.00000 Atm.
 Atom     1 has atomic number  6 and mass  12.00000

 Molecular mass:    70.02795 amu.
 Principal axes and moments of inertia in atomic units:
                           1         2         3
     Eigenvalues --   171.95535 175.01731 346.97266
           X            0.39247   0.91977  -0.00000
           Y            0.91977  -0.39247   0.00000
           Z           -0.00000   0.00000   1.00000
 This molecule is an asymmetric top.
 Rotational symmetry number  1.
 Rotational temperatures (Kelvin)      0.50370     0.49489     0.24963
 Rotational constants (GHZ):          10.49541    10.31179     5.20139
 Zero-point vibrational energy     123281.5 (Joules/Mol)
                                   29.46498 (Kcal/Mol)
 Warning -- explicit consideration of   1 degrees of freedom as
           vibrations may cause significant error
 Vibrational temperatures:    828.56   992.46  1060.12  1228.10  1395.95
          (Kelvin)           1451.94  1501.32  1537.27  1654.10  1827.42
                             1869.83  2106.36  2178.77  4748.85  5273.63

 Zero-point correction=                           0.046955 (Hartree/Particle)
 Thermal correction to Energy=                    0.050432
 Thermal correction to Enthalpy=                  0.051377
 Thermal correction to Gibbs Free Energy=         0.020854
 Sum of electronic and zero-point Energies=           -258.208994
 Sum of electronic and thermal Energies=              -258.205517
 Sum of electronic and thermal Enthalpies=            -258.204573
 Sum of electronic and thermal Free Energies=         -258.235096

                     E (Thermal)             CV                S
                      KCal/Mol        Cal/Mol-Kelvin    Cal/Mol-Kelvin
 Total                   31.647             11.347             64.241
 Electronic               0.000              0.000              0.000
 Translational            0.889              2.981             38.656
 Rotational               0.889              2.981             23.861
 Vibrational             29.869              5.386              1.724
 Vibration     1          0.932              1.083              0.493

 Optimization completed.
    -- Stationary point found.
 Normal termination of Gaussian 09 at Sat Aug 21 01:35:47 2021.
