 Gaussian 09, Revision E.01,
 Gaussian 09:  ES64L-G09RevE.01 30-Nov-2015

 -------------------------
 #P OPT Freq B3LYP/6-31G**
 -------------------------

 --------
 Frag_239
 --------
 Symbolic Z-matrix:
 Charge =  0 Multiplicity = 1

 SCF Done:  E(RB3LYP) =  -171.996785346     A.U. after   13 cycles
 SCF Done:  E(RB3LYP) =  -171.999217804     A.U. after   12 cycles
 SCF Done:  E(RB3LYP) =  -171.993633635     A.U. after   13 cycles
 SCF Done:  E(RB3LYP) =  -171.999390665     A.U. after   10 cycles
 SCF Done:  E(RB3LYP) =  -171.999445319     A.U. after   11 cycles
 SCF Done:  E(RB3LYP) =  -171.999505927     A.U. after   11 cycles
 SCF Done:  E(RB3LYP) =  -171.999584712     A.U. after   10 cycles
 SCF Done:  E(RB3LYP) =  -171.999565022     A.U. after   11 cycles
 SCF Done:  E(RB3LYP) =  -171.999599219     A.U. after   10 cycles
 SCF Done:  E(RB3LYP) =  -171.999602160     A.U. after    8 cycles
 Optimization completed.
    -- Stationary point found.
 Normal termination of Gaussian 09 at Sat Aug 21 01:39:08 2021.

 ----------------------------------------------------------------------
 #P Geom=AllCheck Guess=TCheck SCRF=Check GenChk RB3LYP/6-31G(d,p) Freq
 ----------------------------------------------------------------------

 Structure from the checkpoint file:  "/public/home/users/caep010/.cache/gau_scr/Gau-214252.chk"
 --------
 Frag_239
 --------
 Charge =  0 Multiplicity = 1

                         Standard orientation:
 ---------------------------------------------------------------------
 Center     Atomic      Atomic             Coordinates (Angstroms)
 Number     Number       Type             X           Y           Z
 ---------------------------------------------------------------------
      1          6           0        1.953728   -0.230753   -0.012505
      2          6           0        0.806116    0.144181   -0.008010
      3          6           0       -0.585529    0.599620    0.040296
      4          7           0       -1.523137   -0.521099   -0.123316
      5          1           0        2.965708   -0.562846   -0.035219
      6          1           0       -0.757017    1.304141   -0.784035
      7          1           0       -0.723145    1.179147    0.971358
      8          1           0       -1.394317   -1.181121    0.640048
      9          1           0       -2.475165   -0.169916   -0.047628
 ---------------------------------------------------------------------

 SCF Done:  E(RB3LYP) =  -171.999602160     A.U. after    1 cycles

 The electronic state is 1-A.
 Alpha  occ. eigenvalues --  -14.32011 -10.23566 -10.18383 -10.17644  -0.88881
 Alpha  occ. eigenvalues --   -0.75104  -0.67571  -0.53071  -0.49620  -0.46223
 Alpha  occ. eigenvalues --   -0.43431  -0.40216  -0.26787  -0.26598  -0.23999
 Alpha virt. eigenvalues --    0.04013   0.06071   0.10504   0.12814   0.13598
 Alpha virt. eigenvalues --    0.15659   0.18589   0.24349   0.25606   0.42361
 Alpha virt. eigenvalues --    0.46712   0.53240   0.54083   0.58271   0.64558

 Mulliken charges:
               1
     1  C   -0.413984
     2  C    0.288324
     3  C   -0.172859
     4  N   -0.587898
     5  H    0.152654
     6  H    0.137514
     7  H    0.110399
     8  H    0.245217
     9  H    0.240632
 Sum of Mulliken charges =   0.00000

 Dipole moment (field-independent basis, Debye):
    X=             -0.8005    Y=              0.6515    Z=              1.2871  Tot=              1.6499
 Quadrupole moment (field-independent basis, Debye-Ang):
   XX=            -18.1587   YY=            -24.1418   ZZ=            -25.4548
   XY=             -2.2730   XZ=             -1.9953   YZ=             -1.9060

  Exact polarizability:  52.845  -5.885  28.123  -0.083  -0.991  22.589
 Approx polarizability:  79.326 -13.381  38.898   0.654  -1.411  30.422

                      1                      2                      3
                      A                      A                      A
 Frequencies --    201.3885               251.2690               351.4413
 Red. masses --      2.1036                 1.5316                 2.7535
 Frc consts  --      0.0503                 0.0570                 0.2004
 IR Inten    --     13.3807                40.1731                 6.6734

                      4                      5                      6
                      A                      A                      A
 Frequencies --    546.6565               606.0717               648.9166
 Red. masses --      5.6173                 1.2000                 1.2243
 Frc consts  --      0.9890                 0.2597                 0.3037
 IR Inten    --      3.4031                48.5393                39.1817

                      7                      8                      9
                      A                      A                      A
 Frequencies --    849.1290               891.5587              1012.6114
 Red. masses --      1.2602                 3.0559                 2.0680
 Frc consts  --      0.5353                 1.4311                 1.2493
 IR Inten    --    138.9511                 6.2936                29.3061

                     10                     11                     12
                      A                      A                      A
 Frequencies --   1087.7315              1189.2432              1307.1103
 Red. masses --      2.2422                 1.1718                 1.1758
 Frc consts  --      1.5630                 0.9764                 1.1836
 IR Inten    --      8.6718                 0.8671                 8.7378

                     13                     14                     15
                      A                      A                      A
 Frequencies --   1427.7855              1510.4739              1661.6713
 Red. masses --      1.4017                 1.0792                 1.0867
 Frc consts  --      1.6836                 1.4507                 1.7679
 IR Inten    --     31.7327                 0.3722                23.3204

                     16                     17                     18
                      A                      A                      A
 Frequencies --   2243.9503              2944.2122              3046.4409
 Red. masses --      5.9488                 1.0737                 1.0859
 Frc consts  --     17.6485                 5.4835                 5.9378
 IR Inten    --      0.2292                69.9099                22.0216

                     19                     20                     21
                      A                      A                      A
 Frequencies --   3488.5380              3490.4548              3579.1506
 Red. masses --      1.0494                 1.1609                 1.0932
 Frc consts  --      7.5246                 8.3334                 8.2508
 IR Inten    --      1.1279                55.2246                 0.0906

 - Thermochemistry -
 -------------------
 Temperature   298.150 Kelvin.  Pressure   1.00000 Atm.
 Atom     1 has atomic number  6 and mass  12.00000

 Molecular mass:    55.04220 amu.
 Principal axes and moments of inertia in atomic units:
                           1         2         3
     Eigenvalues --    57.31174 394.28224 436.06984
           X            0.99983  -0.01596  -0.00886
           Y            0.01550   0.99865  -0.04954
           Z            0.00963   0.04939   0.99873
 This molecule is an asymmetric top.
 Rotational symmetry number  1.
 Rotational temperatures (Kelvin)      1.51128     0.21967     0.19862
 Rotational constants (GHZ):          31.48991     4.57728     4.13865
 Zero-point vibrational energy     193411.1 (Joules/Mol)
                                   46.22635 (Kcal/Mol)
 Warning -- explicit consideration of   5 degrees of freedom as
           vibrations may cause significant error
 Vibrational temperatures:    289.75   361.52   505.64   786.52   872.00
          (Kelvin)            933.65  1221.71  1282.75  1456.92  1565.00
                             1711.05  1880.64  2054.26  2173.23  2390.77
                             3228.54  4236.06  4383.14  5019.22  5021.98
                             5149.59

 Zero-point correction=                           0.073666 (Hartree/Particle)
 Thermal correction to Energy=                    0.078610
 Thermal correction to Enthalpy=                  0.079554
 Thermal correction to Gibbs Free Energy=         0.046922
 Sum of electronic and zero-point Energies=           -171.925936
 Sum of electronic and thermal Energies=              -171.920992
 Sum of electronic and thermal Enthalpies=            -171.920048
 Sum of electronic and thermal Free Energies=         -171.952680

                     E (Thermal)             CV                S
                      KCal/Mol        Cal/Mol-Kelvin    Cal/Mol-Kelvin
 Total                   49.329             16.540             68.680
 Electronic               0.000              0.000              0.000
 Translational            0.889              2.981             37.938
 Rotational               0.889              2.981             23.803
 Vibrational             47.551             10.578              6.938
 Vibration     1          0.638              1.838              2.120
 Vibration     2          0.663              1.761              1.722
 Vibration     3          0.728              1.572              1.160
 Vibration     4          0.902              1.147              0.551
 Vibration     5          0.965              1.019              0.439

 Normal termination of Gaussian 09 at Sat Aug 21 01:39:14 2021.
