 Gaussian 09, Revision D.01,
 Gaussian 09:  ES64L-G09RevD.01 24-Apr-2013

 -------------------------
 #P OPT Freq B3LYP/6-31G**
 -------------------------

 -------
 Frag_21
 -------
 Symbolic Z-matrix:
 Charge =  0 Multiplicity = 1

 SCF Done:  E(RB3LYP) =  -212.584151821     A.U. after   13 cycles
 Optimization completed.
    -- Stationary point found.
 Normal termination of Gaussian 09 at Fri Jul 23 17:40:02 2021.

 ----------------------------------------------------------------------
 #P Geom=AllCheck Guess=TCheck SCRF=Check GenChk RB3LYP/6-31G(d,p) Freq
 ----------------------------------------------------------------------

 Structure from the checkpoint file:  "/vol2/users/liuj201281/HOFBenchmark/IsodesmicSplit/Sample60/Ring26/Running/Gau-518263.chk"
 -------
 Frag_21
 -------
 Charge =  0 Multiplicity = 1

                         Standard orientation:
 ---------------------------------------------------------------------
 Center     Atomic      Atomic             Coordinates (Angstroms)
 Number     Number       Type             X           Y           Z
 ---------------------------------------------------------------------
      1          6           0       -1.656779   -0.866768    0.147690
      2          6           0       -0.574404   -0.093332   -0.047610
      3          6           0       -0.660654    1.412466   -0.047710
      4          7           0        0.687113   -0.630490   -0.341010
      5          6           0        1.901093   -0.020449    0.186590
      6          1           0       -2.641093   -0.429900    0.260390
      7          1           0       -1.591043   -1.951365    0.160790
      8          1           0       -0.099469    1.854084    0.784390
      9          1           0       -1.699865    1.732431    0.044490
     10          1           0       -0.249168    1.829079   -0.974510
     11          1           0        0.695347   -1.639289   -0.248710
     12          1           0        2.000559    1.006254   -0.175410
     13          1           0        2.763512   -0.579821   -0.185810
     14          1           0        1.955892    0.000452    1.287690
 ---------------------------------------------------------------------

 SCF Done:  E(RB3LYP) =  -212.584151821     A.U. after    1 cycles

 The electronic state is 1-A.
 Alpha  occ. eigenvalues --  -14.33251 -10.21264 -10.21135 -10.17925 -10.14789
 Alpha  occ. eigenvalues --   -0.91605  -0.76149  -0.69379  -0.65338  -0.55127
 Alpha  occ. eigenvalues --   -0.47714  -0.46311  -0.43600  -0.40532  -0.39261
 Alpha  occ. eigenvalues --   -0.38666  -0.37541  -0.34601  -0.29033  -0.18953
 Alpha virt. eigenvalues --    0.04962   0.08563   0.11472   0.13712   0.15156
 Alpha virt. eigenvalues --    0.16180   0.16657   0.18009   0.19281   0.20952
 Alpha virt. eigenvalues --    0.23130   0.25451   0.35359   0.39634   0.49692

 Mulliken charges:
               1
     1  C   -0.331063
     2  C    0.333107
     3  C   -0.372985
     4  N   -0.530330
     5  C   -0.178427
     6  H    0.081559
     7  H    0.067720
     8  H    0.115914
     9  H    0.115537
    10  H    0.121767
    11  H    0.244871
    12  H    0.121929
    13  H    0.111060
    14  H    0.099340
 Sum of Mulliken charges =   0.00000

 Dipole moment (field-independent basis, Debye):
    X=              1.2690    Y=              0.1627    Z=              0.5047  Tot=              1.3753
 Quadrupole moment (field-independent basis, Debye-Ang):
   XX=            -31.0490   YY=            -29.3972   ZZ=            -35.0356
   XY=             -1.5525   XZ=              0.3762   YZ=             -0.1880

  Exact polarizability:  66.678   6.031  53.187  -2.219  -0.741  33.222
 Approx polarizability:  91.880  12.756  72.486  -6.052  -1.545  47.529

                      1                      2                      3
                      A                      A                      A
 Frequencies --    115.1152               185.6744               223.1666
 Red. masses --      2.3452                 1.1094                 1.1770
 Frc consts  --      0.0183                 0.0225                 0.0345
 IR Inten    --      4.1990                 1.4454                 1.4561

                      4                      5                      6
                      A                      A                      A
 Frequencies --    292.4521               433.2373               469.9994
 Red. masses --      2.0216                 2.1871                 2.1208
 Frc consts  --      0.1019                 0.2419                 0.2760
 IR Inten    --      1.3010                 3.9646                22.0520

                      7                      8                      9
                      A                      A                      A
 Frequencies --    536.9596               656.6132               749.4032
 Red. masses --      2.0821                 1.2654                 1.2747
 Frc consts  --      0.3537                 0.3214                 0.4218
 IR Inten    --      8.6888                67.9865                18.5942

                     10                     11                     12
                      A                      A                      A
 Frequencies --    803.1876               820.6987               959.9909
 Red. masses --      1.4378                 2.8913                 1.6036
 Frc consts  --      0.5465                 1.1474                 0.8707
 IR Inten    --     69.2077                 4.8046                 2.8946

                     13                     14                     15
                      A                      A                      A
 Frequencies --   1025.7203              1074.9009              1118.3155
 Red. masses --      1.3353                 1.5003                 1.6366
 Frc consts  --      0.8277                 1.0213                 1.2059
 IR Inten    --      2.9646                 1.3962                 4.0789

                     16                     17                     18
                      A                      A                      A
 Frequencies --   1153.5060              1180.9883              1363.0571
 Red. masses --      1.3908                 2.3649                 2.4704
 Frc consts  --      1.0903                 1.9433                 2.7042
 IR Inten    --     25.0696                28.2925                75.0657

                     19                     20                     21
                      A                      A                      A
 Frequencies --   1416.8786              1433.3603              1476.5510
 Red. masses --      1.2243                 1.4645                 1.1769
 Frc consts  --      1.4481                 1.7727                 1.5118
 IR Inten    --     11.0378                20.4436                 5.8734

                     22                     23                     24
                      A                      A                      A
 Frequencies --   1494.0569              1499.2976              1509.6389
 Red. masses --      1.0450                 1.1311                 1.0905
 Frc consts  --      1.3743                 1.4981                 1.4643
 IR Inten    --      6.7825                17.5629                 5.8256

                     25                     26                     27
                      A                      A                      A
 Frequencies --   1516.3503              1539.9082              1721.1175
 Red. masses --      1.0862                 1.0953                 4.6366
 Frc consts  --      1.4715                 1.5304                 8.0923
 IR Inten    --      2.7001                13.8135               126.2986

                     28                     29                     30
                      A                      A                      A
 Frequencies --   2976.5763              3038.5371              3089.8342
 Red. masses --      1.0579                 1.0395                 1.0815
 Frc consts  --      5.5226                 5.6547                 6.0835
 IR Inten    --     93.6510                23.1310                45.5787

                     31                     32                     33
                      A                      A                      A
 Frequencies --   3091.4576              3130.0470              3147.0208
 Red. masses --      1.0951                 1.1032                 1.0990
 Frc consts  --      6.1663                 6.3680                 6.4127
 IR Inten    --     12.1971                26.8982                15.7355

                     34                     35                     36
                      A                      A                      A
 Frequencies --   3159.8499              3254.3076              3575.4336
 Red. masses --      1.0628                 1.1132                 1.0749
 Frc consts  --      6.2524                 6.9459                 8.0964
 IR Inten    --      7.3302                15.9128                 1.7561

 - Thermochemistry -
 -------------------
 Temperature   298.150 Kelvin.  Pressure   1.00000 Atm.
 Atom     1 has atomic number  6 and mass  12.00000

 Molecular mass:    71.07350 amu.
 Principal axes and moments of inertia in atomic units:
                           1         2         3
     Eigenvalues --   222.68334 451.94991 633.08583
           X            0.99998  -0.00060   0.00555
           Y            0.00064   0.99998  -0.00611
           Z           -0.00555   0.00611   0.99997
 This molecule is an asymmetric top.
 Rotational symmetry number  1.
 Rotational temperatures (Kelvin)      0.38896     0.19164     0.13681
 Rotational constants (GHZ):           8.10452     3.99323     2.85071
 Zero-point vibrational energy     330368.0 (Joules/Mol)
                                   78.95984 (Kcal/Mol)
 Warning -- explicit consideration of   7 degrees of freedom as
           vibrations may cause significant error
 Vibrational temperatures:    165.62   267.14   321.09   420.77   623.33
          (Kelvin)            676.22   772.56   944.72  1078.22  1155.61
                             1180.80  1381.21  1475.78  1546.54  1609.00
                             1659.64  1699.18  1961.13  2038.57  2062.28
                             2124.42  2149.61  2157.15  2172.03  2181.69
                             2215.58  2476.30  4282.62  4371.77  4445.58
                             4447.91  4503.43  4527.86  4546.31  4682.22
                             5144.25

 Zero-point correction=                           0.125831 (Hartree/Particle)
 Thermal correction to Energy=                    0.132226
 Thermal correction to Enthalpy=                  0.133170
 Thermal correction to Gibbs Free Energy=         0.096626
 Sum of electronic and zero-point Energies=           -212.458321
 Sum of electronic and thermal Energies=              -212.451926
 Sum of electronic and thermal Enthalpies=            -212.450982
 Sum of electronic and thermal Free Energies=         -212.487526

                     E (Thermal)             CV                S
                      KCal/Mol        Cal/Mol-Kelvin    Cal/Mol-Kelvin
 Total                   82.973             22.634             76.913
 Electronic               0.000              0.000              0.000
 Translational            0.889              2.981             38.700
 Rotational               0.889              2.981             25.658
 Vibrational             81.195             16.673             12.555
 Vibration     1          0.608              1.937              3.181
 Vibration     2          0.632              1.859              2.271
 Vibration     3          0.649              1.806              1.933
 Vibration     4          0.688              1.688              1.460
 Vibration     5          0.794              1.398              0.848
 Vibration     6          0.827              1.317              0.738
 Vibration     7          0.892              1.168              0.572

 Optimization completed.
    -- Stationary point found.
 Normal termination of Gaussian 09 at Fri Jul 23 17:40:52 2021.
