 Gaussian 09, Revision E.01,
 Gaussian 09:  ES64L-G09RevE.01 30-Nov-2015

 -------------------------
 #P OPT Freq B3LYP/6-31G**
 -------------------------

 --------
 Frag_257
 --------
 Symbolic Z-matrix:
 Charge =  0 Multiplicity = 1

 SCF Done:  E(RB3LYP) =  -209.119072967     A.U. after   14 cycles
 SCF Done:  E(RB3LYP) =  -209.139368196     A.U. after   13 cycles
 SCF Done:  E(RB3LYP) =  -209.141364139     A.U. after   11 cycles
 SCF Done:  E(RB3LYP) =  -209.141594999     A.U. after   11 cycles
 SCF Done:  E(RB3LYP) =  -209.141625019     A.U. after    9 cycles
 SCF Done:  E(RB3LYP) =  -209.141625488     A.U. after    8 cycles
 Optimization completed.
    -- Stationary point found.
 Normal termination of Gaussian 09 at Sat Aug 21 01:37:13 2021.

 ----------------------------------------------------------------------
 #P Geom=AllCheck Guess=TCheck SCRF=Check GenChk RB3LYP/6-31G(d,p) Freq
 ----------------------------------------------------------------------

 Structure from the checkpoint file:  "/public/home/users/caep010/.cache/gau_scr/Gau-104877.chk"
 --------
 Frag_257
 --------
 Charge =  0 Multiplicity = 1

                         Standard orientation:
 ---------------------------------------------------------------------
 Center     Atomic      Atomic             Coordinates (Angstroms)
 Number     Number       Type             X           Y           Z
 ---------------------------------------------------------------------
      1          6           0        1.420069   -0.492643    0.000002
      2          6           0        0.521365    0.708613   -0.000002
      3          7           0       -0.757403    0.698675    0.000008
      4          8           0       -1.250707   -0.622800   -0.000005
      5          1           0        2.471413   -0.199017    0.000011
      6          1           0        1.223232   -1.117602    0.877886
      7          1           0        1.223246   -1.117597   -0.877889
      8          1           0        0.947518    1.710119   -0.000026
      9          1           0       -2.206535   -0.480047   -0.000001
 ---------------------------------------------------------------------

 SCF Done:  E(RB3LYP) =  -209.141625488     A.U. after    1 cycles

 The electronic state is 1-A.
 Alpha  occ. eigenvalues --  -19.18203 -14.37698 -10.21959 -10.18833  -1.07082
 Alpha  occ. eigenvalues --   -0.85765  -0.72190  -0.58115  -0.48727  -0.46716
 Alpha  occ. eigenvalues --   -0.43012  -0.41053  -0.37896  -0.37605  -0.27079
 Alpha  occ. eigenvalues --   -0.25178
 Alpha virt. eigenvalues --    0.00795   0.07387   0.12933   0.13179   0.15196
 Alpha virt. eigenvalues --    0.18347   0.19118   0.28184   0.33075   0.53488
 Alpha virt. eigenvalues --    0.54801   0.56877   0.62136   0.63421   0.71659

 Mulliken charges:
               1
     1  C   -0.350405
     2  C    0.095808
     3  N   -0.157626
     4  O   -0.431477
     5  H    0.110522
     6  H    0.142648
     7  H    0.142648
     8  H    0.114567
     9  H    0.333316
 Sum of Mulliken charges =  -0.00000

 Dipole moment (field-independent basis, Debye):
    X=              0.4956    Y=             -0.3077    Z=             -0.0000  Tot=              0.5834
 Quadrupole moment (field-independent basis, Debye-Ang):
   XX=            -18.5886   YY=            -25.0291   ZZ=            -24.7308
   XY=              1.9993   XZ=             -0.0000   YZ=             -0.0001

  Exact polarizability:  45.191   3.280  31.386  -0.000  -0.000  20.074
 Approx polarizability:  67.047   7.040  44.612  -0.000   0.000  27.701

                      1                      2                      3
                      A                      A                      A
 Frequencies --     31.6761               280.7490               396.1489
 Red. masses --      1.0496                 3.3759                 1.4403
 Frc consts  --      0.0006                 0.1568                 0.1332
 IR Inten    --      0.0780                 1.1288                84.3614

                      4                      5                      6
                      A                      A                      A
 Frequencies --    522.6684               686.4088               840.3788
 Red. masses --      2.2009                 3.1197                 1.1120
 Frc consts  --      0.3542                 0.8660                 0.4627
 IR Inten    --     38.9483                14.2925                16.1325

                      7                      8                      9
                      A                      A                      A
 Frequencies --    929.1127               973.0307              1055.6395
 Red. masses --      6.4140                 2.2670                 1.5335
 Frc consts  --      3.2622                 1.2646                 1.0069
 IR Inten    --     63.3102                51.0587                 0.0074

                     10                     11                     12
                      A                      A                      A
 Frequencies --   1119.5713              1342.3704              1374.2831
 Red. masses --      2.0727                 1.2517                 1.1843
 Frc consts  --      1.5307                 1.3289                 1.3179
 IR Inten    --     18.1244                41.9834                42.8843

                     13                     14                     15
                      A                      A                      A
 Frequencies --   1420.3912              1488.2896              1493.8063
 Red. masses --      1.2500                 1.0446                 1.0545
 Frc consts  --      1.4859                 1.3632                 1.3863
 IR Inten    --     11.0885                 7.5570                 8.0594

                     16                     17                     18
                      A                      A                      A
 Frequencies --   1739.2238              3050.7226              3108.1323
 Red. masses --      6.6862                 1.0364                 1.0996
 Frc consts  --     11.9163                 5.6830                 6.2588
 IR Inten    --      4.9009                 8.9450                10.0055

                     19                     20                     21
                      A                      A                      A
 Frequencies --   3146.3478              3177.2811              3820.0791
 Red. masses --      1.1021                 1.0908                 1.0678
 Frc consts  --      6.4280                 6.4878                 9.1805
 IR Inten    --     14.1258                14.1577                66.1558

 - Thermochemistry -
 -------------------
 Temperature   298.150 Kelvin.  Pressure   1.00000 Atm.
 Atom     1 has atomic number  6 and mass  12.00000

 Molecular mass:    59.03711 amu.
 Principal axes and moments of inertia in atomic units:
                           1         2         3
     Eigenvalues --   104.40356 274.38749 367.69622
           X            0.99992  -0.01282  -0.00000
           Y            0.01282   0.99992  -0.00000
           Z            0.00000   0.00000   1.00000
 This molecule is an asymmetric top.
 Rotational symmetry number  1.
 Rotational temperatures (Kelvin)      0.82961     0.31566     0.23556
 Rotational constants (GHZ):          17.28620     6.57735     4.90824
 Zero-point vibrational energy     191380.4 (Joules/Mol)
                                   45.74102 (Kcal/Mol)
 Warning -- explicit consideration of   4 degrees of freedom as
           vibrations may cause significant error
 Vibrational temperatures:     45.57   403.93   569.97   752.00   987.59
          (Kelvin)           1209.12  1336.78  1399.97  1518.83  1610.81
                             1931.37  1977.28  2043.62  2141.31  2149.25
                             2502.35  4389.30  4471.90  4526.89  4571.39
                             5496.23

 Zero-point correction=                           0.072893 (Hartree/Particle)
 Thermal correction to Energy=                    0.077929
 Thermal correction to Enthalpy=                  0.078874
 Thermal correction to Gibbs Free Energy=         0.044761
 Sum of electronic and zero-point Energies=           -209.068733
 Sum of electronic and thermal Energies=              -209.063696
 Sum of electronic and thermal Enthalpies=            -209.062752
 Sum of electronic and thermal Free Energies=         -209.096865

                     E (Thermal)             CV                S
                      KCal/Mol        Cal/Mol-Kelvin    Cal/Mol-Kelvin
 Total                   48.901             15.757             71.796
 Electronic               0.000              0.000              0.000
 Translational            0.889              2.981             38.147
 Rotational               0.889              2.981             23.870
 Vibrational             47.124              9.795              9.780
 Vibration     1          0.594              1.983              5.722
 Vibration     2          0.680              1.709              1.529
 Vibration     3          0.763              1.478              0.977
 Vibration     4          0.878              1.200              0.604

 Optimization completed.
    -- Stationary point found.
 Normal termination of Gaussian 09 at Sat Aug 21 01:37:19 2021.
