 Gaussian 09, Revision E.01,
 Gaussian 09:  ES64L-G09RevE.01 30-Nov-2015

 --------------------------------
 #P OPT=calcfc Freq B3LYP/6-31G**
 --------------------------------

 --------
 Frag_420
 --------
 Symbolic Z-matrix:
 Charge =  0 Multiplicity = 1

 SCF Done:  E(RB3LYP) =  -319.783366568     A.U. after   15 cycles
 SCF Done:  E(RB3LYP) =  -319.807482293     A.U. after   15 cycles
 SCF Done:  E(RB3LYP) =  -319.812159874     A.U. after   14 cycles
 SCF Done:  E(RB3LYP) =  -319.813903049     A.U. after   13 cycles
 SCF Done:  E(RB3LYP) =  -319.746384086     A.U. after   13 cycles
 SCF Done:  E(RB3LYP) =  -319.814040871     A.U. after   11 cycles
 SCF Done:  E(RB3LYP) =  -319.819774834     A.U. after   15 cycles
 SCF Done:  E(RB3LYP) =  -319.759639916     A.U. after   15 cycles
 SCF Done:  E(RB3LYP) =  -319.777174367     A.U. after   12 cycles
 SCF Done:  E(RB3LYP) =  -319.792423320     A.U. after   12 cycles
 SCF Done:  E(RB3LYP) =  -319.826293149     A.U. after   11 cycles
 SCF Done:  E(RB3LYP) =  -319.821691851     A.U. after   15 cycles
 SCF Done:  E(RB3LYP) =  -319.826496771     A.U. after   11 cycles
 SCF Done:  E(RB3LYP) =  -319.826811449     A.U. after   12 cycles
 SCF Done:  E(RB3LYP) =  -319.827009973     A.U. after   12 cycles
 SCF Done:  E(RB3LYP) =  -319.827073658     A.U. after   11 cycles
 SCF Done:  E(RB3LYP) =  -319.827091218     A.U. after   11 cycles
 SCF Done:  E(RB3LYP) =  -319.827096132     A.U. after   11 cycles
 SCF Done:  E(RB3LYP) =  -319.827096648     A.U. after    8 cycles
 Optimization completed.
    -- Stationary point found.
 Normal termination of Gaussian 09 at Fri Sep 10 21:08:15 2021.

 ----------------------------------------------------------------------
 #P Geom=AllCheck Guess=TCheck SCRF=Check GenChk RB3LYP/6-31G(d,p) Freq
 ----------------------------------------------------------------------

 Structure from the checkpoint file:  "/public/home/users/caep010/.cache/gau_scr/Gau-51842.chk"
 --------
 Frag_420
 --------
 Charge =  0 Multiplicity = 1

                         Standard orientation:
 ---------------------------------------------------------------------
 Center     Atomic      Atomic             Coordinates (Angstroms)
 Number     Number       Type             X           Y           Z
 ---------------------------------------------------------------------
      1          6           0       -1.438902    1.243748   -0.005984
      2          6           0       -0.644242   -0.020433    0.001669
      3          7           0       -1.282551   -1.234064    0.088439
      4          7           0        0.669109   -0.079786   -0.013718
      5          7           0        1.416006    1.142278    0.003459
      6          8           0        1.323442   -1.200009   -0.012900
      7          1           0       -2.125460    1.259131   -0.862425
      8          1           0       -0.781342    2.107942   -0.063151
      9          1           0       -2.050114    1.312303    0.901617
     10          1           0       -2.187958   -1.298272   -0.353825
     11          1           0       -0.636319   -1.999655   -0.084692
     12          1           0        2.014348    1.046520    0.827469
     13          1           0        2.060227    1.033222   -0.783162
 ---------------------------------------------------------------------

 SCF Done:  E(RB3LYP) =  -319.827096648     A.U. after    1 cycles

 The electronic state is 1-A.
 Alpha  occ. eigenvalues --  -19.08788 -14.45419 -14.36361 -14.34522 -10.26186
 Alpha  occ. eigenvalues --  -10.19851  -1.08609  -0.92373  -0.89916  -0.79181
 Alpha  occ. eigenvalues --   -0.72292  -0.58121  -0.53642  -0.51952  -0.48665
 Alpha  occ. eigenvalues --   -0.46777  -0.43741  -0.40478  -0.40073  -0.38016
 Alpha  occ. eigenvalues --   -0.30531  -0.29886  -0.22324  -0.17612
 Alpha virt. eigenvalues --    0.01716   0.08145   0.08805   0.12556   0.14184
 Alpha virt. eigenvalues --    0.15134   0.17324   0.17534   0.18836   0.22424
 Alpha virt. eigenvalues --    0.26013   0.35730   0.37896   0.51754   0.52183

 Mulliken charges:
               1
     1  C   -0.376274
     2  C    0.497358
     3  N   -0.620182
     4  N    0.013932
     5  N   -0.441338
     6  O   -0.574198
     7  H    0.116727
     8  H    0.164341
     9  H    0.134944
    10  H    0.260012
    11  H    0.290306
    12  H    0.267944
    13  H    0.266430
 Sum of Mulliken charges =  -0.00000

 Dipole moment (field-independent basis, Debye):
    X=             -2.1005    Y=              1.8133    Z=             -0.8423  Tot=              2.8999
 Quadrupole moment (field-independent basis, Debye-Ang):
   XX=            -30.5945   YY=            -37.6451   ZZ=            -35.4010
   XY=              5.7976   XZ=              1.9428   YZ=              1.6038

  Exact polarizability:  70.105   0.045  50.916   0.470   0.272  30.486
 Approx polarizability: 116.730  -7.894  74.568  -0.787  -0.204  43.601

                      1                      2                      3
                      A                      A                      A
 Frequencies --    117.1369               165.3030               271.7689
 Red. masses --      1.0309                 3.4785                 1.1495
 Frc consts  --      0.0083                 0.0560                 0.0500
 IR Inten    --      7.4338                10.1620                45.9804

                      4                      5                      6
                      A                      A                      A
 Frequencies --    310.9934               332.6506               389.0934
 Red. masses --      3.8885                 3.0607                 2.6494
 Frc consts  --      0.2216                 0.1995                 0.2363
 IR Inten    --      1.1672                 5.6942                 7.9329

                      7                      8                      9
                      A                      A                      A
 Frequencies --    411.2747               506.0073               537.8793
 Red. masses --      1.1391                 3.3245                 3.9507
 Frc consts  --      0.1135                 0.5015                 0.6734
 IR Inten    --     98.6052                34.3177                25.4742

                     10                     11                     12
                      A                      A                      A
 Frequencies --    581.4756               664.8167               757.6536
 Red. masses --      5.5039                 1.3682                 4.8325
 Frc consts  --      1.0964                 0.3563                 1.6344
 IR Inten    --     37.0470               216.4401                 0.8527

                     13                     14                     15
                      A                      A                      A
 Frequencies --    986.7715              1005.6456              1065.0929
 Red. masses --      2.5960                 1.3913                 1.4081
 Frc consts  --      1.4893                 0.8290                 0.9412
 IR Inten    --     42.5039                11.4485                 6.5918

                     16                     17                     18
                      A                      A                      A
 Frequencies --   1082.0151              1239.2271              1304.3040
 Red. masses --      1.4198                 5.0223                 2.1102
 Frc consts  --      0.9794                 4.5442                 2.1151
 IR Inten    --     58.7697                51.1387               133.0668

                     19                     20                     21
                      A                      A                      A
 Frequencies --   1336.0009              1398.4152              1451.1797
 Red. masses --      1.1743                 1.4321                 2.6018
 Frc consts  --      1.2349                 1.6500                 3.2282
 IR Inten    --      1.8436                14.8433                23.0481

                     22                     23                     24
                      A                      A                      A
 Frequencies --   1494.8758              1502.9411              1608.0179
 Red. masses --      1.0609                 1.0545                 1.3325
 Frc consts  --      1.3968                 1.4034                 2.0300
 IR Inten    --     15.2368                 8.5391               101.3835

                     25                     26                     27
                      A                      A                      A
 Frequencies --   1657.4244              1764.1758              3032.6666
 Red. masses --      1.4355                 2.5514                 1.0440
 Frc consts  --      2.3234                 4.6785                 5.6572
 IR Inten    --     41.0122                39.3285                41.1092

                     28                     29                     30
                      A                      A                      A
 Frequencies --   3081.8301              3195.4878              3433.5090
 Red. masses --      1.0987                 1.0956                 1.0487
 Frc consts  --      6.1483                 6.5912                 7.2842
 IR Inten    --     17.5474                 0.4654                 0.5881

                     31                     32                     33
                      A                      A                      A
 Frequencies --   3498.9549              3515.1369              3672.9723
 Red. masses --      1.0912                 1.0493                 1.0965
 Frc consts  --      7.8712                 7.6388                 8.7156
 IR Inten    --      2.3330                24.5027                28.2403

 - Thermochemistry -
 -------------------
 Temperature   298.150 Kelvin.  Pressure   1.00000 Atm.
 Atom     1 has atomic number  6 and mass  12.00000

 Molecular mass:    89.05891 amu.
 Principal axes and moments of inertia in atomic units:
                           1         2         3
     Eigenvalues --   356.97643 504.34252 839.05453
           X            0.99958   0.02812   0.00692
           Y           -0.02817   0.99958   0.00679
           Z           -0.00672  -0.00699   0.99995
 This molecule is an asymmetric top.
 Rotational symmetry number  1.
 Rotational temperatures (Kelvin)      0.24263     0.17174     0.10323
 Rotational constants (GHZ):           5.05563     3.57840     2.15092
 Zero-point vibrational energy     283351.7 (Joules/Mol)
                                   67.72267 (Kcal/Mol)
 Warning -- explicit consideration of  10 degrees of freedom as
           vibrations may cause significant error
 Vibrational temperatures:    168.53   237.83   391.01   447.45   478.61
          (Kelvin)            559.82   591.73   728.03   773.89   836.61
                              956.52  1090.09  1419.74  1446.90  1532.43
                             1556.78  1782.97  1876.60  1922.20  2012.01
                             2087.92  2150.79  2162.39  2313.58  2384.66
                             2538.25  4363.33  4434.06  4597.59  4940.05
                             5034.21  5057.49  5284.58

 Zero-point correction=                           0.107923 (Hartree/Particle)
 Thermal correction to Energy=                    0.114940
 Thermal correction to Enthalpy=                  0.115885
 Thermal correction to Gibbs Free Energy=         0.077676
 Sum of electronic and zero-point Energies=           -319.719174
 Sum of electronic and thermal Energies=              -319.712156
 Sum of electronic and thermal Enthalpies=            -319.711212
 Sum of electronic and thermal Free Energies=         -319.749421

                     E (Thermal)             CV                S
                      KCal/Mol        Cal/Mol-Kelvin    Cal/Mol-Kelvin
 Total                   72.126             25.102             80.418
 Electronic               0.000              0.000              0.000
 Translational            0.889              2.981             39.373
 Rotational               0.889              2.981             26.516
 Vibrational             70.349             19.140             14.529
 Vibration     1          0.608              1.935              3.147
 Vibration     2          0.624              1.885              2.488
 Vibration     3          0.675              1.725              1.585
 Vibration     4          0.700              1.653              1.357
 Vibration     5          0.715              1.610              1.247
 Vibration     6          0.757              1.493              1.004
 Vibration     7          0.775              1.446              0.922
 Vibration     8          0.861              1.237              0.643
 Vibration     9          0.893              1.166              0.570
 Vibration    10          0.938              1.071              0.483

 Optimization completed.
    -- Stationary point found.
 Normal termination of Gaussian 09 at Fri Sep 10 21:08:25 2021.
