 Gaussian 09, Revision E.01,
 Gaussian 09:  ES64L-G09RevE.01 30-Nov-2015

 ----------------------------
 #P OPT Freq B3LYP/6-31G(d,p)
 ----------------------------

 --------
 Frag_509
 --------
 Symbolic Z-matrix:
 Charge =  0 Multiplicity = 1

 SCF Done:  E(RB3LYP) =  -173.268463656     A.U. after   13 cycles
 SCF Done:  E(RB3LYP) =  -173.268493589     A.U. after    9 cycles
 SCF Done:  E(RB3LYP) =  -173.268495910     A.U. after    7 cycles
 Optimization completed.
    -- Stationary point found.
 Normal termination of Gaussian 09 at Thu Sep  8 15:17:24 2022.

 ----------------------------------------------------------------------
 #P Geom=AllCheck Guess=TCheck SCRF=Check GenChk RB3LYP/6-31G(d,p) Freq
 ----------------------------------------------------------------------

 Structure from the checkpoint file:  "B3LYP6-31Gdp.Frag_509.chk"
 --------
 Frag_509
 --------
 Charge =  0 Multiplicity = 1

                         Standard orientation:
 ---------------------------------------------------------------------
 Center     Atomic      Atomic             Coordinates (Angstroms)
 Number     Number       Type             X           Y           Z
 ---------------------------------------------------------------------
      1          6           0       -1.737055   -0.104867    0.234710
      2          7           0       -0.694107   -0.224928   -0.474596
      3          6           0        0.468192    0.577964   -0.116826
      4          6           0        1.670725   -0.323937    0.170975
      5          1           0       -2.620907   -0.699009   -0.005972
      6          1           0       -1.818212    0.574898    1.098010
      7          1           0        0.270811    1.240844    0.744126
      8          1           0        0.697901    1.218587   -0.977976
      9          1           0        2.563968    0.277581    0.366249
     10          1           0        1.483580   -0.954166    1.045999
     11          1           0        1.870430   -0.979202   -0.681421
 ---------------------------------------------------------------------

 SCF Done:  E(RB3LYP) =  -173.268495910     A.U. after    1 cycles

 The electronic state is 1-A.
 Alpha  occ. eigenvalues --  -14.33095 -10.22345 -10.21052 -10.17687  -0.91658
 Alpha  occ. eigenvalues --   -0.75259  -0.64087  -0.57039  -0.47503  -0.47016
 Alpha  occ. eigenvalues --   -0.43115  -0.38583  -0.37423  -0.34389  -0.29954
 Alpha  occ. eigenvalues --   -0.25055
 Alpha virt. eigenvalues --   -0.00347   0.10678   0.12391   0.15390   0.15554
 Alpha virt. eigenvalues --    0.17767   0.18089   0.19059   0.22052   0.23731
 Alpha virt. eigenvalues --    0.33899   0.49622   0.53708   0.54784   0.56319

 Mulliken charges:
               1
     1  C   -0.026951
     2  N   -0.310417
     3  C   -0.059516
     4  C   -0.313143
     5  H    0.105011
     6  H    0.079588
     7  H    0.075583
     8  H    0.114443
     9  H    0.102533
    10  H    0.110148
    11  H    0.122721
 Sum of Mulliken charges =  -0.00000

 Dipole moment (field-independent basis, Debye):
    X=             -0.0297    Y=              0.8023    Z=              1.0875  Tot=              1.3518
 Quadrupole moment (field-independent basis, Debye-Ang):
   XX=            -23.0829   YY=            -26.1557   ZZ=            -26.6899
   XY=              0.2096   XZ=             -1.4795   YZ=             -0.6517

  Exact polarizability:  52.710   3.026  32.920  -5.057   2.906  34.375
 Approx polarizability:  67.900   3.543  44.852 -11.206   5.288  51.623

                      1                      2                      3
                      A                      A                      A
 Frequencies --    116.1471               240.9948               367.8928
 Red. masses --      2.8004                 1.0864                 2.1465
 Frc consts  --      0.0223                 0.0372                 0.1712
 IR Inten    --      6.8548                 0.3530                 6.1008

                      4                      5                      6
                      A                      A                      A
 Frequencies --    484.7279               729.2428               824.0184
 Red. masses --      2.2644                 1.2054                 1.1241
 Frc consts  --      0.3135                 0.3777                 0.4497
 IR Inten    --      4.6310                 1.7821                 1.2332

                      7                      8                      9
                      A                      A                      A
 Frequencies --    869.7692              1039.9398              1061.6592
 Red. masses --      2.1589                 2.9681                 1.3543
 Frc consts  --      0.9622                 1.8913                 0.8994
 IR Inten    --      3.7017                 6.2841                15.4297

                     10                     11                     12
                      A                      A                      A
 Frequencies --   1116.9189              1158.1640              1243.1514
 Red. masses --      1.7458                 1.4516                 1.7142
 Frc consts  --      1.2832                 1.1472                 1.5608
 IR Inten    --      3.3687                 2.2530                18.2104

                     13                     14                     15
                      A                      A                      A
 Frequencies --   1300.6940              1382.3411              1421.3449
 Red. masses --      1.1359                 1.3172                 1.2641
 Frc consts  --      1.1322                 1.4829                 1.5047
 IR Inten    --      1.4111                17.0452                 4.8963

                     16                     17                     18
                      A                      A                      A
 Frequencies --   1500.0439              1504.2186              1508.9016
 Red. masses --      1.0757                 1.0430                 1.1075
 Frc consts  --      1.4262                 1.3904                 1.4856
 IR Inten    --      2.0210                 4.8640                 8.7584

                     19                     20                     21
                      A                      A                      A
 Frequencies --   1527.6173              1751.2148              2961.0010
 Red. masses --      1.0988                 6.2226                 1.0696
 Frc consts  --      1.5107                11.2435                 5.5251
 IR Inten    --      5.9103                22.1332                53.7353

                     22                     23                     24
                      A                      A                      A
 Frequencies --   2996.7870              3050.6685              3054.7538
 Red. masses --      1.0655                 1.0397                 1.0868
 Frc consts  --      5.6377                 5.7012                 5.9750
 IR Inten    --     60.6654                19.8830                24.5745

                     25                     26                     27
                      A                      A                      A
 Frequencies --   3124.2259              3133.8279              3143.1679
 Red. masses --      1.1030                 1.1031                 1.1035
 Frc consts  --      6.3434                 6.3828                 6.4235
 IR Inten    --     33.7976                25.4998                38.7413

 - Thermochemistry -
 -------------------
 Temperature   298.150 Kelvin.  Pressure   1.00000 Atm.
 Atom     1 has atomic number  6 and mass  12.00000

 Molecular mass:    57.05785 amu.
 Principal axes and moments of inertia in atomic units:
                           1         2         3
     Eigenvalues --    73.73111 395.99694 407.54703
           X            0.99990  -0.00521  -0.01278
           Y            0.00585   0.99873   0.05007
           Z            0.01250  -0.05014   0.99866
 This molecule is an asymmetric top.
 Rotational symmetry number  1.
 Rotational temperatures (Kelvin)      1.17473     0.21872     0.21252
 Rotational constants (GHZ):          24.47734     4.55746     4.42830
 Zero-point vibrational energy     254884.9 (Joules/Mol)
                                   60.91896 (Kcal/Mol)
 Warning -- explicit consideration of   4 degrees of freedom as
           vibrations may cause significant error
 Vibrational temperatures:    167.11   346.74   529.31   697.41  1049.22
          (Kelvin)           1185.58  1251.40  1496.24  1527.49  1607.00
                             1666.34  1788.62  1871.41  1988.88  2045.00
                             2158.23  2164.23  2170.97  2197.90  2519.60
                             4260.21  4311.70  4389.23  4395.10  4495.06
                             4508.87  4522.31

 Zero-point correction=                           0.097081 (Hartree/Particle)
 Thermal correction to Energy=                    0.102092
 Thermal correction to Enthalpy=                  0.103036
 Thermal correction to Gibbs Free Energy=         0.069869
 Sum of electronic and zero-point Energies=           -173.171415
 Sum of electronic and thermal Energies=              -173.166404
 Sum of electronic and thermal Enthalpies=            -173.165460
 Sum of electronic and thermal Free Energies=         -173.198627

                     E (Thermal)             CV                S
                      KCal/Mol        Cal/Mol-Kelvin    Cal/Mol-Kelvin
 Total                   64.064             16.433             69.807
 Electronic               0.000              0.000              0.000
 Translational            0.889              2.981             38.046
 Rotational               0.889              2.981             23.991
 Vibrational             62.286             10.472              7.771
 Vibration     1          0.608              1.936              3.164
 Vibration     2          0.658              1.778              1.796
 Vibration     3          0.740              1.538              1.089
 Vibration     4          0.841              1.284              0.697

 Optimization completed.
    -- Stationary point found.
 Normal termination of Gaussian 09 at Thu Sep  8 15:17:32 2022.
