 Gaussian 09, Revision D.01,
 Gaussian 09:  ES64L-G09RevD.01 24-Apr-2013

 -------------------------
 #P OPT Freq B3LYP/6-31G**
 -------------------------

 --------
 Frag_115
 --------
 Symbolic Z-matrix:
 Charge =  0 Multiplicity = 1

 SCF Done:  E(RB3LYP) =  -264.454513151     A.U. after   15 cycles
 SCF Done:  E(RB3LYP) =  -264.470343202     A.U. after   13 cycles
 SCF Done:  E(RB3LYP) =  -264.472948625     A.U. after   13 cycles
 SCF Done:  E(RB3LYP) =  -264.473821420     A.U. after   13 cycles
 SCF Done:  E(RB3LYP) =  -264.474292598     A.U. after   13 cycles
 SCF Done:  E(RB3LYP) =  -264.474655122     A.U. after   12 cycles
 SCF Done:  E(RB3LYP) =  -264.474803287     A.U. after   11 cycles
 SCF Done:  E(RB3LYP) =  -264.474890471     A.U. after   12 cycles
 SCF Done:  E(RB3LYP) =  -264.474924246     A.U. after   10 cycles
 SCF Done:  E(RB3LYP) =  -264.474947625     A.U. after   12 cycles
 SCF Done:  E(RB3LYP) =  -264.474949506     A.U. after    8 cycles
 SCF Done:  E(RB3LYP) =  -264.474949667     A.U. after    8 cycles
 Optimization completed.
    -- Stationary point found.
 Normal termination of Gaussian 09 at Wed Aug  4 09:40:38 2021.

 ----------------------------------------------------------------------
 #P Geom=AllCheck Guess=TCheck SCRF=Check GenChk RB3LYP/6-31G(d,p) Freq
 ----------------------------------------------------------------------

 Structure from the checkpoint file:  "/home/liujian/Isodesmic/Frag_115/Gau-50422.chk"
 --------
 Frag_115
 --------
 Charge =  0 Multiplicity = 1

                         Standard orientation:
 ---------------------------------------------------------------------
 Center     Atomic      Atomic             Coordinates (Angstroms)
 Number     Number       Type             X           Y           Z
 ---------------------------------------------------------------------
      1          6           0        1.761021   -0.482781    0.000022
      2          7           0        0.384252    0.064971   -0.000055
      3          7           0       -0.559300   -0.787302    0.000000
      4          6           0       -1.866156   -0.144916    0.000027
      5          8           0        0.277058    1.315610    0.000002
      6          1           0        1.712980   -1.569013    0.000834
      7          1           0        2.263778   -0.101804   -0.889670
      8          1           0        2.264123   -0.100432    0.888917
      9          1           0       -2.621560   -0.930741   -0.000450
     10          1           0       -1.989891    0.499501    0.879664
     11          1           0       -1.989750    0.500116   -0.879224
 ---------------------------------------------------------------------

 SCF Done:  E(RB3LYP) =  -264.474949667     A.U. after    1 cycles

 The electronic state is 1-A.
 Alpha  occ. eigenvalues --  -19.14597 -14.51411 -14.36466 -10.23764 -10.20821
 Alpha  occ. eigenvalues --   -1.15154  -0.95303  -0.80948  -0.70912  -0.57594
 Alpha  occ. eigenvalues --   -0.51571  -0.50793  -0.49976  -0.43393  -0.43080
 Alpha  occ. eigenvalues --   -0.40270  -0.38398  -0.29928  -0.26400  -0.25507
 Alpha virt. eigenvalues --   -0.03571   0.10575   0.12643   0.12924   0.14778
 Alpha virt. eigenvalues --    0.15526   0.17411   0.18118   0.19752   0.27223
 Alpha virt. eigenvalues --    0.38540   0.48853   0.51674   0.53092   0.56149

 Mulliken charges:
               1
     1  C   -0.169395
     2  N    0.229216
     3  N   -0.259985
     4  C   -0.185305
     5  O   -0.459205
     6  H    0.150109
     7  H    0.154588
     8  H    0.154587
     9  H    0.118579
    10  H    0.133409
    11  H    0.133402
 Sum of Mulliken charges =   0.00000

 Dipole moment (field-independent basis, Debye):
    X=              0.9175    Y=             -1.2901    Z=              0.0000  Tot=              1.5831
 Quadrupole moment (field-independent basis, Debye-Ang):
   XX=            -23.4514   YY=            -35.1248   ZZ=            -29.2579
   XY=             -2.0110   XZ=              0.0000   YZ=              0.0002

  Exact polarizability:  53.101   3.974  41.521  -0.001   0.000  28.293
 Approx polarizability:  68.698  17.311  82.980  -0.002   0.000  39.162

                      1                      2                      3
                      A                      A                      A
 Frequencies --    135.4424               195.7224               255.3278
 Red. masses --      1.1171                 1.0710                 2.4627
 Frc consts  --      0.0121                 0.0242                 0.0946
 IR Inten    --      1.7721                 0.4989                 7.1862

                      4                      5                      6
                      A                      A                      A
 Frequencies --    321.4848               462.8772               642.8491
 Red. masses --      3.0652                 3.3721                 4.1127
 Frc consts  --      0.1867                 0.4257                 1.0014
 IR Inten    --     16.3439                 5.5635                 5.3373

                      7                      8                      9
                      A                      A                      A
 Frequencies --    656.7566               934.6996              1030.4727
 Red. masses --      4.1567                 3.0999                 3.1718
 Frc consts  --      1.0564                 1.5957                 1.9844
 IR Inten    --     14.1076                 4.9150                11.0018

                     10                     11                     12
                      A                      A                      A
 Frequencies --   1093.4522              1131.9168              1152.1521
 Red. masses --      1.3945                 1.8525                 1.4201
 Frc consts  --      0.9824                 1.3984                 1.1106
 IR Inten    --      1.4976                 4.1784                 0.2222

                     13                     14                     15
                      A                      A                      A
 Frequencies --   1194.6620              1392.9593              1429.5029
 Red. masses --      1.8505                 6.4448                 1.2705
 Frc consts  --      1.5560                 7.3678                 1.5297
 IR Inten    --      2.2266                39.7115                12.4048

                     16                     17                     18
                      A                      A                      A
 Frequencies --   1433.3591              1477.6110              1488.9742
 Red. masses --      1.2534                 1.1059                 1.0469
 Frc consts  --      1.5173                 1.4227                 1.3676
 IR Inten    --     23.8440                12.0454                 0.1763

                     19                     20                     21
                      A                      A                      A
 Frequencies --   1489.4804              1490.1038              1619.2033
 Red. masses --      1.0428                 1.0659                 5.0877
 Frc consts  --      1.3631                 1.3944                 7.8591
 IR Inten    --     17.1560                19.9105               142.6639

                     22                     23                     24
                      A                      A                      A
 Frequencies --   3027.2649              3080.9322              3089.1565
 Red. masses --      1.0361                 1.1010                 1.0304
 Frc consts  --      5.5943                 6.1575                 5.7934
 IR Inten    --     16.1879                17.9595                 7.5601

                     25                     26                     27
                      A                      A                      A
 Frequencies --   3160.5939              3175.6252              3211.7578
 Red. masses --      1.1015                 1.1056                 1.1086
 Frc consts  --      6.4830                 6.5694                 6.7374
 IR Inten    --     19.4526                 4.0509                 2.0668

 - Thermochemistry -
 -------------------
 Temperature   298.150 Kelvin.  Pressure   1.00000 Atm.
 Atom     1 has atomic number  6 and mass  12.00000

 Molecular mass:    74.04801 amu.
 Principal axes and moments of inertia in atomic units:
                           1         2         3
     Eigenvalues --   165.57703 421.83709 564.89491
           X            0.99931  -0.03716   0.00000
           Y            0.03716   0.99931   0.00000
           Z            0.00000   0.00000   1.00000
 This molecule is an asymmetric top.
 Rotational symmetry number  1.
 Rotational temperatures (Kelvin)      0.52310     0.20533     0.15333
 Rotational constants (GHZ):          10.89971     4.27829     3.19483
 Zero-point vibrational energy     237903.4 (Joules/Mol)
                                   56.86027 (Kcal/Mol)
 Warning -- explicit consideration of   5 degrees of freedom as
           vibrations may cause significant error
 Vibrational temperatures:    194.87   281.60   367.36   462.54   665.98
          (Kelvin)            924.92   944.93  1344.82  1482.62  1573.23
                             1628.57  1657.69  1718.85  2004.16  2056.73
                             2062.28  2125.95  2142.30  2143.03  2143.92
                             2329.67  4355.55  4432.77  4444.60  4547.38
                             4569.01  4621.00

 Zero-point correction=                           0.090613 (Hartree/Particle)
 Thermal correction to Energy=                    0.096286
 Thermal correction to Enthalpy=                  0.097231
 Thermal correction to Gibbs Free Energy=         0.062040
 Sum of electronic and zero-point Energies=           -264.384337
 Sum of electronic and thermal Energies=              -264.378663
 Sum of electronic and thermal Enthalpies=            -264.377719
 Sum of electronic and thermal Free Energies=         -264.412909

                     E (Thermal)             CV                S
                      KCal/Mol        Cal/Mol-Kelvin    Cal/Mol-Kelvin
 Total                   60.421             18.749             74.064
 Electronic               0.000              0.000              0.000
 Translational            0.889              2.981             38.822
 Rotational               0.889              2.981             25.182
 Vibrational             58.643             12.787             10.060
 Vibration     1          0.613              1.918              2.867
 Vibration     2          0.636              1.846              2.173
 Vibration     3          0.666              1.754              1.694
 Vibration     4          0.707              1.632              1.303
 Vibration     5          0.821              1.332              0.758

 Optimization completed.
    -- Stationary point found.
 Normal termination of Gaussian 09 at Wed Aug  4 09:41:08 2021.
