 Gaussian 09, Revision E.01,
 Gaussian 09:  ES64L-G09RevE.01 30-Nov-2015

 ----------------------------
 #P OPT Freq B3LYP/6-31G(d,p)
 ----------------------------

 ---------
 Frag_1023
 ---------
 Symbolic Z-matrix:
 Charge =  0 Multiplicity = 1

 SCF Done:  E(RB3LYP) =  -363.838130734     A.U. after   12 cycles
 SCF Done:  E(RB3LYP) =  -363.838156664     A.U. after   10 cycles
 SCF Done:  E(RB3LYP) =  -363.838120445     A.U. after   10 cycles
 SCF Done:  E(RB3LYP) =  -363.838172684     A.U. after    9 cycles
 SCF Done:  E(RB3LYP) =  -363.838173156     A.U. after    7 cycles
 SCF Done:  E(RB3LYP) =  -363.838173469     A.U. after    7 cycles
 SCF Done:  E(RB3LYP) =  -363.838173425     A.U. after    6 cycles
 Optimization completed.
    -- Stationary point found.
 Normal termination of Gaussian 09 at Thu Sep  8 14:48:27 2022.

 ----------------------------------------------------------------------
 #P Geom=AllCheck Guess=TCheck SCRF=Check GenChk RB3LYP/6-31G(d,p) Freq
 ----------------------------------------------------------------------

 Structure from the checkpoint file:  "B3LYP6-31Gdp.Frag_1023.chk"
 ---------
 Frag_1023
 ---------
 Charge =  0 Multiplicity = 1

                         Standard orientation:
 ---------------------------------------------------------------------
 Center     Atomic      Atomic             Coordinates (Angstroms)
 Number     Number       Type             X           Y           Z
 ---------------------------------------------------------------------
      1          6           0        1.390534   -1.288314   -0.517246
      2          6           0        0.786323    0.027818    0.015179
      3          6           0        1.318100    1.199513   -0.821609
      4          7           0        1.169493    0.258990    1.430208
      5          6           0       -0.790148   -0.030880   -0.028663
      6          6           0       -1.420074    1.344767    0.249175
      7          7           0       -1.207160   -1.031351    0.986728
      8          7           0       -1.214641   -0.460519   -1.361511
      9          1           0        1.200711   -1.418886   -1.587000
     10          1           0        0.975227   -2.146669    0.019174
     11          1           0        2.476543   -1.278744   -0.372999
     12          1           0        1.084335    2.161417   -0.357491
     13          1           0        0.884980    1.175008   -1.824065
     14          1           0        2.408147    1.130123   -0.917213
     15          1           0        2.118659    0.624589    1.462227
     16          1           0        1.204412   -0.637033    1.912973
     17          1           0       -2.505641    1.235574    0.365122
     18          1           0       -1.240404    2.049836   -0.566478
     19          1           0       -1.014995    1.761478    1.174057
     20          1           0       -1.022626   -0.645831    1.912393
     21          1           0       -2.218658   -1.141522    0.928998
     22          1           0       -1.081123   -1.465726   -1.444604
     23          1           0       -2.211816   -0.290885   -1.474088
 ---------------------------------------------------------------------

 SCF Done:  E(RB3LYP) =  -363.838173425     A.U. after    1 cycles

 The electronic state is 1-A.
 Alpha  occ. eigenvalues --  -14.30638 -14.30551 -14.30300 -10.23338 -10.20993
 Alpha  occ. eigenvalues --  -10.16304 -10.16171 -10.15989  -0.91985  -0.86983
 Alpha  occ. eigenvalues --   -0.82551  -0.74098  -0.70737  -0.67135  -0.61020
 Alpha  occ. eigenvalues --   -0.52565  -0.49566  -0.47679  -0.46217  -0.45247
 Alpha  occ. eigenvalues --   -0.43211  -0.40904  -0.39839  -0.38256  -0.37274
 Alpha  occ. eigenvalues --   -0.36727  -0.35618  -0.35112  -0.32275  -0.31315
 Alpha  occ. eigenvalues --   -0.24583  -0.23944  -0.22128
 Alpha virt. eigenvalues --    0.06854   0.10139   0.11999   0.13543   0.14621
 Alpha virt. eigenvalues --    0.14888   0.15918   0.16244   0.16893   0.17442
 Alpha virt. eigenvalues --    0.18941   0.19728   0.20524   0.21142   0.22019

 Mulliken charges:
               1
     1  C   -0.330973
     2  C    0.185428
     3  C   -0.324889
     4  N   -0.611945
     5  C    0.262633
     6  C   -0.323129
     7  N   -0.606051
     8  N   -0.591100
     9  H    0.107692
    10  H    0.114326
    11  H    0.084575
    12  H    0.105565
    13  H    0.129577
    14  H    0.085145
    15  H    0.233444
    16  H    0.238132
    17  H    0.075543
    18  H    0.110509
    19  H    0.125849
    20  H    0.240330
    21  H    0.219740
    22  H    0.241448
    23  H    0.228151
 Sum of Mulliken charges =  -0.00000

 Dipole moment (field-independent basis, Debye):
    X=             -0.5092    Y=             -0.3657    Z=              0.5653  Tot=              0.8441
 Quadrupole moment (field-independent basis, Debye-Ang):
   XX=            -44.2966   YY=            -53.7610   ZZ=            -53.3067
   XY=              1.0058   XZ=              1.3301   YZ=              0.0682

  Exact polarizability:  81.320   0.651  71.928   0.749  -0.206  72.240
 Approx polarizability: 107.382   2.613  99.709   2.894  -0.521 105.277

                      1                      2                      3
                      A                      A                      A
 Frequencies --    111.8494               212.9731               253.7370
 Red. masses --      3.1153                 1.0771                 1.2743
 Frc consts  --      0.0230                 0.0288                 0.0483
 IR Inten    --      0.3979                67.9946                 1.1318

                      4                      5                      6
                      A                      A                      A
 Frequencies --    261.9577               280.8839               296.4696
 Red. masses --      1.8407                 1.4625                 1.3572
 Frc consts  --      0.0744                 0.0680                 0.0703
 IR Inten    --      2.7691                 6.2563                 1.2916

                      7                      8                      9
                      A                      A                      A
 Frequencies --    310.5360               337.1282               362.7016
 Red. masses --      1.4573                 1.6846                 1.4635
 Frc consts  --      0.0828                 0.1128                 0.1134
 IR Inten    --      9.3794                13.8481                 8.4008

                     10                     11                     12
                      A                      A                      A
 Frequencies --    365.1676               377.0943               393.9576
 Red. masses --      2.2588                 1.9889                 1.8699
 Frc consts  --      0.1775                 0.1666                 0.1710
 IR Inten    --      9.8317                 4.0359                 5.0547

                     13                     14                     15
                      A                      A                      A
 Frequencies --    412.3852               435.2688               511.4310
 Red. masses --      1.3319                 2.5409                 2.7061
 Frc consts  --      0.1334                 0.2836                 0.4170
 IR Inten    --     18.5338                 4.3894                17.3962

                     16                     17                     18
                      A                      A                      A
 Frequencies --    523.2719               533.2249               672.2399
 Red. masses --      3.0370                 2.5369                 2.9140
 Frc consts  --      0.4900                 0.4250                 0.7759
 IR Inten    --      6.0124                18.8453                 1.5497

                     19                     20                     21
                      A                      A                      A
 Frequencies --    827.5462               860.8759               908.6230
 Red. masses --      3.1531                 1.9361                 1.6315
 Frc consts  --      1.2723                 0.8454                 0.7936
 IR Inten    --     42.0799                 8.8151               179.6983

                     22                     23                     24
                      A                      A                      A
 Frequencies --    940.4923               946.0183               962.8191
 Red. masses --      1.4094                 1.4147                 1.3860
 Frc consts  --      0.7345                 0.7460                 0.7570
 IR Inten    --     62.5270                51.0149                13.8246

                     25                     26                     27
                      A                      A                      A
 Frequencies --    974.7563               975.8892              1013.7664
 Red. masses --      1.8572                 1.5624                 1.4113
 Frc consts  --      1.0397                 0.8767                 0.8546
 IR Inten    --      2.7427                21.9183                19.5138

                     28                     29                     30
                      A                      A                      A
 Frequencies --   1042.6348              1063.8649              1115.8552
 Red. masses --      1.4586                 1.5386                 1.4054
 Frc consts  --      0.9343                 1.0260                 1.0310
 IR Inten    --     35.6434                12.8770                 1.4001

                     31                     32                     33
                      A                      A                      A
 Frequencies --   1200.3945              1220.5299              1245.4013
 Red. masses --      2.2816                 2.3084                 2.5158
 Frc consts  --      1.9370                 2.0260                 2.2990
 IR Inten    --     51.7034                 9.6357                23.0073

                     34                     35                     36
                      A                      A                      A
 Frequencies --   1323.5782              1344.5421              1369.4559
 Red. masses --      2.0282                 1.7647                 2.0551
 Frc consts  --      2.0934                 1.8796                 2.2708
 IR Inten    --     13.6882                 4.4051                 3.4593

                     37                     38                     39
                      A                      A                      A
 Frequencies --   1400.3801              1415.3117              1422.3291
 Red. masses --      1.3127                 1.3131                 1.2680
 Frc consts  --      1.5167                 1.5498                 1.5114
 IR Inten    --     10.1233                15.8963                11.4895

                     40                     41                     42
                      A                      A                      A
 Frequencies --   1498.9114              1502.4911              1515.3342
 Red. masses --      1.0513                 1.0502                 1.0526
 Frc consts  --      1.3917                 1.3968                 1.4241
 IR Inten    --      1.0333                 0.2482                 2.9683

                     43                     44                     45
                      A                      A                      A
 Frequencies --   1516.0738              1529.7030              1540.0485
 Red. masses --      1.0480                 1.0513                 1.0642
 Frc consts  --      1.4192                 1.4493                 1.4872
 IR Inten    --      1.5121                 5.1233                 3.9924

                     46                     47                     48
                      A                      A                      A
 Frequencies --   1636.9108              1669.5391              1674.1754
 Red. masses --      1.0965                 1.0940                 1.0925
 Frc consts  --      1.7311                 1.7966                 1.8041
 IR Inten    --     46.0997                33.2320                19.8958

                     49                     50                     51
                      A                      A                      A
 Frequencies --   3037.9526              3040.1153              3046.5033
 Red. masses --      1.0431                 1.0368                 1.0394
 Frc consts  --      5.6721                 5.6455                 5.6836
 IR Inten    --     37.6522                18.5805                25.7737

                     52                     53                     54
                      A                      A                      A
 Frequencies --   3107.7912              3111.5428              3116.1933
 Red. masses --      1.0975                 1.0991                 1.0941
 Frc consts  --      6.2455                 6.2695                 6.2600
 IR Inten    --     14.0010                49.8527                21.6803

                     55                     56                     57
                      A                      A                      A
 Frequencies --   3128.2026              3148.1955              3149.9250
 Red. masses --      1.1030                 1.1026                 1.1028
 Frc consts  --      6.3593                 6.4385                 6.4466
 IR Inten    --     18.5121                13.3273                13.7941

                     58                     59                     60
                      A                      A                      A
 Frequencies --   3465.2039              3482.4414              3488.3467
 Red. masses --      1.0497                 1.0500                 1.0493
 Frc consts  --      7.4260                 7.5024                 7.5233
 IR Inten    --      4.2276                 0.9657                 1.3427

                     61                     62                     63
                      A                      A                      A
 Frequencies --   3549.4822              3564.0703              3573.1094
 Red. masses --      1.0915                 1.0919                 1.0923
 Frc consts  --      8.1020                 8.1719                 8.2161
 IR Inten    --      0.4605                 0.2451                 0.8336

 - Thermochemistry -
 -------------------
 Temperature   298.150 Kelvin.  Pressure   1.00000 Atm.
 Atom     1 has atomic number  6 and mass  12.00000

 Molecular mass:   117.12660 amu.
 Principal axes and moments of inertia in atomic units:
                           1         2         3
     Eigenvalues --   752.830861038.166951049.75694
           X            0.99924  -0.02783  -0.02742
           Y            0.02861   0.99919   0.02828
           Z            0.02661  -0.02904   0.99922
 This molecule is an asymmetric top.
 Rotational symmetry number  1.
 Warning -- assumption of classical behavior for rotation
           may cause significant error
 Rotational temperatures (Kelvin)      0.11505     0.08343     0.08251
 Rotational constants (GHZ):           2.39727     1.73839     1.71920
 Zero-point vibrational energy     558175.2 (Joules/Mol)
                                  133.40707 (Kcal/Mol)
 Warning -- explicit consideration of  17 degrees of freedom as
           vibrations may cause significant error
 Vibrational temperatures:    160.93   306.42   365.07   376.90   404.13
          (Kelvin)            426.55   446.79   485.05   521.85   525.39
                              542.55   566.82   593.33   626.25   735.83
                              752.87   767.19   967.20  1190.65  1238.61
                             1307.30  1353.16  1361.11  1385.28  1402.46
                             1404.09  1458.58  1500.12  1530.66  1605.46
                             1727.10  1756.07  1791.85  1904.33  1934.49
                             1970.34  2014.83  2036.32  2046.41  2156.60
                             2161.75  2180.23  2181.29  2200.90  2215.78
                             2355.15  2402.09  2408.76  4370.93  4374.04
                             4383.23  4471.41  4476.81  4483.50  4500.78
                             4529.55  4532.03  4985.65  5010.45  5018.95
                             5106.91  5127.90  5140.90

 Zero-point correction=                           0.212598 (Hartree/Particle)
 Thermal correction to Energy=                    0.222598
 Thermal correction to Enthalpy=                  0.223542
 Thermal correction to Gibbs Free Energy=         0.179663
 Sum of electronic and zero-point Energies=           -363.625576
 Sum of electronic and thermal Energies=              -363.615575
 Sum of electronic and thermal Enthalpies=            -363.614631
 Sum of electronic and thermal Free Energies=         -363.658511

                     E (Thermal)             CV                S
                      KCal/Mol        Cal/Mol-Kelvin    Cal/Mol-Kelvin
 Total                  139.682             40.134             92.352
 Electronic               0.000              0.000              0.000
 Translational            0.889              2.981             40.189
 Rotational               0.889              2.981             28.197
 Vibrational            137.905             34.172             23.966
 Vibration     1          0.607              1.940              3.237
 Vibration     2          0.644              1.821              2.018
 Vibration     3          0.665              1.756              1.704
 Vibration     4          0.669              1.742              1.649
 Vibration     5          0.681              1.709              1.528
 Vibration     6          0.690              1.680              1.437
 Vibration     7          0.699              1.654              1.359
 Vibration     8          0.718              1.601              1.226
 Vibration     9          0.737              1.549              1.111
 Vibration    10          0.738              1.544              1.100
 Vibration    11          0.748              1.519              1.051
 Vibration    12          0.761              1.483              0.985
 Vibration    13          0.776              1.443              0.918
 Vibration    14          0.796              1.393              0.842
 Vibration    15          0.867              1.225              0.630
 Vibration    16          0.878              1.198              0.602
 Vibration    17          0.888              1.177              0.580

 Optimization completed.
    -- Stationary point found.
 Normal termination of Gaussian 09 at Thu Sep  8 14:48:55 2022.
