 Gaussian 09, Revision E.01,
 Gaussian 09:  ES64L-G09RevE.01 30-Nov-2015

 ----------------------------
 #P OPT Freq B3LYP/6-31G(d,p)
 ----------------------------

 --------
 Frag_520
 --------
 Symbolic Z-matrix:
 Charge =  0 Multiplicity = 1

 SCF Done:  E(RB3LYP) =  -248.486823701     A.U. after   13 cycles
 SCF Done:  E(RB3LYP) =  -248.486881661     A.U. after    9 cycles
 SCF Done:  E(RB3LYP) =  -248.486887100     A.U. after    8 cycles
 SCF Done:  E(RB3LYP) =  -248.486890893     A.U. after    8 cycles
 SCF Done:  E(RB3LYP) =  -248.486892939     A.U. after    8 cycles
 SCF Done:  E(RB3LYP) =  -248.486893733     A.U. after    8 cycles
 SCF Done:  E(RB3LYP) =  -248.486893920     A.U. after    7 cycles
 SCF Done:  E(RB3LYP) =  -248.486893981     A.U. after    7 cycles
 Optimization completed.
    -- Stationary point found.
 Normal termination of Gaussian 09 at Thu Sep  8 15:25:05 2022.

 ----------------------------------------------------------------------
 #P Geom=AllCheck Guess=TCheck SCRF=Check GenChk RB3LYP/6-31G(d,p) Freq
 ----------------------------------------------------------------------

 Structure from the checkpoint file:  "B3LYP6-31Gdp.Frag_520.chk"
 --------
 Frag_520
 --------
 Charge =  0 Multiplicity = 1

                         Standard orientation:
 ---------------------------------------------------------------------
 Center     Atomic      Atomic             Coordinates (Angstroms)
 Number     Number       Type             X           Y           Z
 ---------------------------------------------------------------------
      1          6           0        0.598535    1.425896    0.007487
      2          6           0        0.436688   -0.067091    0.017142
      3          7           0        1.641395   -0.796162   -0.107153
      4          6           0       -0.760532   -0.672260    0.036783
      5          8           0       -1.942407    0.042327   -0.096739
      6          1           0        1.050350    1.761270   -0.933080
      7          1           0        1.264065    1.751843    0.818831
      8          1           0       -0.367393    1.915926    0.129850
      9          1           0        2.361607   -0.464729    0.527770
     10          1           0        1.516784   -1.795444    0.018191
     11          1           0       -0.850651   -1.759723    0.041312
     12          1           0       -2.573414   -0.293888    0.552638
 ---------------------------------------------------------------------

 SCF Done:  E(RB3LYP) =  -248.486893981     A.U. after    1 cycles

 The electronic state is 1-A.
 Alpha  occ. eigenvalues --  -19.15264 -14.32668 -10.20733 -10.20460 -10.17212
 Alpha  occ. eigenvalues --   -1.02455  -0.89646  -0.74029  -0.67462  -0.55041
 Alpha  occ. eigenvalues --   -0.51284  -0.48991  -0.45931  -0.40463  -0.38882
 Alpha  occ. eigenvalues --   -0.37237  -0.36319  -0.30698  -0.29487  -0.18152
 Alpha virt. eigenvalues --    0.05767   0.07907   0.08786   0.12970   0.15008
 Alpha virt. eigenvalues --    0.16700   0.19569   0.20660   0.23004   0.26536
 Alpha virt. eigenvalues --    0.35209   0.43487   0.53479   0.54065   0.56356

 Mulliken charges:
               1
     1  C   -0.361054
     2  C    0.251859
     3  N   -0.629064
     4  C    0.047914
     5  O   -0.528081
     6  H    0.126978
     7  H    0.095845
     8  H    0.134340
     9  H    0.244856
    10  H    0.243158
    11  H    0.060246
    12  H    0.313004
 Sum of Mulliken charges =  -0.00000

 Dipole moment (field-independent basis, Debye):
    X=              0.2792    Y=             -1.1591    Z=              2.1824  Tot=              2.4869
 Quadrupole moment (field-independent basis, Debye-Ang):
   XX=            -26.6214   YY=            -27.4711   ZZ=            -32.0469
   XY=              1.3737   XZ=             -0.3732   YZ=             -1.1445

  Exact polarizability:  59.882   4.741  45.254  -0.624  -0.401  26.649
 Approx polarizability:  90.663   9.287  59.154  -1.289  -0.702  37.854

                      1                      2                      3
                      A                      A                      A
 Frequencies --    164.7783               239.1089               266.0744
 Red. masses --      1.0356                 1.1673                 2.5770
 Frc consts  --      0.0166                 0.0393                 0.1075
 IR Inten    --     11.4738               141.9578                26.0290

                      4                      5                      6
                      A                      A                      A
 Frequencies --    292.9201               330.0844               418.7090
 Red. masses --      2.8870                 1.2172                 2.4740
 Frc consts  --      0.1459                 0.0781                 0.2555
 IR Inten    --     20.7692                24.3458                10.0123

                      7                      8                      9
                      A                      A                      A
 Frequencies --    469.1878               594.3975               756.1229
 Red. masses --      2.2469                 4.9300                 1.3693
 Frc consts  --      0.2914                 1.0263                 0.4612
 IR Inten    --     20.8560                 8.0358               215.3683

                     10                     11                     12
                      A                      A                      A
 Frequencies --    805.6511               845.4109              1023.6210
 Red. masses --      1.4537                 3.3750                 1.3852
 Frc consts  --      0.5559                 1.4212                 0.8551
 IR Inten    --     82.1922                 2.1864                 4.0297

                     13                     14                     15
                      A                      A                      A
 Frequencies --   1070.1111              1106.8386              1202.8162
 Red. masses --      1.4613                 2.1365                 2.0064
 Frc consts  --      0.9859                 1.5421                 1.7103
 IR Inten    --      2.3853                55.9113               198.1387

                     16                     17                     18
                      A                      A                      A
 Frequencies --   1231.0919              1326.3307              1395.5880
 Red. masses --      1.2041                 2.2492                 1.2338
 Frc consts  --      1.0752                 2.3312                 1.4158
 IR Inten    --     19.9592                 6.5096                 1.2709

                     19                     20                     21
                      A                      A                      A
 Frequencies --   1443.9082              1497.1634              1504.0611
 Red. masses --      1.6837                 1.0544                 1.0523
 Frc consts  --      2.0682                 1.3925                 1.4026
 IR Inten    --      5.1873                 5.1883                 5.3228

                     22                     23                     24
                      A                      A                      A
 Frequencies --   1656.0292              1776.0202              3024.4896
 Red. masses --      1.1273                 5.7591                 1.0463
 Frc consts  --      1.8215                10.7029                 5.6391
 IR Inten    --     43.5212                 2.7117                44.1841

                     25                     26                     27
                      A                      A                      A
 Frequencies --   3081.9881              3125.5059              3165.2417
 Red. masses --      1.0939                 1.0902                 1.0971
 Frc consts  --      6.1221                 6.2747                 6.4760
 IR Inten    --     24.5606                41.4142                 6.7778

                     28                     29                     30
                      A                      A                      A
 Frequencies --   3505.0204              3608.4661              3804.4402
 Red. masses --      1.0483                 1.0952                 1.0666
 Frc consts  --      7.5878                 8.4018                 9.0954
 IR Inten    --      0.6954                 0.4423                30.2950

 - Thermochemistry -
 -------------------
 Temperature   298.150 Kelvin.  Pressure   1.00000 Atm.
 Atom     1 has atomic number  6 and mass  12.00000

 Molecular mass:    73.05276 amu.
 Principal axes and moments of inertia in atomic units:
                           1         2         3
     Eigenvalues --   206.35656 472.24327 660.96155
           X            0.99970   0.02441  -0.00119
           Y           -0.02442   0.99966  -0.00859
           Z            0.00098   0.00862   0.99996
 This molecule is an asymmetric top.
 Rotational symmetry number  1.
 Rotational temperatures (Kelvin)      0.41973     0.18341     0.13104
 Rotational constants (GHZ):           8.74574     3.82163     2.73048
 Zero-point vibrational energy     267551.9 (Joules/Mol)
                                   63.94643 (Kcal/Mol)
 Warning -- explicit consideration of   8 degrees of freedom as
           vibrations may cause significant error
 Vibrational temperatures:    237.08   344.02   382.82   421.45   474.92
          (Kelvin)            602.43   675.06   855.20  1087.89  1159.15
                             1216.36  1472.76  1539.65  1592.49  1730.58
                             1771.26  1908.29  2007.94  2077.46  2154.08
                             2164.01  2382.65  2555.29  4351.56  4434.29
                             4496.90  4554.07  5042.94  5191.77  5473.73

 Zero-point correction=                           0.101905 (Hartree/Particle)
 Thermal correction to Energy=                    0.108228
 Thermal correction to Enthalpy=                  0.109172
 Thermal correction to Gibbs Free Energy=         0.072969
 Sum of electronic and zero-point Energies=           -248.384989
 Sum of electronic and thermal Energies=              -248.378666
 Sum of electronic and thermal Enthalpies=            -248.377722
 Sum of electronic and thermal Free Energies=         -248.413925

                     E (Thermal)             CV                S
                      KCal/Mol        Cal/Mol-Kelvin    Cal/Mol-Kelvin
 Total                   67.914             22.280             76.195
 Electronic               0.000              0.000              0.000
 Translational            0.889              2.981             38.782
 Rotational               0.889              2.981             25.669
 Vibrational             66.136             16.318             11.744
 Vibration     1          0.623              1.886              2.494
 Vibration     2          0.657              1.781              1.810
 Vibration     3          0.672              1.735              1.622
 Vibration     4          0.688              1.687              1.457
 Vibration     5          0.713              1.615              1.260
 Vibration     6          0.782              1.430              0.896
 Vibration     7          0.826              1.318              0.740
 Vibration     8          0.952              1.044              0.459

 Normal termination of Gaussian 09 at Thu Sep  8 15:25:14 2022.
