 Gaussian 09, Revision E.01,
 Gaussian 09:  ES64L-G09RevE.01 30-Nov-2015

 -------------------------
 #P OPT Freq B3LYP/6-31G**
 -------------------------

 --------
 Frag_229
 --------
 Symbolic Z-matrix:
 Charge =  0 Multiplicity = 1

 SCF Done:  E(RB3LYP) =  -527.888916370     A.U. after   20 cycles
 SCF Done:  E(RB3LYP) =  -527.934037388     A.U. after   15 cycles
 SCF Done:  E(RB3LYP) =  -527.950072522     A.U. after   14 cycles
 SCF Done:  E(RB3LYP) =  -527.952662155     A.U. after   13 cycles
 SCF Done:  E(RB3LYP) =  -527.952971228     A.U. after   12 cycles
 SCF Done:  E(RB3LYP) =  -527.953003373     A.U. after   10 cycles
 SCF Done:  E(RB3LYP) =  -527.953004131     A.U. after    9 cycles
 SCF Done:  E(RB3LYP) =  -527.953004725     A.U. after    9 cycles
 Optimization completed.
    -- Stationary point found.
 Normal termination of Gaussian 09 at Sat Aug 21 01:34:15 2021.

 ----------------------------------------------------------------------
 #P Geom=AllCheck Guess=TCheck SCRF=Check GenChk RB3LYP/6-31G(d,p) Freq
 ----------------------------------------------------------------------

 Structure from the checkpoint file:  "/public/home/users/caep010/.cache/gau_scr/Gau-143570.chk"
 --------
 Frag_229
 --------
 Charge =  0 Multiplicity = 1

                         Standard orientation:
 ---------------------------------------------------------------------
 Center     Atomic      Atomic             Coordinates (Angstroms)
 Number     Number       Type             X           Y           Z
 ---------------------------------------------------------------------
      1          8           0        3.372006   -0.000000   -0.000038
      2          7           0        2.106918    0.000000   -0.000245
      3          6           0        1.405783   -1.188471   -0.000024
      4          6           0        0.029456   -1.207692    0.000172
      5          6           0       -0.668886    0.000000    0.000264
      6          7           0       -2.125562    0.000000    0.000483
      7          8           0       -2.694692    1.093065   -0.000313
      8          8           0       -2.694692   -1.093065   -0.000329
      9          6           0        0.029456    1.207692    0.000166
     10          6           0        1.405784    1.188471   -0.000031
     11          1           0        2.037085   -2.065784   -0.000046
     12          1           0       -0.507102   -2.147751    0.000308
     13          1           0       -0.507101    2.147751    0.000298
     14          1           0        2.037085    2.065784   -0.000059
 ---------------------------------------------------------------------

 SCF Done:  E(RB3LYP) =  -527.953004725     A.U. after    1 cycles

 The electronic state is 1-A.
 Alpha  occ. eigenvalues --  -19.19216 -19.19215 -19.15848 -14.58544 -14.52023
 Alpha  occ. eigenvalues --  -10.27589 -10.26873 -10.26872 -10.25237 -10.25236
 Alpha  occ. eigenvalues --   -1.23552  -1.14650  -1.06277  -0.93861  -0.85605
 Alpha  occ. eigenvalues --   -0.82386  -0.74328  -0.70290  -0.63443  -0.57658
 Alpha  occ. eigenvalues --   -0.55891  -0.54517  -0.52544  -0.51174  -0.50645
 Alpha  occ. eigenvalues --   -0.50257  -0.48431  -0.45185  -0.41968  -0.37828
 Alpha  occ. eigenvalues --   -0.32311  -0.32080  -0.31342  -0.30425  -0.28098
 Alpha  occ. eigenvalues --   -0.25045
 Alpha virt. eigenvalues --   -0.11093  -0.05633  -0.03496   0.06469   0.10168
 Alpha virt. eigenvalues --    0.10978   0.12879   0.15392   0.16418   0.16967
 Alpha virt. eigenvalues --    0.22364   0.24243   0.25572   0.27043   0.32575

 Mulliken charges:
               1
     1  O   -0.470546
     2  N   -0.019585
     3  C    0.125175
     4  C   -0.127051
     5  C    0.270350
     6  N    0.386583
     7  O   -0.398388
     8  O   -0.398388
     9  C   -0.127051
    10  C    0.125175
    11  H    0.156712
    12  H    0.160150
    13  H    0.160150
    14  H    0.156712
 Sum of Mulliken charges =  -0.00000

 Dipole moment (field-independent basis, Debye):
    X=              1.2486    Y=             -0.0000    Z=              0.0016  Tot=              1.2486
 Quadrupole moment (field-independent basis, Debye-Ang):
   XX=            -78.4793   YY=            -48.7026   ZZ=            -55.1553
   XY=              0.0000   XZ=             -0.0050   YZ=             -0.0001

  Exact polarizability: 132.311   0.000  82.529   0.001  -0.000  27.867
 Approx polarizability: 288.090   0.000 163.124  -0.001   0.000  43.279

                      1                      2                      3
                      A                      A                      A
 Frequencies --     76.7117               114.5468               228.5250
 Red. masses --      7.8858                10.2557                 8.9563
 Frc consts  --      0.0273                 0.0793                 0.2756
 IR Inten    --      0.0000                11.3884                 6.6716

                      4                      5                      6
                      A                      A                      A
 Frequencies --    289.6295               363.2841               434.2648
 Red. masses --      7.0192                12.5810                 3.1939
 Frc consts  --      0.3469                 0.9783                 0.3549
 IR Inten    --      0.4717                 0.2815                 0.0000

                      7                      8                      9
                      A                      A                      A
 Frequencies --    474.2803               509.9138               550.3141
 Red. masses --      9.1936                 2.9439                 5.8614
 Frc consts  --      1.2184                 0.4510                 1.0459
 IR Inten    --      9.6598                 4.5763                 0.0046

                     10                     11                     12
                      A                      A                      A
 Frequencies --    658.5612               665.3696               690.9583
 Red. masses --      8.1614                 7.0915                 3.6505
 Frc consts  --      2.0855                 1.8498                 1.0268
 IR Inten    --     35.3120                 0.6203                12.8016

                     13                     14                     15
                      A                      A                      A
 Frequencies --    756.4759               824.9219               839.0584
 Red. masses --      7.7539                 1.2481                 6.6848
 Frc consts  --      2.6143                 0.5004                 2.7728
 IR Inten    --     18.0668                 0.0000                 2.4602

                     16                     17                     18
                      A                      A                      A
 Frequencies --    862.1517               883.4678               973.1498
 Red. masses --      1.7916                 7.8475                 1.2797
 Frc consts  --      0.7846                 3.6088                 0.7140
 IR Inten    --     50.9871                15.6583                 1.7336

                     19                     20                     21
                      A                      A                      A
 Frequencies --    973.2839              1035.9442              1108.7920
 Red. masses --      1.3065                 2.7159                 1.2887
 Frc consts  --      0.7292                 1.7172                 0.9335
 IR Inten    --      0.0000                10.5035                14.4104

                     22                     23                     24
                      A                      A                      A
 Frequencies --   1141.3499              1200.9542              1283.4950
 Red. masses --      2.1651                 1.4726                 6.6758
 Frc consts  --      1.6617                 1.2514                 6.4795
 IR Inten    --    140.6728                 6.7543                 0.0001

                     25                     26                     27
                      A                      A                      A
 Frequencies --   1314.7200              1384.8146              1398.5076
 Red. masses --      1.2965                10.2508                 5.0919
 Frc consts  --      1.3204                11.5822                 5.8676
 IR Inten    --      0.2740               626.3782                 8.1808

                     28                     29                     30
                      A                      A                      A
 Frequencies --   1500.2413              1513.6436              1582.5627
 Red. masses --      3.7192                 2.9732                 9.5747
 Frc consts  --      4.9320                 4.0135                14.1286
 IR Inten    --      0.7563                83.6859                38.6247

                     31                     32                     33
                      A                      A                      A
 Frequencies --   1648.6450              1673.6273              3250.5087
 Red. masses --     12.2494                 5.9138                 1.0910
 Frc consts  --     19.6164                 9.7596                 6.7917
 IR Inten    --    172.8462                91.1731                 4.7479

                     34                     35                     36
                      A                      A                      A
 Frequencies --   3251.5009              3270.3904              3271.7091
 Red. masses --      1.0907                 1.0952                 1.0967
 Frc consts  --      6.7942                 6.9013                 6.9164
 IR Inten    --      3.4784                 4.7169                 0.0089

 - Thermochemistry -
 -------------------
 Temperature   298.150 Kelvin.  Pressure   1.00000 Atm.
 Atom     1 has atomic number  8 and mass  15.99491

 Molecular mass:   140.02219 amu.
 Principal axes and moments of inertia in atomic units:
                           1         2         3
     Eigenvalues --   446.469932147.004522593.47438
           X            1.00000   0.00000  -0.00000
           Y           -0.00000   1.00000  -0.00000
           Z            0.00000   0.00000   1.00000
 This molecule is an asymmetric top.
 Rotational symmetry number  1.
 Warning -- assumption of classical behavior for rotation
           may cause significant error
 Rotational temperatures (Kelvin)      0.19400     0.04034     0.03340
 Rotational constants (GHZ):           4.04225     0.84059     0.69588
 Zero-point vibrational energy     251217.4 (Joules/Mol)
                                   60.04241 (Kcal/Mol)
 Warning -- explicit consideration of   9 degrees of freedom as
           vibrations may cause significant error
 Vibrational temperatures:    110.37   164.81   328.80   416.71   522.68
          (Kelvin)            624.81   682.38   733.65   791.78   947.52
                              957.32   994.13  1088.40  1186.88  1207.22
                             1240.44  1271.11  1400.14  1400.34  1490.49
                             1595.30  1642.15  1727.90  1846.66  1891.59
                             1992.44  2012.14  2158.51  2177.79  2276.95
                             2372.03  2407.97  4676.75  4678.18  4705.36
                             4707.25

 Zero-point correction=                           0.095684 (Hartree/Particle)
 Thermal correction to Energy=                    0.103186
 Thermal correction to Enthalpy=                  0.104130
 Thermal correction to Gibbs Free Energy=         0.062825
 Sum of electronic and zero-point Energies=           -527.857321
 Sum of electronic and thermal Energies=              -527.849819
 Sum of electronic and thermal Enthalpies=            -527.848875
 Sum of electronic and thermal Free Energies=         -527.890180

                     E (Thermal)             CV                S
                      KCal/Mol        Cal/Mol-Kelvin    Cal/Mol-Kelvin
 Total                   64.750             28.307             86.933
 Electronic               0.000              0.000              0.000
 Translational            0.889              2.981             40.721
 Rotational               0.889              2.981             29.298
 Vibrational             62.972             22.345             16.913
 Vibration     1          0.599              1.965              3.973
 Vibration     2          0.607              1.937              3.190
 Vibration     3          0.651              1.797              1.891
 Vibration     4          0.686              1.693              1.476
 Vibration     5          0.737              1.548              1.108
 Vibration     6          0.795              1.396              0.845
 Vibration     7          0.831              1.307              0.726
 Vibration     8          0.865              1.228              0.634
 Vibration     9          0.906              1.139              0.544

 Optimization completed.
    -- Stationary point found.
 Normal termination of Gaussian 09 at Sat Aug 21 01:34:31 2021.
