 Gaussian 09, Revision D.01,
 Gaussian 09:  ES64L-G09RevD.01 24-Apr-2013

 --------------------------------
 #P OPT=calcfc Freq B3LYP/6-31G**
 --------------------------------

 -------
 Frag_94
 -------
 Symbolic Z-matrix:
 Charge =  0 Multiplicity = 1

 SCF Done:  E(RB3LYP) =  -232.452750070     A.U. after   13 cycles
 SCF Done:  E(RB3LYP) =  -232.453152178     A.U. after   11 cycles
 SCF Done:  E(RB3LYP) =  -232.454409100     A.U. after   13 cycles
 SCF Done:  E(RB3LYP) =  -232.455702640     A.U. after   13 cycles
 SCF Done:  E(RB3LYP) =  -232.455751860     A.U. after   11 cycles
 SCF Done:  E(RB3LYP) =  -232.440886120     A.U. after   14 cycles
 SCF Done:  E(RB3LYP) =  -232.455795179     A.U. after   12 cycles
 SCF Done:  E(RB3LYP) =  -232.455840171     A.U. after   11 cycles
 SCF Done:  E(RB3LYP) =  -232.455843935     A.U. after    9 cycles
 SCF Done:  E(RB3LYP) =  -232.455845739     A.U. after    9 cycles
 SCF Done:  E(RB3LYP) =  -232.455846782     A.U. after   10 cycles
 SCF Done:  E(RB3LYP) =  -232.455847466     A.U. after   10 cycles
 SCF Done:  E(RB3LYP) =  -232.455847573     A.U. after    9 cycles
 SCF Done:  E(RB3LYP) =  -232.455847581     A.U. after    7 cycles
 Optimization completed.
    -- Stationary point found.
 Normal termination of Gaussian 09 at Fri Jul 23 11:12:40 2021.

 ----------------------------------------------------------------------
 #P Geom=AllCheck Guess=TCheck SCRF=Check GenChk RB3LYP/6-31G(d,p) Freq
 ----------------------------------------------------------------------

 Structure from the checkpoint file:  "/vol2/users/liuj201281/HOFBenchmark/IsodesmicSplit/Sample60/Ring26/Running/Gau-420315.chk"
 -------
 Frag_94
 -------
 Charge =  0 Multiplicity = 1

                         Standard orientation:
 ---------------------------------------------------------------------
 Center     Atomic      Atomic             Coordinates (Angstroms)
 Number     Number       Type             X           Y           Z
 ---------------------------------------------------------------------
      1          6           0        2.079208    0.069859   -0.000035
      2          6           0        0.762835   -0.650440    0.000141
      3          6           0       -0.461708   -0.109263    0.000052
      4          6           0       -0.817721    1.349861   -0.000031
      5          8           0       -1.547036   -0.966774   -0.000246
      6          1           0        1.971249    1.157729   -0.000088
      7          1           0        2.679451   -0.198290   -0.879416
      8          1           0        2.679632   -0.198200    0.879248
      9          1           0        0.802074   -1.737984    0.000237
     10          1           0        0.062226    1.993072    0.000238
     11          1           0       -1.417732    1.601963    0.884772
     12          1           0       -1.417304    1.601966   -0.885106
     13          1           0       -2.358999   -0.446165    0.001316
 ---------------------------------------------------------------------

 SCF Done:  E(RB3LYP) =  -232.455847581     A.U. after    1 cycles

 The electronic state is 1-A.
 Alpha  occ. eigenvalues --  -19.16039 -10.23277 -10.19231 -10.17586 -10.16182
 Alpha  occ. eigenvalues --   -1.03860  -0.78144  -0.72236  -0.66081  -0.53983
 Alpha  occ. eigenvalues --   -0.49558  -0.46075  -0.43395  -0.39695  -0.39024
 Alpha  occ. eigenvalues --   -0.37990  -0.36108  -0.34770  -0.33094  -0.20282
 Alpha virt. eigenvalues --    0.05045   0.07083   0.11107   0.13055   0.14543
 Alpha virt. eigenvalues --    0.16614   0.18514   0.19179   0.21791   0.23671
 Alpha virt. eigenvalues --    0.25160   0.32472   0.44968   0.49603   0.51072

 Mulliken charges:
               1
     1  C   -0.348862
     2  C   -0.126563
     3  C    0.338501
     4  C   -0.399520
     5  O   -0.540463
     6  H    0.097290
     7  H    0.111736
     8  H    0.111730
     9  H    0.083349
    10  H    0.124184
    11  H    0.118763
    12  H    0.118854
    13  H    0.311001
 Sum of Mulliken charges =   0.00000

 Dipole moment (field-independent basis, Debye):
    X=             -0.8143    Y=              1.8104    Z=              0.0023  Tot=              1.9851
 Quadrupole moment (field-independent basis, Debye-Ang):
   XX=            -26.4641   YY=            -32.4803   ZZ=            -32.6591
   XY=             -2.3793   XZ=             -0.0068   YZ=             -0.0016

  Exact polarizability:  65.632  -6.254  45.890  -0.003   0.001  31.416
 Approx polarizability:  92.894 -10.082  62.517  -0.002   0.003  43.580

                      1                      2                      3
                      A                      A                      A
 Frequencies --     50.3050               135.5501               186.9676
 Red. masses --      1.3489                 1.0440                 1.0428
 Frc consts  --      0.0020                 0.0113                 0.0215
 IR Inten    --     69.5109                 1.9890                13.7624

                      4                      5                      6
                      A                      A                      A
 Frequencies --    266.2346               289.7733               435.8051
 Red. masses --      1.9453                 2.8052                 2.6915
 Frc consts  --      0.0812                 0.1388                 0.3012
 IR Inten    --     20.2428                 0.2359                 2.1147

                      7                      8                      9
                      A                      A                      A
 Frequencies --    486.2287               532.1577               797.8810
 Red. masses --      2.4021                 3.4673                 3.3175
 Frc consts  --      0.3346                 0.5785                 1.2443
 IR Inten    --      5.2178                10.2577                 5.9471

                     10                     11                     12
                      A                      A                      A
 Frequencies --    849.7991               978.4785              1034.1366
 Red. masses --      1.2507                 1.5099                 1.5410
 Frc consts  --      0.5322                 0.8517                 0.9710
 IR Inten    --     19.5148                19.7854                 2.0339

                     13                     14                     15
                      A                      A                      A
 Frequencies --   1064.1398              1070.8458              1115.7838
 Red. masses --      1.4482                 1.4578                 2.3939
 Frc consts  --      0.9662                 0.9849                 1.7560
 IR Inten    --      0.6109                 0.0098                50.2666

                     16                     17                     18
                      A                      A                      A
 Frequencies --   1240.4280              1264.3778              1388.2905
 Red. masses --      1.3519                 2.4404                 1.3040
 Frc consts  --      1.2256                 2.2986                 1.4807
 IR Inten    --    175.0650                26.2929                32.7800

                     19                     20                     21
                      A                      A                      A
 Frequencies --   1436.8028              1439.9569              1493.1340
 Red. masses --      1.6321                 1.2437                 1.0430
 Frc consts  --      1.9851                 1.5194                 1.3701
 IR Inten    --     42.0215                 2.9314                 0.0033

                     22                     23                     24
                      A                      A                      A
 Frequencies --   1497.4451              1502.1260              1516.6714
 Red. masses --      1.0423                 1.0509                 1.0596
 Frc consts  --      1.3770                 1.3971                 1.4361
 IR Inten    --      9.8708                 1.3777                 4.0544

                     25                     26                     27
                      A                      A                      A
 Frequencies --   1788.4773              3020.4468              3023.5729
 Red. masses --      6.2094                 1.0412                 1.0411
 Frc consts  --     11.7022                 5.5969                 5.6078
 IR Inten    --     46.2573                66.6083                18.6374

                     28                     29                     30
                      A                      A                      A
 Frequencies --   3063.6811              3067.8895              3118.4731
 Red. masses --      1.1005                 1.1006                 1.0966
 Frc consts  --      6.0859                 6.1033                 6.2833
 IR Inten    --     29.7250                28.2299                25.2408

                     31                     32                     33
                      A                      A                      A
 Frequencies --   3159.0278              3168.8528              3841.1309
 Red. masses --      1.0936                 1.0886                 1.0666
 Frc consts  --      6.4300                 6.4404                 9.2720
 IR Inten    --     10.8557                21.2187                42.9509

 - Thermochemistry -
 -------------------
 Temperature   298.150 Kelvin.  Pressure   1.00000 Atm.
 Atom     1 has atomic number  6 and mass  12.00000

 Molecular mass:    72.05751 amu.
 Principal axes and moments of inertia in atomic units:
                           1         2         3
     Eigenvalues --   209.79579 498.43650 685.82713
           X            0.99914  -0.04148  -0.00002
           Y            0.04148   0.99914  -0.00002
           Z            0.00002   0.00002   1.00000
 This molecule is an asymmetric top.
 Rotational symmetry number  1.
 Rotational temperatures (Kelvin)      0.41285     0.17377     0.12629
 Rotational constants (GHZ):           8.60237     3.62080     2.63148
 Zero-point vibrational energy     295028.2 (Joules/Mol)
                                   70.51344 (Kcal/Mol)
 Warning -- explicit consideration of   8 degrees of freedom as
           vibrations may cause significant error
 Vibrational temperatures:     72.38   195.03   269.00   383.05   416.92
          (Kelvin)            627.03   699.57   765.66  1147.97  1222.67
                             1407.81  1487.89  1531.06  1540.71  1605.36
                             1784.70  1819.16  1997.44  2067.24  2071.77
                             2148.28  2154.49  2161.22  2182.15  2573.22
                             4345.74  4350.24  4407.95  4414.00  4486.78
                             4545.13  4559.27  5526.52

 Zero-point correction=                           0.112370 (Hartree/Particle)
 Thermal correction to Energy=                    0.119262
 Thermal correction to Enthalpy=                  0.120206
 Thermal correction to Gibbs Free Energy=         0.081916
 Sum of electronic and zero-point Energies=           -232.343477
 Sum of electronic and thermal Energies=              -232.336586
 Sum of electronic and thermal Enthalpies=            -232.335642
 Sum of electronic and thermal Free Energies=         -232.373931

                     E (Thermal)             CV                S
                      KCal/Mol        Cal/Mol-Kelvin    Cal/Mol-Kelvin
 Total                   74.838             22.815             80.587
 Electronic               0.000              0.000              0.000
 Translational            0.889              2.981             38.741
 Rotational               0.889              2.981             25.775
 Vibrational             73.060             16.853             16.070
 Vibration     1          0.595              1.977              4.805
 Vibration     2          0.613              1.918              2.866
 Vibration     3          0.632              1.858              2.258
 Vibration     4          0.672              1.735              1.621
 Vibration     5          0.686              1.693              1.475
 Vibration     6          0.796              1.392              0.840
 Vibration     7          0.842              1.281              0.693
 Vibration     8          0.887              1.179              0.582

 Optimization completed on the basis of negligible forces.
    -- Stationary point found.
 Normal termination of Gaussian 09 at Fri Jul 23 11:12:54 2021.
