 Gaussian 09, Revision E.01,
 Gaussian 09:  ES64L-G09RevE.01 30-Nov-2015

 -------------------------
 #P OPT Freq B3LYP/6-31G**
 -------------------------

 --------
 Frag_218
 --------
 Symbolic Z-matrix:
 Charge =  0 Multiplicity = 1

 SCF Done:  E(RB3LYP) =  -345.341562243     A.U. after   13 cycles
 SCF Done:  E(RB3LYP) =  -345.356875822     A.U. after   12 cycles
 SCF Done:  E(RB3LYP) =  -345.359688874     A.U. after   11 cycles
 SCF Done:  E(RB3LYP) =  -345.361064643     A.U. after   11 cycles
 SCF Done:  E(RB3LYP) =  -345.361511656     A.U. after   11 cycles
 SCF Done:  E(RB3LYP) =  -345.361669364     A.U. after   11 cycles
 SCF Done:  E(RB3LYP) =  -345.361712980     A.U. after    9 cycles
 SCF Done:  E(RB3LYP) =  -345.361723081     A.U. after    8 cycles
 SCF Done:  E(RB3LYP) =  -345.361723670     A.U. after    7 cycles
 Optimization completed.
    -- Stationary point found.
 Normal termination of Gaussian 09 at Sat Aug 21 01:39:04 2021.

 ----------------------------------------------------------------------
 #P Geom=AllCheck Guess=TCheck SCRF=Check GenChk RB3LYP/6-31G(d,p) Freq
 ----------------------------------------------------------------------

 Structure from the checkpoint file:  "/public/home/users/caep010/.cache/gau_scr/Gau-175787.chk"
 --------
 Frag_218
 --------
 Charge =  0 Multiplicity = 1

                         Standard orientation:
 ---------------------------------------------------------------------
 Center     Atomic      Atomic             Coordinates (Angstroms)
 Number     Number       Type             X           Y           Z
 ---------------------------------------------------------------------
      1          6           0        2.709370   -0.000000   -0.000002
      2          6           0        1.358368   -0.000001    0.000000
      3          7           0        0.592194    1.102799    0.387428
      4          6           0       -0.611363    1.482516   -0.363435
      5          6           0       -1.865845    0.754133    0.137558
      6          6           0       -1.865845   -0.754132   -0.137561
      7          6           0       -0.611365   -1.482515    0.363436
      8          7           0        0.592194   -1.102800   -0.387425
      9          1           0        3.269983    0.917761    0.131041
     10          1           0        3.269984   -0.917761   -0.131046
     11          1           0        1.174306    1.885767    0.649361
     12          1           0       -0.480866    1.312585   -1.442216
     13          1           0       -0.749382    2.559252   -0.220980
     14          1           0       -2.747986    1.206086   -0.334109
     15          1           0       -1.951371    0.933938    1.216699
     16          1           0       -2.747988   -1.206084    0.334104
     17          1           0       -1.951368   -0.933937   -1.216701
     18          1           0       -0.749384   -2.559252    0.220983
     19          1           0       -0.480869   -1.312582    1.442217
     20          1           0        1.174304   -1.885768   -0.649361
 ---------------------------------------------------------------------

 SCF Done:  E(RB3LYP) =  -345.361723670     A.U. after    1 cycles

 The electronic state is 1-A.
 Alpha  occ. eigenvalues --  -14.32927 -14.32927 -10.23235 -10.21130 -10.21130
 Alpha  occ. eigenvalues --  -10.17875 -10.17853 -10.13362  -0.94597  -0.87531
 Alpha  occ. eigenvalues --   -0.79257  -0.70515  -0.70397  -0.62320  -0.57384
 Alpha  occ. eigenvalues --   -0.57055  -0.49370  -0.48889  -0.45962  -0.42825
 Alpha  occ. eigenvalues --   -0.42534  -0.41400  -0.39494  -0.38885  -0.37088
 Alpha  occ. eigenvalues --   -0.34800  -0.33256  -0.32295  -0.29815  -0.23587
 Alpha  occ. eigenvalues --   -0.17271
 Alpha virt. eigenvalues --    0.06865   0.07258   0.11064   0.11300   0.13599
 Alpha virt. eigenvalues --    0.15812   0.15875   0.16193   0.16577   0.17550
 Alpha virt. eigenvalues --    0.17621   0.19461   0.20032   0.22667   0.23617

 Mulliken charges:
               1
     1  C   -0.370125
     2  C    0.504888
     3  N   -0.548212
     4  C   -0.055920
     5  C   -0.161815
     6  C   -0.161815
     7  C   -0.055920
     8  N   -0.548212
     9  H    0.064471
    10  H    0.064471
    11  H    0.250232
    12  H    0.105933
    13  H    0.093564
    14  H    0.086769
    15  H    0.097596
    16  H    0.086769
    17  H    0.097596
    18  H    0.093564
    19  H    0.105933
    20  H    0.250233
 Sum of Mulliken charges =   0.00000

 Dipole moment (field-independent basis, Debye):
    X=             -1.3173    Y=             -0.0000    Z=             -0.0000  Tot=              1.3173
 Quadrupole moment (field-independent basis, Debye-Ang):
   XX=            -52.2290   YY=            -42.5388   ZZ=            -52.5485
   XY=              0.0000   XZ=             -0.0000   YZ=              0.7704

  Exact polarizability: 101.816   0.000  76.459  -0.000   2.237  53.552
 Approx polarizability: 136.722   0.000 103.242  -0.000   6.446  81.759

                      1                      2                      3
                      A                      A                      A
 Frequencies --    104.4421               192.9135               250.8569
 Red. masses --      3.2724                 2.3459                 2.0359
 Frc consts  --      0.0210                 0.0514                 0.0755
 IR Inten    --      0.4022                 2.9844                 3.0971

                      4                      5                      6
                      A                      A                      A
 Frequencies --    290.1386               327.4403               403.3191
 Red. masses --      3.4053                 2.1911                 2.8435
 Frc consts  --      0.1689                 0.1384                 0.2725
 IR Inten    --     10.0464                 0.4846                13.2555

                      7                      8                      9
                      A                      A                      A
 Frequencies --    426.8011               463.5901               527.2302
 Red. masses --      2.2033                 1.2269                 1.4798
 Frc consts  --      0.2365                 0.1554                 0.2424
 IR Inten    --      3.9943                 4.4093                15.7439

                     10                     11                     12
                      A                      A                      A
 Frequencies --    614.0897               655.0692               670.7775
 Red. masses --      1.3336                 1.4402                 1.3900
 Frc consts  --      0.2963                 0.3641                 0.3685
 IR Inten    --    162.6960                 2.1056                15.6032

                     13                     14                     15
                      A                      A                      A
 Frequencies --    708.8546               727.6625               764.5604
 Red. masses --      4.5631                 1.5485                 3.0961
 Frc consts  --      1.3509                 0.4831                 1.0663
 IR Inten    --     55.5702                 0.1617                 2.3897

                     16                     17                     18
                      A                      A                      A
 Frequencies --    856.5569               856.8201               916.3302
 Red. masses --      1.7495                 2.2690                 2.2323
 Frc consts  --      0.7563                 0.9814                 1.1043
 IR Inten    --      5.0667                 0.1176                 0.5109

                     19                     20                     21
                      A                      A                      A
 Frequencies --    921.6196               984.3049              1022.9360
 Red. masses --      1.8676                 1.6464                 1.9399
 Frc consts  --      0.9346                 0.9398                 1.1960
 IR Inten    --      6.2194                 1.2900                 6.1555

                     22                     23                     24
                      A                      A                      A
 Frequencies --   1066.6879              1122.0439              1137.2088
 Red. masses --      1.8787                 2.4563                 2.3154
 Frc consts  --      1.2594                 1.8220                 1.7642
 IR Inten    --     18.6690                 1.4751                19.2868

                     25                     26                     27
                      A                      A                      A
 Frequencies --   1149.8101              1222.0826              1254.3377
 Red. masses --      2.7020                 1.2807                 1.2828
 Frc consts  --      2.1047                 1.1269                 1.1891
 IR Inten    --     46.9940                 3.0904                 0.2127

                     28                     29                     30
                      A                      A                      A
 Frequencies --   1310.5640              1311.8602              1365.1231
 Red. masses --      1.3028                 1.1706                 1.4541
 Frc consts  --      1.3184                 1.1870                 1.5966
 IR Inten    --      9.5022                19.1229                20.1353

                     31                     32                     33
                      A                      A                      A
 Frequencies --   1381.4099              1394.2235              1405.0418
 Red. masses --      1.2187                 1.4610                 1.4337
 Frc consts  --      1.3702                 1.6733                 1.6676
 IR Inten    --      0.0000                32.4834                 1.4615

                     34                     35                     36
                      A                      A                      A
 Frequencies --   1412.2050              1442.9365              1462.6443
 Red. masses --      1.3284                 1.5552                 1.5158
 Frc consts  --      1.5609                 1.9078                 1.9106
 IR Inten    --     64.6019                12.4060                44.1435

                     37                     38                     39
                      A                      A                      A
 Frequencies --   1486.3930              1489.9987              1502.1734
 Red. masses --      1.0955                 1.1031                 1.1036
 Frc consts  --      1.4260                 1.4429                 1.4672
 IR Inten    --      2.3318                12.3562                 0.0556

                     40                     41                     42
                      A                      A                      A
 Frequencies --   1511.1525              1513.6401              1720.7932
 Red. masses --      1.2327                 1.2525                 4.4984
 Frc consts  --      1.6586                 1.6907                 7.8480
 IR Inten    --     22.4245                 0.0821               305.2869

                     43                     44                     45
                      A                      A                      A
 Frequencies --   3011.2822              3011.6901              3028.4531
 Red. masses --      1.0677                 1.0672                 1.0604
 Frc consts  --      5.7041                 5.7034                 5.7299
 IR Inten    --     81.8472                 2.7803                18.5143

                     46                     47                     48
                      A                      A                      A
 Frequencies --   3035.7177              3069.1469              3081.2574
 Red. masses --      1.0615                 1.1029                 1.0988
 Frc consts  --      5.7635                 6.1208                 6.1465
 IR Inten    --     40.4247                30.6851                63.5568

                     49                     50                     51
                      A                      A                      A
 Frequencies --   3086.0599              3088.0550              3176.0766
 Red. masses --      1.0976                 1.1025                 1.0589
 Frc consts  --      6.1591                 6.1942                 6.2935
 IR Inten    --      3.7706                82.4095                 0.7551

                     52                     53                     54
                      A                      A                      A
 Frequencies --   3261.0083              3619.1183              3620.7349
 Red. masses --      1.1169                 1.0758                 1.0766
 Frc consts  --      6.9979                 8.3024                 8.3159
 IR Inten    --     17.8138                15.6673                 0.8008

 - Thermochemistry -
 -------------------
 Temperature   298.150 Kelvin.  Pressure   1.00000 Atm.
 Atom     1 has atomic number  6 and mass  12.00000

 Molecular mass:   112.10005 amu.
 Principal axes and moments of inertia in atomic units:
                           1         2         3
     Eigenvalues --   524.59171 991.083441399.92066
           X            1.00000   0.00000  -0.00000
           Y           -0.00000   0.99998  -0.00662
           Z            0.00000   0.00662   0.99998
 This molecule is an asymmetric top.
 Rotational symmetry number  1.
 Warning -- assumption of classical behavior for rotation
           may cause significant error
 Rotational temperatures (Kelvin)      0.16511     0.08739     0.06187
 Rotational constants (GHZ):           3.44028     1.82098     1.28917
 Zero-point vibrational energy     475140.2 (Joules/Mol)
                                  113.56124 (Kcal/Mol)
 Warning -- explicit consideration of  10 degrees of freedom as
           vibrations may cause significant error
 Vibrational temperatures:    150.27   277.56   360.93   417.44   471.11
          (Kelvin)            580.29   614.07   667.00   758.57   883.54
                              942.50   965.10  1019.88  1046.94  1100.03
                             1232.39  1232.77  1318.39  1326.00  1416.19
                             1471.77  1534.72  1614.37  1636.19  1654.32
                             1758.30  1804.71  1885.61  1887.47  1964.11
                             1987.54  2005.97  2021.54  2031.85  2076.06
                             2104.42  2138.59  2143.77  2161.29  2174.21
                             2177.79  2475.83  4332.56  4333.14  4357.26
                             4367.72  4415.81  4433.24  4440.15  4443.02
                             4569.66  4691.86  5207.10  5209.42

 Zero-point correction=                           0.180971 (Hartree/Particle)
 Thermal correction to Energy=                    0.188685
 Thermal correction to Enthalpy=                  0.189629
 Thermal correction to Gibbs Free Energy=         0.149432
 Sum of electronic and zero-point Energies=           -345.180752
 Sum of electronic and thermal Energies=              -345.173038
 Sum of electronic and thermal Enthalpies=            -345.172094
 Sum of electronic and thermal Free Energies=         -345.212292

                     E (Thermal)             CV                S
                      KCal/Mol        Cal/Mol-Kelvin    Cal/Mol-Kelvin
 Total                  118.402             30.994             84.603
 Electronic               0.000              0.000              0.000
 Translational            0.889              2.981             40.059
 Rotational               0.889              2.981             28.078
 Vibrational            116.624             25.032             16.467
 Vibration     1          0.605              1.946              3.370
 Vibration     2          0.635              1.850              2.200
 Vibration     3          0.663              1.761              1.725
 Vibration     4          0.686              1.692              1.473
 Vibration     5          0.711              1.621              1.273
 Vibration     6          0.769              1.463              0.951
 Vibration     7          0.788              1.412              0.869
 Vibration     8          0.821              1.331              0.756
 Vibration     9          0.882              1.190              0.593
 Vibration    10          0.973              1.002              0.426

 Optimization completed.
    -- Stationary point found.
 Normal termination of Gaussian 09 at Sat Aug 21 01:39:26 2021.
