 Gaussian 09, Revision E.01,
 Gaussian 09:  ES64L-G09RevE.01 30-Nov-2015

 ----------------------------
 #P OPT Freq B3LYP/6-31G(d,p)
 ----------------------------

 --------
 Frag_676
 --------
 Symbolic Z-matrix:
 Charge =  0 Multiplicity = 1

 SCF Done:  E(RB3LYP) =  -271.764557878     A.U. after   13 cycles
 SCF Done:  E(RB3LYP) =  -271.764607424     A.U. after    9 cycles
 SCF Done:  E(RB3LYP) =  -271.764610790     A.U. after    8 cycles
 SCF Done:  E(RB3LYP) =  -271.764611368     A.U. after    7 cycles
 Optimization completed.
    -- Stationary point found.
 Normal termination of Gaussian 09 at Thu Sep  8 14:57:20 2022.

 ----------------------------------------------------------------------
 #P Geom=AllCheck Guess=TCheck SCRF=Check GenChk RB3LYP/6-31G(d,p) Freq
 ----------------------------------------------------------------------

 Structure from the checkpoint file:  "B3LYP6-31Gdp.Frag_676.chk"
 --------
 Frag_676
 --------
 Charge =  0 Multiplicity = 1

                         Standard orientation:
 ---------------------------------------------------------------------
 Center     Atomic      Atomic             Coordinates (Angstroms)
 Number     Number       Type             X           Y           Z
 ---------------------------------------------------------------------
      1          6           0        2.182743    0.000012   -0.033218
      2          6           0        1.010963    0.000061   -0.664067
      3          6           0       -0.346278    0.000002    0.005053
      4          6           0       -1.123655   -1.267618   -0.398453
      5          6           0       -1.123734    1.267601   -0.398361
      6          8           0       -0.126176   -0.000043    1.418862
      7          1           0        3.118247    0.000058   -0.584592
      8          1           0        2.236340   -0.000069    1.049733
      9          1           0        0.975466    0.000146   -1.753164
     10          1           0       -2.119190   -1.270244    0.062772
     11          1           0       -1.261132   -1.326945   -1.483056
     12          1           0       -0.583137   -2.157618   -0.066368
     13          1           0       -0.583287    2.157618   -0.066207
     14          1           0       -1.261208    1.327000   -1.482961
     15          1           0       -2.119273    1.270121    0.062853
     16          1           0       -0.993658   -0.000074    1.844370
 ---------------------------------------------------------------------

 SCF Done:  E(RB3LYP) =  -271.764611368     A.U. after    1 cycles

 The electronic state is 1-A.
 Alpha  occ. eigenvalues --  -19.13933 -10.24419 -10.17940 -10.17715 -10.17715
 Alpha  occ. eigenvalues --  -10.16873  -1.01600  -0.79275  -0.73233  -0.69002
 Alpha  occ. eigenvalues --   -0.60922  -0.54708  -0.48227  -0.45545  -0.43203
 Alpha  occ. eigenvalues --   -0.42508  -0.40996  -0.39213  -0.37640  -0.35484
 Alpha  occ. eigenvalues --   -0.33883  -0.31655  -0.26903  -0.24733
 Alpha virt. eigenvalues --    0.02727   0.06631   0.12057   0.12669   0.15242
 Alpha virt. eigenvalues --    0.16076   0.16410   0.17939   0.19301   0.19865
 Alpha virt. eigenvalues --    0.20853   0.22146   0.23875   0.25170   0.30902

 Mulliken charges:
               1
     1  C   -0.237530
     2  C   -0.037947
     3  C    0.251740
     4  C   -0.312473
     5  C   -0.312476
     6  O   -0.555802
     7  H    0.089557
     8  H    0.119876
     9  H    0.077501
    10  H    0.087212
    11  H    0.099994
    12  H    0.121902
    13  H    0.121902
    14  H    0.099994
    15  H    0.087212
    16  H    0.299336
 Sum of Mulliken charges =  -0.00000

 Dipole moment (field-independent basis, Debye):
    X=             -1.5745    Y=             -0.0000    Z=             -0.5544  Tot=              1.6693
 Quadrupole moment (field-independent basis, Debye-Ang):
   XX=            -35.7119   YY=            -39.4114   ZZ=            -36.7351
   XY=              0.0001   XZ=             -2.5476   YZ=             -0.0003

  Exact polarizability:  71.410  -0.000  44.598   2.546  -0.001  54.791
 Approx polarizability:  97.547  -0.000  57.588   8.350  -0.002  81.006

                      1                      2                      3
                      A                      A                      A
 Frequencies --     95.2717               248.1417               265.9272
 Red. masses --      2.4303                 1.0192                 1.4380
 Frc consts  --      0.0130                 0.0370                 0.0599
 IR Inten    --      4.5211                 0.9428                 0.6666

                      4                      5                      6
                      A                      A                      A
 Frequencies --    271.2496               300.7350               319.8349
 Red. masses --      1.1248                 1.7049                 1.6784
 Frc consts  --      0.0488                 0.0909                 0.1012
 IR Inten    --     83.8114                 1.8592                28.6766

                      7                      8                      9
                      A                      A                      A
 Frequencies --    339.5950               418.9047               441.1037
 Red. masses --      2.2843                 2.5182                 2.7848
 Frc consts  --      0.1552                 0.2604                 0.3192
 IR Inten    --      0.1947                 2.7092                 5.4494

                     10                     11                     12
                      A                      A                      A
 Frequencies --    561.1140               694.7604               738.7944
 Red. masses --      2.8801                 1.7881                 3.2522
 Frc consts  --      0.5343                 0.5085                 1.0458
 IR Inten    --      6.9544                10.8064                 1.8217

                     13                     14                     15
                      A                      A                      A
 Frequencies --    906.3048               922.4703               951.3296
 Red. masses --      2.0412                 1.5257                 1.3607
 Frc consts  --      0.9878                 0.7649                 0.7256
 IR Inten    --     15.5609                 0.5212                31.1187

                     16                     17                     18
                      A                      A                      A
 Frequencies --    970.2411              1021.9232              1037.7723
 Red. masses --      2.1898                 1.2576                 1.1237
 Frc consts  --      1.2145                 0.7738                 0.7130
 IR Inten    --     15.6454                 1.4234                13.4336

                     19                     20                     21
                      A                      A                      A
 Frequencies --   1043.0122              1167.7916              1195.7135
 Red. masses --      1.2977                 1.4466                 3.4216
 Frc consts  --      0.8318                 1.1623                 2.8822
 IR Inten    --     23.7888                28.0570                30.4948

                     22                     23                     24
                      A                      A                      A
 Frequencies --   1236.6178              1332.8915              1363.2569
 Red. masses --      2.7686                 1.2825                 1.6660
 Frc consts  --      2.4945                 1.3424                 1.8243
 IR Inten    --     78.5497                 0.9041                23.0035

                     25                     26                     27
                      A                      A                      A
 Frequencies --   1405.4332              1423.4941              1457.1217
 Red. masses --      1.2517                 1.2446                 1.2263
 Frc consts  --      1.4568                 1.4859                 1.5340
 IR Inten    --      6.4451                 6.5370                11.0864

                     28                     29                     30
                      A                      A                      A
 Frequencies --   1495.6712              1497.3760              1511.3527
 Red. masses --      1.0469                 1.0514                 1.0554
 Frc consts  --      1.3798                 1.3890                 1.4204
 IR Inten    --      0.0318                 1.3861                 0.5749

                     31                     32                     33
                      A                      A                      A
 Frequencies --   1524.1600              1729.7919              3031.2109
 Red. masses --      1.0901                 4.9316                 1.0391
 Frc consts  --      1.4921                 8.6940                 5.6251
 IR Inten    --      9.9943                 3.3330                12.3989

                     34                     35                     36
                      A                      A                      A
 Frequencies --   3037.0685              3100.5107              3107.5866
 Red. masses --      1.0390                 1.0986                 1.0980
 Frc consts  --      5.6465                 6.2223                 6.2476
 IR Inten    --     39.3516                 3.2056                54.4954

                     37                     38                     39
                      A                      A                      A
 Frequencies --   3135.8049              3137.0385              3149.6658
 Red. masses --      1.1023                 1.1019                 1.0787
 Frc consts  --      6.3865                 6.3889                 6.3050
 IR Inten    --     16.1728                18.9286                19.4526

                     40                     41                     42
                      A                      A                      A
 Frequencies --   3169.1054              3258.4700              3813.9516
 Red. masses --      1.0722                 1.1153                 1.0663
 Frc consts  --      6.3447                 6.9770                 9.1384
 IR Inten    --     12.3303                 7.9870                 9.9887

 - Thermochemistry -
 -------------------
 Temperature   298.150 Kelvin.  Pressure   1.00000 Atm.
 Atom     1 has atomic number  6 and mass  12.00000

 Molecular mass:    86.07317 amu.
 Principal axes and moments of inertia in atomic units:
                           1         2         3
     Eigenvalues --   387.18855 659.84761 663.68170
           X            0.99997  -0.00000   0.00775
           Y            0.00000   1.00000  -0.00001
           Z           -0.00775   0.00001   0.99997
 This molecule is an asymmetric top.
 Rotational symmetry number  1.
 Rotational temperatures (Kelvin)      0.22370     0.13126     0.13051
 Rotational constants (GHZ):           4.66114     2.73509     2.71929
 Zero-point vibrational energy     369823.0 (Joules/Mol)
                                   88.38981 (Kcal/Mol)
 Warning -- explicit consideration of  10 degrees of freedom as
           vibrations may cause significant error
 Vibrational temperatures:    137.07   357.02   382.61   390.27   432.69
          (Kelvin)            460.17   488.60   602.71   634.65   807.32
                              999.60  1062.96  1303.97  1327.23  1368.75
                             1395.96  1470.32  1493.12  1500.66  1680.19
                             1720.36  1779.21  1917.73  1961.42  2022.10
                             2048.09  2096.47  2151.93  2154.39  2174.50
                             2192.92  2488.78  4361.23  4369.66  4460.94
                             4471.12  4511.72  4513.49  4531.66  4559.63
                             4688.21  5487.42

 Zero-point correction=                           0.140858 (Hartree/Particle)
 Thermal correction to Energy=                    0.148387
 Thermal correction to Enthalpy=                  0.149331
 Thermal correction to Gibbs Free Energy=         0.110297
 Sum of electronic and zero-point Energies=           -271.623753
 Sum of electronic and thermal Energies=              -271.616225
 Sum of electronic and thermal Enthalpies=            -271.615281
 Sum of electronic and thermal Free Energies=         -271.654315

                     E (Thermal)             CV                S
                      KCal/Mol        Cal/Mol-Kelvin    Cal/Mol-Kelvin
 Total                   93.114             27.882             82.154
 Electronic               0.000              0.000              0.000
 Translational            0.889              2.981             39.271
 Rotational               0.889              2.981             26.630
 Vibrational             91.337             21.920             16.253
 Vibration     1          0.603              1.953              3.549
 Vibration     2          0.662              1.766              1.744
 Vibration     3          0.672              1.736              1.623
 Vibration     4          0.675              1.726              1.588
 Vibration     5          0.693              1.672              1.413
 Vibration     6          0.706              1.636              1.311
 Vibration     7          0.720              1.596              1.214
 Vibration     8          0.782              1.429              0.896
 Vibration     9          0.801              1.381              0.823
 Vibration    10          0.917              1.115              0.522

 Optimization completed.
    -- Stationary point found.
 Normal termination of Gaussian 09 at Thu Sep  8 14:57:34 2022.
