 Gaussian 09, Revision E.01,
 Gaussian 09:  ES64L-G09RevE.01 30-Nov-2015

 -------------------------
 #P OPT Freq B3LYP/6-31G**
 -------------------------

 --------
 Frag_194
 --------
 Symbolic Z-matrix:
 Charge =  0 Multiplicity = 1

 SCF Done:  E(RB3LYP) =  -310.785052880     A.U. after   13 cycles
 SCF Done:  E(RB3LYP) =  -310.796393163     A.U. after   12 cycles
 SCF Done:  E(RB3LYP) =  -310.799136713     A.U. after   12 cycles
 SCF Done:  E(RB3LYP) =  -310.799553851     A.U. after   10 cycles
 SCF Done:  E(RB3LYP) =  -310.799615220     A.U. after    9 cycles
 SCF Done:  E(RB3LYP) =  -310.799626033     A.U. after    7 cycles
 SCF Done:  E(RB3LYP) =  -310.799627665     A.U. after    7 cycles
 Optimization completed.
    -- Stationary point found.
 Normal termination of Gaussian 09 at Sat Aug 21 01:38:05 2021.

 ----------------------------------------------------------------------
 #P Geom=AllCheck Guess=TCheck SCRF=Check GenChk RB3LYP/6-31G(d,p) Freq
 ----------------------------------------------------------------------

 Structure from the checkpoint file:  "/public/home/users/caep010/.cache/gau_scr/Gau-213278.chk"
 --------
 Frag_194
 --------
 Charge =  0 Multiplicity = 1

                         Standard orientation:
 ---------------------------------------------------------------------
 Center     Atomic      Atomic             Coordinates (Angstroms)
 Number     Number       Type             X           Y           Z
 ---------------------------------------------------------------------
      1          6           0       -1.026098    1.024314    0.670468
      2          6           0       -1.026098    1.024315   -0.670466
      3          6           0       -0.461938   -0.314085   -1.125924
      4          6           0       -1.032700   -1.225318   -0.000001
      5          6           0       -0.461937   -0.314087    1.125923
      6          6           0        1.062469   -0.392517    0.757842
      7          6           0        1.743158    0.719559    0.000001
      8          6           0        1.062469   -0.392516   -0.757843
      9          1           0       -1.276576    1.850649    1.327031
     10          1           0       -1.276576    1.850651   -1.327028
     11          1           0       -0.676414   -0.598228   -2.158054
     12          1           0       -0.598072   -2.231196   -0.000002
     13          1           0       -2.125934   -1.288842   -0.000001
     14          1           0       -0.676413   -0.598231    2.158053
     15          1           0        1.668098   -1.091316    1.327384
     16          1           0        1.307641    1.713367    0.000001
     17          1           0        2.830202    0.706468    0.000001
     18          1           0        1.668098   -1.091312   -1.327387
 ---------------------------------------------------------------------

 SCF Done:  E(RB3LYP) =  -310.799627665     A.U. after    1 cycles

 The electronic state is 1-A.
 Alpha  occ. eigenvalues --  -10.19056 -10.19056 -10.18241 -10.18215 -10.17772
 Alpha  occ. eigenvalues --  -10.17727 -10.17720 -10.17643  -0.89297  -0.80101
 Alpha  occ. eigenvalues --   -0.70613  -0.70200  -0.59711  -0.56288  -0.54924
 Alpha  occ. eigenvalues --   -0.51635  -0.49965  -0.47389  -0.45412  -0.40055
 Alpha  occ. eigenvalues --   -0.37417  -0.37051  -0.35107  -0.33045  -0.32678
 Alpha  occ. eigenvalues --   -0.32214  -0.27742  -0.25712  -0.23509
 Alpha virt. eigenvalues --    0.01967   0.09380   0.13006   0.13089   0.14220
 Alpha virt. eigenvalues --    0.16233   0.16490   0.16795   0.17222   0.17683
 Alpha virt. eigenvalues --    0.18687   0.19170   0.21258   0.22467   0.22970

 Mulliken charges:
               1
     1  C   -0.059235
     2  C   -0.059234
     3  C   -0.116490
     4  C   -0.145689
     5  C   -0.116490
     6  C   -0.079060
     7  C   -0.213298
     8  C   -0.079060
     9  H    0.082198
    10  H    0.082198
    11  H    0.071969
    12  H    0.085239
    13  H    0.089925
    14  H    0.071969
    15  H    0.091733
    16  H    0.103983
    17  H    0.097609
    18  H    0.091733
 Sum of Mulliken charges =  -0.00000

 Dipole moment (field-independent basis, Debye):
    X=              0.0979    Y=             -0.1785    Z=             -0.0000  Tot=              0.2036
 Quadrupole moment (field-independent basis, Debye-Ang):
   XX=            -48.5153   YY=            -47.0262   ZZ=            -47.2316
   XY=             -1.2237   XZ=              0.0000   YZ=             -0.0000

  Exact polarizability:  72.916  -1.353  70.881  -0.000  -0.000  73.496
 Approx polarizability: 101.583  -2.771 104.045  -0.000  -0.000 124.824

                      1                      2                      3
                      A                      A                      A
 Frequencies --    305.2429               347.9638               478.2992
 Red. masses --      2.8993                 2.6043                 1.7828
 Frc consts  --      0.1592                 0.1858                 0.2403
 IR Inten    --      0.0088                 1.1803                 3.0765

                      4                      5                      6
                      A                      A                      A
 Frequencies --    514.1845               539.4602               663.5456
 Red. masses --      3.0079                 2.5209                 3.4983
 Frc consts  --      0.4685                 0.4322                 0.9075
 IR Inten    --      0.0341                 1.0585                 6.2843

                      7                      8                      9
                      A                      A                      A
 Frequencies --    737.8818               739.4083               762.0031
 Red. masses --      1.9755                 2.4658                 3.1308
 Frc consts  --      0.6337                 0.7943                 1.0711
 IR Inten    --     11.3484                 7.5037                12.3628

                     10                     11                     12
                      A                      A                      A
 Frequencies --    802.2640               812.0475               867.1667
 Red. masses --      1.3548                 4.7790                 2.3916
 Frc consts  --      0.5138                 1.8568                 1.0596
 IR Inten    --     10.6333                 0.1092                12.5191

                     13                     14                     15
                      A                      A                      A
 Frequencies --    892.3681               906.0511               926.0536
 Red. masses --      1.8118                 2.7705                 2.5812
 Frc consts  --      0.8501                 1.3400                 1.3042
 IR Inten    --      0.0613                 2.3116                 0.0493

                     16                     17                     18
                      A                      A                      A
 Frequencies --    940.4108               963.2108               968.5454
 Red. masses --      1.4462                 2.4474                 1.5386
 Frc consts  --      0.7535                 1.3378                 0.8504
 IR Inten    --      3.2301                 0.2005                 0.2761

                     19                     20                     21
                      A                      A                      A
 Frequencies --    993.6933              1044.2572              1071.8004
 Red. masses --      2.1457                 1.6078                 1.2524
 Frc consts  --      1.2483                 1.0330                 0.8476
 IR Inten    --      6.0613                 1.5197                 0.4421

                     22                     23                     24
                      A                      A                      A
 Frequencies --   1075.0193              1090.4453              1099.9133
 Red. masses --      1.6763                 1.2939                 1.3046
 Frc consts  --      1.1414                 0.9065                 0.9299
 IR Inten    --      0.1500                 3.5358                 2.7226

                     25                     26                     27
                      A                      A                      A
 Frequencies --   1128.4230              1143.7112              1179.9434
 Red. masses --      1.2632                 1.0697                 1.7975
 Frc consts  --      0.9477                 0.8244                 1.4745
 IR Inten    --      0.0592                 0.7094                 0.6940

                     28                     29                     30
                      A                      A                      A
 Frequencies --   1192.8228              1246.2898              1281.0003
 Red. masses --      1.9541                 1.4804                 1.3494
 Frc consts  --      1.6382                 1.3548                 1.3046
 IR Inten    --      1.2123                 0.7294                 0.2105

                     31                     32                     33
                      A                      A                      A
 Frequencies --   1283.0315              1293.5394              1298.7197
 Red. masses --      1.6897                 1.5409                 1.2901
 Frc consts  --      1.6389                 1.5191                 1.2820
 IR Inten    --      2.1483                 3.6872                 0.1286

                     34                     35                     36
                      A                      A                      A
 Frequencies --   1370.8684              1374.6328              1491.4669
 Red. masses --      1.7830                 1.7231                 1.2508
 Frc consts  --      1.9742                 1.9184                 1.6393
 IR Inten    --      1.7058                 8.2448                 3.2541

                     37                     38                     39
                      A                      A                      A
 Frequencies --   1509.7803              1649.6824              3053.1709
 Red. masses --      1.1188                 5.6380                 1.0579
 Frc consts  --      1.5026                 9.0402                 5.8104
 IR Inten    --      1.1602                 0.5739                45.7624

                     40                     41                     42
                      A                      A                      A
 Frequencies --   3110.7807              3117.0410              3119.4070
 Red. masses --      1.1079                 1.0874                 1.0898
 Frc consts  --      6.3168                 6.2250                 6.2478
 IR Inten    --     40.0400                59.8975                15.0138

                     43                     44                     45
                      A                      A                      A
 Frequencies --   3136.5462              3170.3978              3179.4995
 Red. masses --      1.0551                 1.0888                 1.0942
 Frc consts  --      6.1159                 6.4480                 6.5171
 IR Inten    --     23.9754                20.2852                19.8367

                     46                     47                     48
                      A                      A                      A
 Frequencies --   3201.8017              3221.9104              3226.3794
 Red. masses --      1.0861                 1.1139                 1.1060
 Frc consts  --      6.5600                 6.8126                 6.7829
 IR Inten    --      8.7810                 7.3255                19.7089

 - Thermochemistry -
 -------------------
 Temperature   298.150 Kelvin.  Pressure   1.00000 Atm.
 Atom     1 has atomic number  6 and mass  12.00000

 Molecular mass:   106.07825 amu.
 Principal axes and moments of inertia in atomic units:
                           1         2         3
     Eigenvalues --   525.39247 724.06730 738.89997
           X            0.99991   0.01341  -0.00000
           Y           -0.01341   0.99991   0.00000
           Z            0.00000  -0.00000   1.00000
 This molecule is an asymmetric top.
 Rotational symmetry number  1.
 Warning -- assumption of classical behavior for rotation
           may cause significant error
 Rotational temperatures (Kelvin)      0.16486     0.11962     0.11722
 Rotational constants (GHZ):           3.43503     2.49250     2.44247
 Zero-point vibrational energy     415834.4 (Joules/Mol)
                                   99.38681 (Kcal/Mol)
 Warning -- explicit consideration of   5 degrees of freedom as
           vibrations may cause significant error
 Vibrational temperatures:    439.18   500.64   688.16   739.80   776.16
          (Kelvin)            954.69  1061.65  1063.84  1096.35  1154.28
                             1168.35  1247.66  1283.92  1303.60  1332.38
                             1353.04  1385.84  1393.52  1429.70  1502.45
                             1542.08  1546.71  1568.91  1582.53  1623.55
                             1645.54  1697.67  1716.20  1793.13  1843.07
                             1845.99  1861.11  1868.57  1972.37  1977.79
                             2145.89  2172.23  2373.52  4392.83  4475.71
                             4484.72  4488.13  4512.78  4561.49  4574.58
                             4606.67  4635.60  4642.03

 Zero-point correction=                           0.158383 (Hartree/Particle)
 Thermal correction to Energy=                    0.163903
 Thermal correction to Enthalpy=                  0.164847
 Thermal correction to Gibbs Free Energy=         0.129321
 Sum of electronic and zero-point Energies=           -310.641245
 Sum of electronic and thermal Energies=              -310.635725
 Sum of electronic and thermal Enthalpies=            -310.634780
 Sum of electronic and thermal Free Energies=         -310.670306

                     E (Thermal)             CV                S
                      KCal/Mol        Cal/Mol-Kelvin    Cal/Mol-Kelvin
 Total                  102.851             24.624             74.770
 Electronic               0.000              0.000              0.000
 Translational            0.889              2.981             39.894
 Rotational               0.889              2.981             27.133
 Vibrational            101.073             18.662              7.744
 Vibration     1          0.696              1.664              1.388
 Vibration     2          0.726              1.579              1.175
 Vibration     3          0.835              1.298              0.715
 Vibration     4          0.869              1.219              0.624
 Vibration     5          0.895              1.163              0.566

 Optimization completed.
    -- Stationary point found.
 Normal termination of Gaussian 09 at Sat Aug 21 01:38:26 2021.
