 Gaussian 09, Revision E.01,
 Gaussian 09:  ES64L-G09RevE.01 30-Nov-2015

 --------------------------------
 #P OPT=calcfc Freq B3LYP/6-31G**
 --------------------------------

 --------
 Frag_249
 --------
 Symbolic Z-matrix:
 Charge =  0 Multiplicity = 1

 SCF Done:  E(RB3LYP) =  -209.198496489     A.U. after   14 cycles
 SCF Done:  E(RB3LYP) =  -209.207250622     A.U. after   14 cycles
 SCF Done:  E(RB3LYP) =  -209.208013849     A.U. after   14 cycles
 SCF Done:  E(RB3LYP) =  -209.208754919     A.U. after   13 cycles
 SCF Done:  E(RB3LYP) =  -209.208642488     A.U. after   11 cycles
 SCF Done:  E(RB3LYP) =  -209.208771520     A.U. after    9 cycles
 SCF Done:  E(RB3LYP) =  -209.208894781     A.U. after   11 cycles
 SCF Done:  E(RB3LYP) =  -209.209082495     A.U. after   12 cycles
 SCF Done:  E(RB3LYP) =  -209.209186743     A.U. after   12 cycles
 SCF Done:  E(RB3LYP) =  -209.209232195     A.U. after   11 cycles
 SCF Done:  E(RB3LYP) =  -209.209252316     A.U. after   10 cycles
 SCF Done:  E(RB3LYP) =  -209.209258766     A.U. after    9 cycles
 SCF Done:  E(RB3LYP) =  -209.209261221     A.U. after    8 cycles
 SCF Done:  E(RB3LYP) =  -209.209261690     A.U. after    8 cycles
 Optimization completed.
    -- Stationary point found.
 Normal termination of Gaussian 09 at Sat Aug 21 02:21:46 2021.

 ----------------------------------------------------------------------
 #P Geom=AllCheck Guess=TCheck SCRF=Check GenChk RB3LYP/6-31G(d,p) Freq
 ----------------------------------------------------------------------

 Structure from the checkpoint file:  "/public/home/users/caep010/.cache/gau_scr/Gau-193313.chk"
 --------
 Frag_249
 --------
 Charge =  0 Multiplicity = 1

                         Standard orientation:
 ---------------------------------------------------------------------
 Center     Atomic      Atomic             Coordinates (Angstroms)
 Number     Number       Type             X           Y           Z
 ---------------------------------------------------------------------
      1          6           0       -1.447949   -0.436320   -0.000002
      2          7           0       -0.478446    0.645462    0.000063
      3          6           0        0.866457    0.430617   -0.000004
      4          8           0        1.408170   -0.661636   -0.000015
      5          1           0       -0.888058   -1.371831    0.000578
      6          1           0       -2.084453   -0.401511   -0.890913
      7          1           0       -2.084979   -0.400525    0.890438
      8          1           0       -0.803970    1.600572   -0.000418
      9          1           0        1.434174    1.382363    0.000027
 ---------------------------------------------------------------------

 SCF Done:  E(RB3LYP) =  -209.209261690     A.U. after    1 cycles

 The electronic state is 1-A.
 Alpha  occ. eigenvalues --  -19.11301 -14.36689 -10.28266 -10.22150  -1.02797
 Alpha  occ. eigenvalues --   -0.92233  -0.71717  -0.59323  -0.54273  -0.45609
 Alpha  occ. eigenvalues --   -0.45121  -0.41006  -0.39134  -0.37736  -0.25468
 Alpha  occ. eigenvalues --   -0.25180
 Alpha virt. eigenvalues --    0.03192   0.07696   0.12131   0.13534   0.16414
 Alpha virt. eigenvalues --    0.17424   0.20761   0.28253   0.35651   0.50585
 Alpha virt. eigenvalues --    0.51267   0.52779   0.60694   0.61793   0.67926

 Mulliken charges:
               1
     1  C   -0.180939
     2  N   -0.481922
     3  C    0.407025
     4  O   -0.468533
     5  H    0.163244
     6  H    0.119621
     7  H    0.119623
     8  H    0.258660
     9  H    0.063221
 Sum of Mulliken charges =   0.00000

 Dipole moment (field-independent basis, Debye):
    X=             -2.8540    Y=              2.5010    Z=             -0.0007  Tot=              3.7947
 Quadrupole moment (field-independent basis, Debye-Ang):
   XX=            -25.2763   YY=            -21.8754   ZZ=            -24.4744
   XY=              2.4374   XZ=              0.0007   YZ=             -0.0012

  Exact polarizability:  40.438  -0.677  33.128   0.001   0.001  20.163
 Approx polarizability:  55.743  -9.222  50.747   0.000   0.002  27.101

                      1                      2                      3
                      A                      A                      A
 Frequencies --     76.2395               265.8926               301.0438
 Red. masses --      1.1029                 2.2344                 3.8273
 Frc consts  --      0.0038                 0.0931                 0.2044
 IR Inten    --      0.0561                76.1215                13.6874

                      4                      5                      6
                      A                      A                      A
 Frequencies --    536.7962               771.6158               966.2995
 Red. masses --      1.1658                 3.5328                 3.4577
 Frc consts  --      0.1979                 1.2393                 1.9022
 IR Inten    --     46.6032                 0.3974                16.2272

                      7                      8                      9
                      A                      A                      A
 Frequencies --   1022.1835              1157.7815              1162.7602
 Red. masses --      1.6076                 1.2754                 1.4997
 Frc consts  --      0.9896                 1.0073                 1.1947
 IR Inten    --      0.8636                 0.6572                22.1997

                     10                     11                     12
                      A                      A                      A
 Frequencies --   1224.0489              1433.8111              1448.3289
 Red. masses --      2.0918                 1.1944                 1.1801
 Frc consts  --      1.8465                 1.4467                 1.4585
 IR Inten    --     81.9566                 2.9661                19.4518

                     13                     14                     15
                      A                      A                      A
 Frequencies --   1503.7549              1514.4256              1563.8610
 Red. masses --      1.2263                 1.0435                 1.5487
 Frc consts  --      1.6338                 1.4101                 2.2316
 IR Inten    --     46.3320                 6.9410                81.5877

                     16                     17                     18
                      A                      A                      A
 Frequencies --   1814.5296              2954.5229              3041.6481
 Red. masses --      7.5101                 1.0859                 1.0367
 Frc consts  --     14.5688                 5.5849                 5.6510
 IR Inten    --    299.6599               120.1900                45.8869

                     19                     20                     21
                      A                      A                      A
 Frequencies --   3097.2372              3168.9187              3643.5798
 Red. masses --      1.1057                 1.0987                 1.0780
 Frc consts  --      6.2496                 6.5004                 8.4320
 IR Inten    --     34.1644                 1.1318                20.4709

 - Thermochemistry -
 -------------------
 Temperature   298.150 Kelvin.  Pressure   1.00000 Atm.
 Atom     1 has atomic number  6 and mass  12.00000

 Molecular mass:    59.03711 amu.
 Principal axes and moments of inertia in atomic units:
                           1         2         3
     Eigenvalues --    90.87949 295.88553 375.34460
           X            0.99814   0.06099   0.00000
           Y           -0.06099   0.99814  -0.00002
           Z           -0.00001   0.00001   1.00000
 This molecule is an asymmetric top.
 Rotational symmetry number  1.
 Rotational temperatures (Kelvin)      0.95306     0.29273     0.23076
 Rotational constants (GHZ):          19.85862     6.09946     4.80822
 Zero-point vibrational energy     195405.7 (Joules/Mol)
                                   46.70308 (Kcal/Mol)
 Warning -- explicit consideration of   4 degrees of freedom as
           vibrations may cause significant error
 Vibrational temperatures:    109.69   382.56   433.13   772.33  1110.18
          (Kelvin)           1390.29  1470.69  1665.79  1672.95  1761.13
                             2062.93  2083.82  2163.57  2178.92  2250.04
                             2610.70  4250.89  4376.25  4456.23  4559.36
                             5242.29

 Zero-point correction=                           0.074426 (Hartree/Particle)
 Thermal correction to Energy=                    0.079366
 Thermal correction to Enthalpy=                  0.080310
 Thermal correction to Gibbs Free Energy=         0.046961
 Sum of electronic and zero-point Energies=           -209.134836
 Sum of electronic and thermal Energies=              -209.129896
 Sum of electronic and thermal Enthalpies=            -209.128952
 Sum of electronic and thermal Free Energies=         -209.162301

                     E (Thermal)             CV                S
                      KCal/Mol        Cal/Mol-Kelvin    Cal/Mol-Kelvin
 Total                   49.803             15.038             70.190
 Electronic               0.000              0.000              0.000
 Translational            0.889              2.981             38.147
 Rotational               0.889              2.981             23.827
 Vibrational             48.025              9.077              8.216
 Vibration     1          0.599              1.965              3.985
 Vibration     2          0.672              1.736              1.623
 Vibration     3          0.693              1.672              1.411
 Vibration     4          0.892              1.169              0.572

 Optimization completed.
    -- Stationary point found.
 Normal termination of Gaussian 09 at Sat Aug 21 02:21:52 2021.
