 Gaussian 09, Revision E.01,
 Gaussian 09:  ES64L-G09RevE.01 30-Nov-2015

 ----------------------------
 #P OPT Freq B3LYP/6-31G(d,p)
 ----------------------------

 --------
 Frag_439
 --------
 Symbolic Z-matrix:
 Charge =  0 Multiplicity = 1

 SCF Done:  E(RB3LYP) =  -287.815187818     A.U. after   13 cycles
 SCF Done:  E(RB3LYP) =  -287.815255806     A.U. after   10 cycles
 SCF Done:  E(RB3LYP) =  -287.815264788     A.U. after    8 cycles
 SCF Done:  E(RB3LYP) =  -287.815273846     A.U. after   10 cycles
 SCF Done:  E(RB3LYP) =  -287.815277220     A.U. after   10 cycles
 SCF Done:  E(RB3LYP) =  -287.815278068     A.U. after    8 cycles
 SCF Done:  E(RB3LYP) =  -287.815278338     A.U. after    7 cycles
 SCF Done:  E(RB3LYP) =  -287.815278455     A.U. after    7 cycles
 Optimization completed.
    -- Stationary point found.
 Normal termination of Gaussian 09 at Thu Sep  8 15:13:45 2022.

 ----------------------------------------------------------------------
 #P Geom=AllCheck Guess=TCheck SCRF=Check GenChk RB3LYP/6-31G(d,p) Freq
 ----------------------------------------------------------------------

 Structure from the checkpoint file:  "B3LYP6-31Gdp.Frag_439.chk"
 --------
 Frag_439
 --------
 Charge =  0 Multiplicity = 1

                         Standard orientation:
 ---------------------------------------------------------------------
 Center     Atomic      Atomic             Coordinates (Angstroms)
 Number     Number       Type             X           Y           Z
 ---------------------------------------------------------------------
      1          6           0       -1.356914    1.364745   -0.092120
      2          6           0       -0.651668    0.035289   -0.005708
      3          6           0       -1.530089   -1.186426    0.096301
      4          6           0        0.694840   -0.038455   -0.007354
      5          7           0        1.567687    1.057482    0.001828
      6          8           0        1.420817   -1.208201   -0.046370
      7          1           0       -0.686065    2.161362   -0.425709
      8          1           0       -1.797427    1.672669    0.868456
      9          1           0       -2.186842    1.317759   -0.810064
     10          1           0       -2.064730   -1.400230   -0.840994
     11          1           0       -2.301784   -1.046709    0.865508
     12          1           0       -0.981643   -2.092377    0.379222
     13          1           0        2.532875    0.759522    0.059639
     14          1           0        1.354352    1.748582    0.708521
     15          1           0        0.853910   -1.908259   -0.393128
 ---------------------------------------------------------------------

 SCF Done:  E(RB3LYP) =  -287.815278455     A.U. after    1 cycles

 The electronic state is 1-A.
 Alpha  occ. eigenvalues --  -19.16877 -14.33039 -10.25575 -10.17801 -10.16911
 Alpha  occ. eigenvalues --  -10.16020  -1.05280  -0.89083  -0.77808  -0.68172
 Alpha  occ. eigenvalues --   -0.65238  -0.58082  -0.50036  -0.47681  -0.45694
 Alpha  occ. eigenvalues --   -0.42159  -0.40279  -0.38606  -0.37604  -0.36727
 Alpha  occ. eigenvalues --   -0.34370  -0.33924  -0.28560  -0.17826
 Alpha virt. eigenvalues --    0.06263   0.06848   0.10596   0.12686   0.14690
 Alpha virt. eigenvalues --    0.16178   0.17093   0.18147   0.18946   0.20733
 Alpha virt. eigenvalues --    0.23962   0.25095   0.28920   0.36464   0.46344

 Mulliken charges:
               1
     1  C   -0.373655
     2  C    0.073979
     3  C   -0.378569
     4  C    0.406224
     5  N   -0.635701
     6  O   -0.551027
     7  H    0.111100
     8  H    0.098656
     9  H    0.102506
    10  H    0.108093
    11  H    0.110473
    12  H    0.081953
    13  H    0.265849
    14  H    0.261536
    15  H    0.318583
 Sum of Mulliken charges =  -0.00000

 Dipole moment (field-independent basis, Debye):
    X=              0.0597    Y=             -0.2421    Z=              0.6228  Tot=              0.6709
 Quadrupole moment (field-independent basis, Debye-Ang):
   XX=            -36.2095   YY=            -33.9860   ZZ=            -38.3705
   XY=              2.0696   XZ=              1.3809   YZ=              3.5094

  Exact polarizability:  71.826   1.601  56.322   0.046   2.046  35.780
 Approx polarizability: 106.434   0.562  74.286  -0.694   2.960  50.954

                      1                      2                      3
                      A                      A                      A
 Frequencies --    134.3168               152.5888               156.3296
 Red. masses --      1.1153                 1.9760                 1.1413
 Frc consts  --      0.0119                 0.0271                 0.0164
 IR Inten    --      0.0675                 6.3341                 1.2189

                      4                      5                      6
                      A                      A                      A
 Frequencies --    243.6009               278.9506               299.3845
 Red. masses --      1.3253                 2.1354                 2.8028
 Frc consts  --      0.0463                 0.0979                 0.1480
 IR Inten    --     14.9919                10.4985                 3.2970

                      7                      8                      9
                      A                      A                      A
 Frequencies --    345.9955               386.1036               489.4513
 Red. masses --      1.9170                 1.2608                 3.1149
 Frc consts  --      0.1352                 0.1107                 0.4397
 IR Inten    --     26.8383                92.0556                 6.6320

                     10                     11                     12
                      A                      A                      A
 Frequencies --    535.3696               599.0261               707.8844
 Red. masses --      3.7018                 2.3009                 2.2030
 Frc consts  --      0.6251                 0.4865                 0.6504
 IR Inten    --      1.2591                85.5224               178.6061

                     13                     14                     15
                      A                      A                      A
 Frequencies --    737.7402               971.1346               986.3297
 Red. masses --      3.5338                 2.0652                 1.3432
 Frc consts  --      1.1332                 1.1476                 0.7699
 IR Inten    --     18.0262                 4.1767                 3.5152

                     16                     17                     18
                      A                      A                      A
 Frequencies --   1011.5940              1097.3745              1099.2387
 Red. masses --      1.2371                 1.5204                 1.5823
 Frc consts  --      0.7459                 1.0788                 1.1265
 IR Inten    --      1.7850                 6.8964                58.3697

                     19                     20                     21
                      A                      A                      A
 Frequencies --   1167.8949              1240.9099              1296.7333
 Red. masses --      1.6032                 3.7980                 1.8394
 Frc consts  --      1.2884                 3.4458                 1.8223
 IR Inten    --     86.1948                 9.1602               115.4600

                     22                     23                     24
                      A                      A                      A
 Frequencies --   1388.7102              1433.4001              1438.2672
 Red. masses --      1.9202                 1.5118                 1.2975
 Frc consts  --      2.1818                 1.8301                 1.5813
 IR Inten    --     28.2013                 5.2657                 7.7071

                     25                     26                     27
                      A                      A                      A
 Frequencies --   1491.6992              1506.6496              1509.2024
 Red. masses --      1.0479                 1.0485                 1.0481
 Frc consts  --      1.3739                 1.4023                 1.4065
 IR Inten    --      1.1219                 8.4469                 7.5022

                     28                     29                     30
                      A                      A                      A
 Frequencies --   1519.5913              1649.2603              1776.2948
 Red. masses --      1.0633                 1.1516                 6.9153
 Frc consts  --      1.4466                 1.8455                12.8555
 IR Inten    --      3.0588                66.7689               220.5594

                     31                     32                     33
                      A                      A                      A
 Frequencies --   2998.0035              3003.8410              3045.1844
 Red. masses --      1.0437                 1.0429                 1.0953
 Frc consts  --      5.5272                 5.5443                 5.9843
 IR Inten    --     55.7901                68.9816                69.3329

                     34                     35                     36
                      A                      A                      A
 Frequencies --   3047.5544              3082.3047              3115.8082
 Red. masses --      1.0959                 1.0986                 1.0965
 Frc consts  --      5.9970                 6.1495                 6.2721
 IR Inten    --      6.3062                41.0958                19.1413

                     37                     38                     39
                      A                      A                      A
 Frequencies --   3566.1221              3670.7315              3840.8435
 Red. masses --      1.0479                 1.0976                 1.0651
 Frc consts  --      7.8519                 8.7138                 9.2577
 IR Inten    --     15.9185                19.8245                25.8139

 - Thermochemistry -
 -------------------
 Temperature   298.150 Kelvin.  Pressure   1.00000 Atm.
 Atom     1 has atomic number  6 and mass  12.00000

 Molecular mass:    87.06841 amu.
 Principal axes and moments of inertia in atomic units:
                           1         2         3
     Eigenvalues --   379.87102 571.06088 921.53252
           X            0.99887   0.04737   0.00426
           Y           -0.04741   0.99883   0.01004
           Z           -0.00377  -0.01023   0.99994
 This molecule is an asymmetric top.
 Rotational symmetry number  1.
 Rotational temperatures (Kelvin)      0.22801     0.15167     0.09399
 Rotational constants (GHZ):           4.75093     3.16033     1.95841
 Zero-point vibrational energy     341063.8 (Joules/Mol)
                                   81.51621 (Kcal/Mol)
 Warning -- explicit consideration of  11 degrees of freedom as
           vibrations may cause significant error
 Vibrational temperatures:    193.25   219.54   224.92   350.49   401.35
          (Kelvin)            430.75   497.81   555.52   704.21   770.28
                              861.86  1018.49  1061.44  1397.24  1419.11
                             1455.46  1578.88  1581.56  1680.34  1785.39
                             1865.71  1998.04  2062.34  2069.34  2146.22
                             2167.73  2171.40  2186.35  2372.91  2555.69
                             4313.45  4321.85  4381.34  4384.75  4434.74
                             4482.95  5130.85  5281.36  5526.11

 Zero-point correction=                           0.129904 (Hartree/Particle)
 Thermal correction to Energy=                    0.137785
 Thermal correction to Enthalpy=                  0.138729
 Thermal correction to Gibbs Free Energy=         0.098790
 Sum of electronic and zero-point Energies=           -287.685374
 Sum of electronic and thermal Energies=              -287.677493
 Sum of electronic and thermal Enthalpies=            -287.676549
 Sum of electronic and thermal Free Energies=         -287.716488

                     E (Thermal)             CV                S
                      KCal/Mol        Cal/Mol-Kelvin    Cal/Mol-Kelvin
 Total                   86.462             27.921             84.059
 Electronic               0.000              0.000              0.000
 Translational            0.889              2.981             39.305
 Rotational               0.889              2.981             26.794
 Vibrational             84.684             21.959             17.960
 Vibration     1          0.613              1.919              2.883
 Vibration     2          0.619              1.900              2.640
 Vibration     3          0.620              1.896              2.594
 Vibration     4          0.659              1.773              1.776
 Vibration     5          0.679              1.712              1.540
 Vibration     6          0.692              1.675              1.420
 Vibration     7          0.724              1.583              1.184
 Vibration     8          0.755              1.500              1.015
 Vibration     9          0.845              1.273              0.685
 Vibration    10          0.890              1.172              0.575
 Vibration    11          0.957              1.034              0.451

 Optimization completed.
    -- Stationary point found.
 Normal termination of Gaussian 09 at Thu Sep  8 15:13:57 2022.
