 Gaussian 09, Revision E.01,
 Gaussian 09:  ES64L-G09RevE.01 30-Nov-2015

 --------------------------------
 #P OPT=calcfc Freq B3LYP/6-31G**
 --------------------------------

 --------
 Frag_145
 --------
 Symbolic Z-matrix:
 Charge =  0 Multiplicity = 1

 SCF Done:  E(RB3LYP) =  -189.293706158     A.U. after   13 cycles
 SCF Done:  E(RB3LYP) =  -189.309953180     A.U. after   13 cycles
 SCF Done:  E(RB3LYP) =  -189.298572923     A.U. after   13 cycles
 SCF Done:  E(RB3LYP) =  -189.310664119     A.U. after   10 cycles
 SCF Done:  E(RB3LYP) =  -189.313136597     A.U. after   13 cycles
 SCF Done:  E(RB3LYP) =  -189.267219526     A.U. after   13 cycles
 SCF Done:  E(RB3LYP) =  -189.313182520     A.U. after    8 cycles
 SCF Done:  E(RB3LYP) =  -189.266678083     A.U. after   13 cycles
 SCF Done:  E(RB3LYP) =  -189.313185027     A.U. after    8 cycles
 SCF Done:  E(RB3LYP) =  -189.296476970     A.U. after   13 cycles
 SCF Done:  E(RB3LYP) =  -189.315448660     A.U. after   11 cycles
 SCF Done:  E(RB3LYP) =  -189.315710296     A.U. after   11 cycles
 SCF Done:  E(RB3LYP) =  -189.316054537     A.U. after   11 cycles
 SCF Done:  E(RB3LYP) =  -189.316627583     A.U. after   11 cycles
 SCF Done:  E(RB3LYP) =  -189.316915048     A.U. after   10 cycles
 SCF Done:  E(RB3LYP) =  -189.316948996     A.U. after   11 cycles
 SCF Done:  E(RB3LYP) =  -189.317219145     A.U. after   11 cycles
 SCF Done:  E(RB3LYP) =  -189.317228761     A.U. after   10 cycles
 SCF Done:  E(RB3LYP) =  -189.317234571     A.U. after    8 cycles
 Optimization completed.
    -- Stationary point found.
 Normal termination of Gaussian 09 at Sat Aug 21 02:19:30 2021.

 ----------------------------------------------------------------------
 #P Geom=AllCheck Guess=TCheck SCRF=Check GenChk RB3LYP/6-31G(d,p) Freq
 ----------------------------------------------------------------------

 Structure from the checkpoint file:  "/public/home/users/caep010/.cache/gau_scr/Gau-37315.chk"
 --------
 Frag_145
 --------
 Charge =  0 Multiplicity = 1

                         Standard orientation:
 ---------------------------------------------------------------------
 Center     Atomic      Atomic             Coordinates (Angstroms)
 Number     Number       Type             X           Y           Z
 ---------------------------------------------------------------------
      1          6           0        1.434572    0.004370   -0.000057
      2          6           0        0.088840    0.000308    0.000062
      3          7           0       -0.710674    1.151828   -0.085834
      4          7           0       -0.703728   -1.156079    0.086016
      5          1           0        1.992870    0.928756    0.087256
      6          1           0        1.998359   -0.916679   -0.087417
      7          1           0       -0.172936    2.008086   -0.045895
      8          1           0       -1.453295    1.158968    0.606183
      9          1           0       -0.160452   -2.008983    0.046888
     10          1           0       -1.444204   -1.168461   -0.608318
 ---------------------------------------------------------------------

 SCF Done:  E(RB3LYP) =  -189.317234571     A.U. after    1 cycles

 The electronic state is 1-A.
 Alpha  occ. eigenvalues --  -14.33007 -14.33005 -10.23965 -10.14154  -0.93519
 Alpha  occ. eigenvalues --   -0.85304  -0.70371  -0.57386  -0.50778  -0.50274
 Alpha  occ. eigenvalues --   -0.43720  -0.40815  -0.38829  -0.33931  -0.25712
 Alpha  occ. eigenvalues --   -0.18871
 Alpha virt. eigenvalues --    0.06479   0.07609   0.12380   0.13819   0.14461
 Alpha virt. eigenvalues --    0.17838   0.20223   0.27387   0.35507   0.40154
 Alpha virt. eigenvalues --    0.55851   0.57093   0.58725   0.62491   0.66539

 Mulliken charges:
               1
     1  C   -0.327453
     2  C    0.432610
     3  N   -0.633190
     4  N   -0.633171
     5  H    0.069031
     6  H    0.069043
     7  H    0.255191
     8  H    0.256417
     9  H    0.255148
    10  H    0.256374
 Sum of Mulliken charges =  -0.00000

 Dipole moment (field-independent basis, Debye):
    X=             -0.8296    Y=             -0.0022    Z=             -0.0017  Tot=              0.8296
 Quadrupole moment (field-independent basis, Debye-Ang):
   XX=            -24.6804   YY=            -18.9855   ZZ=            -27.5072
   XY=             -0.0217   XZ=             -0.0060   YZ=              3.0438

  Exact polarizability:  49.966   0.031  38.564   0.002   0.630  17.918
 Approx polarizability:  77.289   0.073  50.015   0.008  -0.433  24.852

                      1                      2                      3
                      A                      A                      A
 Frequencies --    362.4047               364.0079               467.5954
 Red. masses --      1.0778                 1.0533                 2.1127
 Frc consts  --      0.0834                 0.0822                 0.2722
 IR Inten    --      4.6332                35.4686                 9.7573

                      4                      5                      6
                      A                      A                      A
 Frequencies --    476.2244               564.9608               639.6794
 Red. masses --      2.6746                 1.9398                 1.0365
 Frc consts  --      0.3574                 0.3648                 0.2499
 IR Inten    --      0.0611               109.4639               121.7997

                      7                      8                      9
                      A                      A                      A
 Frequencies --    721.2181               779.9624               801.6806
 Red. masses --      1.3334                 1.9089                 1.3280
 Frc consts  --      0.4086                 0.6842                 0.5029
 IR Inten    --     39.1667               256.4750               164.8849

                     10                     11                     12
                      A                      A                      A
 Frequencies --    929.0432               991.4357              1145.0346
 Red. masses --      3.5212                 1.4705                 1.3743
 Frc consts  --      1.7907                 0.8516                 1.0616
 IR Inten    --      3.4952                 3.4379                 9.4974

                     13                     14                     15
                      A                      A                      A
 Frequencies --   1177.9627              1415.1428              1460.5588
 Red. masses --      1.3467                 3.3304                 1.1578
 Frc consts  --      1.1010                 3.9296                 1.4552
 IR Inten    --      4.2347                66.0073                 1.4622

                     16                     17                     18
                      A                      A                      A
 Frequencies --   1639.2710              1643.4731              1746.0813
 Red. masses --      1.1857                 1.1598                 4.1550
 Frc consts  --      1.8773                 1.8457                 7.4636
 IR Inten    --      6.4244               116.7773               180.9635

                     19                     20                     21
                      A                      A                      A
 Frequencies --   3177.5207              3262.5182              3527.1265
 Red. masses --      1.0596                 1.1169                 1.0499
 Frc consts  --      6.3034                 7.0043                 7.6953
 IR Inten    --      0.4474                17.2627                 5.2526

                     22                     23                     24
                      A                      A                      A
 Frequencies --   3529.7708              3646.3802              3647.6596
 Red. masses --      1.0502                 1.0941                 1.0941
 Frc consts  --      7.7097                 8.5709                 8.5771
 IR Inten    --      0.1406                 6.2795                 5.7849

 - Thermochemistry -
 -------------------
 Temperature   298.150 Kelvin.  Pressure   1.00000 Atm.
 Atom     1 has atomic number  6 and mass  12.00000

 Molecular mass:    58.05310 amu.
 Principal axes and moments of inertia in atomic units:
                           1         2         3
     Eigenvalues --   181.55592 185.81289 360.71969
           X            1.00000  -0.00216  -0.00006
           Y            0.00216   0.99960   0.02814
           Z           -0.00000  -0.02814   0.99960
 This molecule is an asymmetric top.
 Rotational symmetry number  1.
 Rotational temperatures (Kelvin)      0.47706     0.46613     0.24011
 Rotational constants (GHZ):           9.94041     9.71268     5.00317
 Zero-point vibrational energy     227988.6 (Joules/Mol)
                                   54.49058 (Kcal/Mol)
 Warning -- explicit consideration of   5 degrees of freedom as
           vibrations may cause significant error
 Vibrational temperatures:    521.42   523.73   672.76   685.18   812.85
          (Kelvin)            920.35  1037.67  1122.19  1153.44  1336.68
                             1426.45  1647.45  1694.82  2036.07  2101.42
                             2358.54  2364.59  2512.22  4571.74  4694.03
                             5074.74  5078.55  5246.32  5248.16

 Zero-point correction=                           0.086836 (Hartree/Particle)
 Thermal correction to Energy=                    0.091586
 Thermal correction to Enthalpy=                  0.092530
 Thermal correction to Gibbs Free Energy=         0.060331
 Sum of electronic and zero-point Energies=           -189.230398
 Sum of electronic and thermal Energies=              -189.225648
 Sum of electronic and thermal Enthalpies=            -189.224704
 Sum of electronic and thermal Free Energies=         -189.256904

                     E (Thermal)             CV                S
                      KCal/Mol        Cal/Mol-Kelvin    Cal/Mol-Kelvin
 Total                   57.471             17.480             67.770
 Electronic               0.000              0.000              0.000
 Translational            0.889              2.981             38.097
 Rotational               0.889              2.981             24.013
 Vibrational             55.694             11.518              5.660
 Vibration     1          0.736              1.550              1.112
 Vibration     2          0.738              1.546              1.105
 Vibration     3          0.825              1.322              0.744
 Vibration     4          0.833              1.303              0.720
 Vibration     5          0.921              1.107              0.514

 Optimization completed.
    -- Stationary point found.
 Normal termination of Gaussian 09 at Sat Aug 21 02:19:37 2021.
