 Gaussian 09, Revision E.01,
 Gaussian 09:  ES64L-G09RevE.01 30-Nov-2015

 ----------------------------
 #P OPT Freq B3LYP/6-31G(d,p)
 ----------------------------

 ---------
 Frag_1050
 ---------
 Symbolic Z-matrix:
 Charge =  0 Multiplicity = 1

 SCF Done:  E(RB3LYP) =  -305.041479066     A.U. after   13 cycles
 SCF Done:  E(RB3LYP) =  -305.041519025     A.U. after   10 cycles
 SCF Done:  E(RB3LYP) =  -305.041522937     A.U. after    9 cycles
 SCF Done:  E(RB3LYP) =  -305.041527514     A.U. after    8 cycles
 SCF Done:  E(RB3LYP) =  -305.041528513     A.U. after    7 cycles
 SCF Done:  E(RB3LYP) =  -305.041528629     A.U. after    7 cycles
 Optimization completed.
    -- Stationary point found.
 Normal termination of Gaussian 09 at Thu Sep  8 14:45:42 2022.

 ----------------------------------------------------------------------
 #P Geom=AllCheck Guess=TCheck SCRF=Check GenChk RB3LYP/6-31G(d,p) Freq
 ----------------------------------------------------------------------

 Structure from the checkpoint file:  "B3LYP6-31Gdp.Frag_1050.chk"
 ---------
 Frag_1050
 ---------
 Charge =  0 Multiplicity = 1

                         Standard orientation:
 ---------------------------------------------------------------------
 Center     Atomic      Atomic             Coordinates (Angstroms)
 Number     Number       Type             X           Y           Z
 ---------------------------------------------------------------------
      1          6           0       -1.641648   -0.753117   -0.442193
      2          6           0       -0.394694    0.006340    0.023689
      3          6           0       -0.461702    1.489770   -0.362579
      4          8           0       -0.297564   -0.014847    1.448134
      5          7           0        0.775604   -0.720364   -0.499647
      6          7           0        2.020900    0.003888   -0.175504
      7          1           0       -1.580810   -1.802335   -0.137065
      8          1           0       -1.746168   -0.722662   -1.531963
      9          1           0       -2.534040   -0.304483    0.001029
     10          1           0       -0.590775    1.592945   -1.444278
     11          1           0        0.455396    2.007067   -0.076854
     12          1           0       -1.307405    1.969747    0.137079
     13          1           0       -0.203980   -0.948049    1.692822
     14          1           0        0.717328   -0.679458   -1.517752
     15          1           0        2.713971   -0.740755   -0.085796
     16          1           0        1.869737    0.304141    0.790260
 ---------------------------------------------------------------------

 SCF Done:  E(RB3LYP) =  -305.041528629     A.U. after    1 cycles

 The electronic state is 1-A.
 Alpha  occ. eigenvalues --  -19.14611 -14.34005 -14.33179 -10.26596 -10.17838
 Alpha  occ. eigenvalues --  -10.16909  -1.03122  -0.93643  -0.79599  -0.72064
 Alpha  occ. eigenvalues --   -0.69144  -0.58159  -0.51472  -0.48751  -0.45264
 Alpha  occ. eigenvalues --   -0.43533  -0.41743  -0.39604  -0.37994  -0.37608
 Alpha  occ. eigenvalues --   -0.35958  -0.33764  -0.31140  -0.27978  -0.19990
 Alpha virt. eigenvalues --    0.06737   0.10033   0.11626   0.12957   0.14848
 Alpha virt. eigenvalues --    0.16118   0.16995   0.17317   0.18579   0.20757
 Alpha virt. eigenvalues --    0.21283   0.22706   0.24392   0.25762   0.28118

 Mulliken charges:
               1
     1  C   -0.314386
     2  C    0.337834
     3  C   -0.291335
     4  O   -0.539640
     5  N   -0.412832
     6  N   -0.487367
     7  H    0.104887
     8  H    0.099099
     9  H    0.117478
    10  H    0.094096
    11  H    0.125464
    12  H    0.110769
    13  H    0.304057
    14  H    0.250567
    15  H    0.247989
    16  H    0.253321
 Sum of Mulliken charges =  -0.00000

 Dipole moment (field-independent basis, Debye):
    X=             -0.3885    Y=             -1.2224    Z=             -0.3021  Tot=              1.3178
 Quadrupole moment (field-independent basis, Debye-Ang):
   XX=            -36.9880   YY=            -38.1820   ZZ=            -36.9681
   XY=             -1.6552   XZ=              2.8088   YZ=             -1.5131

  Exact polarizability:  57.278  -1.075  48.505   1.694   0.305  48.597
 Approx polarizability:  72.730  -1.905  65.442   1.402   2.306  71.377

                      1                      2                      3
                      A                      A                      A
 Frequencies --    150.7221               208.5063               221.1219
 Red. masses --      2.4214                 1.1009                 1.3957
 Frc consts  --      0.0324                 0.0282                 0.0402
 IR Inten    --     19.0087                16.4552                13.7555

                      4                      5                      6
                      A                      A                      A
 Frequencies --    248.1977               274.2126               349.0350
 Red. masses --      1.0438                 2.0857                 2.2330
 Frc consts  --      0.0379                 0.0924                 0.1603
 IR Inten    --      0.7459                 6.4744                 9.9220

                      7                      8                      9
                      A                      A                      A
 Frequencies --    383.7609               428.5445               433.0095
 Red. masses --      3.2830                 2.0613                 1.4893
 Frc consts  --      0.2849                 0.2230                 0.1645
 IR Inten    --      0.4452                19.1925                85.4191

                     10                     11                     12
                      A                      A                      A
 Frequencies --    510.3299               585.7001               758.4806
 Red. masses --      2.1801                 3.1337                 4.1517
 Frc consts  --      0.3345                 0.6334                 1.4072
 IR Inten    --     19.5837                29.6990                10.0150

                     13                     14                     15
                      A                      A                      A
 Frequencies --    867.7556               929.3626               936.4760
 Red. masses --      2.7129                 1.4728                 1.8170
 Frc consts  --      1.2036                 0.7495                 0.9389
 IR Inten    --     40.9827                 4.6036                69.0886

                     16                     17                     18
                      A                      A                      A
 Frequencies --    980.8499              1011.8061              1022.6676
 Red. masses --      1.7644                 2.2793                 1.3677
 Frc consts  --      1.0001                 1.3748                 0.8427
 IR Inten    --     15.2129                39.6650                 8.4450

                     19                     20                     21
                      A                      A                      A
 Frequencies --   1128.6518              1189.8310              1238.1802
 Red. masses --      1.5926                 1.4794                 1.8056
 Frc consts  --      1.1953                 1.2340                 1.6309
 IR Inten    --     45.2006                93.4162                41.9602

                     22                     23                     24
                      A                      A                      A
 Frequencies --   1253.0328              1337.6387              1367.7729
 Red. masses --      2.3520                 1.3901                 1.4720
 Frc consts  --      2.1758                 1.4655                 1.6225
 IR Inten    --     44.0712                10.2051                54.6888

                     25                     26                     27
                      A                      A                      A
 Frequencies --   1414.5352              1431.6226              1480.1459
 Red. masses --      1.3751                 1.2817                 1.1532
 Frc consts  --      1.6211                 1.5478                 1.4886
 IR Inten    --     24.2499                13.0135                12.5402

                     28                     29                     30
                      A                      A                      A
 Frequencies --   1493.6616              1500.2883              1517.3526
 Red. masses --      1.0463                 1.0737                 1.0812
 Frc consts  --      1.3754                 1.4239                 1.4666
 IR Inten    --      0.1002                 1.8268                 9.5350

                     31                     32                     33
                      A                      A                      A
 Frequencies --   1520.5953              1678.1011              3048.4396
 Red. masses --      1.1036                 1.0562                 1.0361
 Frc consts  --      1.5034                 1.7523                 5.6728
 IR Inten    --      0.7426                29.0361                13.5553

                     34                     35                     36
                      A                      A                      A
 Frequencies --   3062.5367              3118.8415              3132.1669
 Red. masses --      1.0370                 1.1019                 1.1029
 Frc consts  --      5.7305                 6.3150                 6.3747
 IR Inten    --     13.1451                20.7978                19.4182

                     37                     38                     39
                      A                      A                      A
 Frequencies --   3141.8992              3159.5212              3432.3555
 Red. masses --      1.1026                 1.1011                 1.0507
 Frc consts  --      6.4129                 6.4764                 7.2932
 IR Inten    --     26.0399                14.0467                 6.0655

                     40                     41                     42
                      A                      A                      A
 Frequencies --   3470.4044              3511.2682              3775.4327
 Red. masses --      1.0746                 1.0908                 1.0652
 Frc consts  --      7.6250                 7.9237                 8.9454
 IR Inten    --      1.5303                 1.3541                10.6231

 - Thermochemistry -
 -------------------
 Temperature   298.150 Kelvin.  Pressure   1.00000 Atm.
 Atom     1 has atomic number  6 and mass  12.00000

 Molecular mass:    90.07931 amu.
 Principal axes and moments of inertia in atomic units:
                           1         2         3
     Eigenvalues --   388.17852 646.73573 668.10623
           X            0.99904   0.01572   0.04100
           Y           -0.00789   0.98278  -0.18460
           Z           -0.04319   0.18409   0.98196
 This molecule is an asymmetric top.
 Rotational symmetry number  1.
 Rotational temperatures (Kelvin)      0.22313     0.13392     0.12964
 Rotational constants (GHZ):           4.64926     2.79054     2.70128
 Zero-point vibrational energy     375058.1 (Joules/Mol)
                                   89.64103 (Kcal/Mol)
 Warning -- explicit consideration of  11 degrees of freedom as
           vibrations may cause significant error
 Vibrational temperatures:    216.86   299.99   318.14   357.10   394.53
          (Kelvin)            502.18   552.15   616.58   623.00   734.25
                              842.69  1091.28  1248.51  1337.14  1347.38
                             1411.22  1455.76  1471.39  1623.88  1711.90
                             1781.46  1802.83  1924.56  1967.92  2035.20
                             2059.78  2129.60  2149.04  2158.58  2183.13
                             2187.79  2414.41  4386.02  4406.30  4487.31
                             4506.48  4520.49  4545.84  4938.39  4993.13
                             5051.93  5432.00

 Zero-point correction=                           0.142852 (Hartree/Particle)
 Thermal correction to Energy=                    0.150461
 Thermal correction to Enthalpy=                  0.151405
 Thermal correction to Gibbs Free Energy=         0.112323
 Sum of electronic and zero-point Energies=           -304.898677
 Sum of electronic and thermal Energies=              -304.891068
 Sum of electronic and thermal Enthalpies=            -304.890124
 Sum of electronic and thermal Free Energies=         -304.929205

                     E (Thermal)             CV                S
                      KCal/Mol        Cal/Mol-Kelvin    Cal/Mol-Kelvin
 Total                   94.416             28.140             82.254
 Electronic               0.000              0.000              0.000
 Translational            0.889              2.981             39.407
 Rotational               0.889              2.981             26.620
 Vibrational             92.638             22.178             16.228
 Vibration     1          0.618              1.902              2.663
 Vibration     2          0.642              1.828              2.057
 Vibration     3          0.648              1.809              1.950
 Vibration     4          0.662              1.766              1.743
 Vibration     5          0.677              1.721              1.570
 Vibration     6          0.726              1.577              1.171
 Vibration     7          0.753              1.505              1.024
 Vibration     8          0.790              1.408              0.863
 Vibration     9          0.794              1.398              0.849
 Vibration    10          0.865              1.227              0.633
 Vibration    11          0.943              1.062              0.475

 Optimization completed.
    -- Stationary point found.
 Normal termination of Gaussian 09 at Thu Sep  8 14:45:56 2022.
