 Gaussian 09, Revision E.01,
 Gaussian 09:  ES64L-G09RevE.01 30-Nov-2015

 ----------------------------
 #P OPT Freq B3LYP/6-31G(d,p)
 ----------------------------

 --------
 Frag_523
 --------
 Symbolic Z-matrix:
 Charge =  0 Multiplicity = 1

 SCF Done:  E(RB3LYP) =  -210.387477212     A.U. after   13 cycles
 SCF Done:  E(RB3LYP) =  -210.387513693     A.U. after   10 cycles
 SCF Done:  E(RB3LYP) =  -210.387519618     A.U. after    9 cycles
 SCF Done:  E(RB3LYP) =  -210.387520800     A.U. after    7 cycles
 SCF Done:  E(RB3LYP) =  -210.387521324     A.U. after    7 cycles
 SCF Done:  E(RB3LYP) =  -210.387521917     A.U. after    7 cycles
 SCF Done:  E(RB3LYP) =  -210.387522011     A.U. after    7 cycles
 Optimization completed.
    -- Stationary point found.
 Normal termination of Gaussian 09 at Thu Sep  8 15:17:41 2022.

 ----------------------------------------------------------------------
 #P Geom=AllCheck Guess=TCheck SCRF=Check GenChk RB3LYP/6-31G(d,p) Freq
 ----------------------------------------------------------------------

 Structure from the checkpoint file:  "B3LYP6-31Gdp.Frag_523.chk"
 --------
 Frag_523
 --------
 Charge =  0 Multiplicity = 1

                         Standard orientation:
 ---------------------------------------------------------------------
 Center     Atomic      Atomic             Coordinates (Angstroms)
 Number     Number       Type             X           Y           Z
 ---------------------------------------------------------------------
      1          6           0        1.484277   -0.460001    0.104168
      2          8           0        0.640418    0.583171   -0.357833
      3          6           0       -0.631324    0.588176    0.248371
      4          7           0       -1.402103   -0.593608   -0.101161
      5          1           0        1.690625   -0.358335    1.181897
      6          1           0        2.424957   -0.371523   -0.444216
      7          1           0        1.043596   -1.446565   -0.074988
      8          1           0       -1.080422    1.537631   -0.078298
      9          1           0       -0.542532    0.609330    1.347705
     10          1           0       -2.161996   -0.743670    0.554936
     11          1           0       -1.800569   -0.506026   -1.031471
 ---------------------------------------------------------------------

 SCF Done:  E(RB3LYP) =  -210.387522011     A.U. after    1 cycles

 The electronic state is 1-A.
 Alpha  occ. eigenvalues --  -19.13762 -14.31625 -10.25189 -10.21216  -1.02496
 Alpha  occ. eigenvalues --   -0.87157  -0.69788  -0.61204  -0.50732  -0.48046
 Alpha  occ. eigenvalues --   -0.46166  -0.43347  -0.39910  -0.37230  -0.30752
 Alpha  occ. eigenvalues --   -0.25300  -0.24470
 Alpha virt. eigenvalues --    0.08278   0.12123   0.13699   0.15086   0.16093
 Alpha virt. eigenvalues --    0.17722   0.19673   0.20173   0.25348   0.26559
 Alpha virt. eigenvalues --    0.52363   0.53728   0.55537   0.57310   0.58416

 Mulliken charges:
               1
     1  C   -0.064823
     2  O   -0.469138
     3  C    0.174559
     4  N   -0.597123
     5  H    0.080439
     6  H    0.107450
     7  H    0.117754
     8  H    0.088757
     9  H    0.078812
    10  H    0.238281
    11  H    0.245032
 Sum of Mulliken charges =   0.00000

 Dipole moment (field-independent basis, Debye):
    X=             -1.4995    Y=             -0.1957    Z=              0.7242  Tot=              1.6767
 Quadrupole moment (field-independent basis, Debye-Ang):
   XX=            -20.3895   YY=            -27.5014   ZZ=            -24.5836
   XY=             -1.5578   XZ=              0.6093   YZ=              0.5218

  Exact polarizability:  39.379  -0.338  30.819  -0.162   0.448  31.522
 Approx polarizability:  46.457   1.012  41.031  -1.105  -0.739  43.523

                      1                      2                      3
                      A                      A                      A
 Frequencies --    151.2528               209.4835               225.1196
 Red. masses --      1.2711                 1.7794                 1.1023
 Frc consts  --      0.0171                 0.0460                 0.0329
 IR Inten    --      2.7755                15.5626                45.6545

                      4                      5                      6
                      A                      A                      A
 Frequencies --    365.5798               558.9291               794.3055
 Red. masses --      2.4805                 2.9618                 1.3521
 Frc consts  --      0.1953                 0.5452                 0.5026
 IR Inten    --      4.8343                 4.3664               151.5380

                      7                      8                      9
                      A                      A                      A
 Frequencies --    927.8851               994.8541              1069.0179
 Red. masses --      2.7018                 1.6451                 3.2922
 Frc consts  --      1.3705                 0.9593                 2.2167
 IR Inten    --     23.5492                 8.1105                42.4584

                     10                     11                     12
                      A                      A                      A
 Frequencies --   1163.9256              1180.9898              1203.1856
 Red. masses --      2.9456                 1.3207                 1.5645
 Frc consts  --      2.3511                 1.0853                 1.3344
 IR Inten    --    155.5244                13.6094                47.9543

                     13                     14                     15
                      A                      A                      A
 Frequencies --   1287.7594              1359.7315              1441.4018
 Red. masses --      1.5263                 1.1566                 1.1732
 Frc consts  --      1.4913                 1.2599                 1.4362
 IR Inten    --      7.4316                 3.9630                27.4962

                     16                     17                     18
                      A                      A                      A
 Frequencies --   1487.1305              1494.5708              1520.8699
 Red. masses --      1.1721                 1.0679                 1.0856
 Frc consts  --      1.5272                 1.4055                 1.4794
 IR Inten    --     10.4974                 5.3335                 1.4518

                     19                     20                     21
                      A                      A                      A
 Frequencies --   1531.1320              1658.2057              2972.8438
 Red. masses --      1.0574                 1.1037                 1.0589
 Frc consts  --      1.4605                 1.7880                 5.5136
 IR Inten    --      5.3748                27.9781                76.4941

                     22                     23                     24
                      A                      A                      A
 Frequencies --   2989.8278              3023.0276              3080.3651
 Red. masses --      1.0503                 1.1038                 1.0852
 Frc consts  --      5.5315                 5.9433                 6.0670
 IR Inten    --     77.2078                74.6375                41.7360

                     25                     26                     27
                      A                      A                      A
 Frequencies --   3135.2587              3513.5443              3608.1905
 Red. masses --      1.1032                 1.0491                 1.0942
 Frc consts  --      6.3894                 7.6308                 8.3935
 IR Inten    --     29.6927                 0.0140                 0.9345

 - Thermochemistry -
 -------------------
 Temperature   298.150 Kelvin.  Pressure   1.00000 Atm.
 Atom     1 has atomic number  6 and mass  12.00000

 Molecular mass:    61.05276 amu.
 Principal axes and moments of inertia in atomic units:
                           1         2         3
     Eigenvalues --   109.77443 330.66616 384.54128
           X            0.99914  -0.04034   0.00960
           Y            0.03993   0.99842   0.03955
           Z           -0.01118  -0.03913   0.99917
 This molecule is an asymmetric top.
 Rotational symmetry number  1.
 Rotational temperatures (Kelvin)      0.78902     0.26194     0.22524
 Rotational constants (GHZ):          16.44045     5.45790     4.69323
 Zero-point vibrational energy     256888.4 (Joules/Mol)
                                   61.39780 (Kcal/Mol)
 Warning -- explicit consideration of   5 degrees of freedom as
           vibrations may cause significant error
 Vibrational temperatures:    217.62   301.40   323.90   525.99   804.17
          (Kelvin)           1142.83  1335.02  1431.37  1538.08  1674.63
                             1699.18  1731.11  1852.80  1956.35  2073.85
                             2139.65  2150.35  2188.19  2202.95  2385.79
                             4277.25  4301.69  4349.46  4431.95  4510.93
                             5055.20  5191.37

 Zero-point correction=                           0.097844 (Hartree/Particle)
 Thermal correction to Energy=                    0.103211
 Thermal correction to Enthalpy=                  0.104155
 Thermal correction to Gibbs Free Energy=         0.070232
 Sum of electronic and zero-point Energies=           -210.289678
 Sum of electronic and thermal Energies=              -210.284311
 Sum of electronic and thermal Enthalpies=            -210.283367
 Sum of electronic and thermal Free Energies=         -210.317290

                     E (Thermal)             CV                S
                      KCal/Mol        Cal/Mol-Kelvin    Cal/Mol-Kelvin
 Total                   64.766             17.321             71.396
 Electronic               0.000              0.000              0.000
 Translational            0.889              2.981             38.247
 Rotational               0.889              2.981             24.149
 Vibrational             62.988             11.360              9.000
 Vibration     1          0.619              1.901              2.656
 Vibration     2          0.642              1.826              2.048
 Vibration     3          0.650              1.803              1.918
 Vibration     4          0.739              1.543              1.098
 Vibration     5          0.915              1.120              0.526

 Optimization completed.
    -- Stationary point found.
 Normal termination of Gaussian 09 at Thu Sep  8 15:17:49 2022.
