 Gaussian 09, Revision E.01,
 Gaussian 09:  ES64L-G09RevE.01 30-Nov-2015

 ----------------------------
 #P OPT Freq B3LYP/6-31G(d,p)
 ----------------------------

 --------
 Frag_496
 --------
 Symbolic Z-matrix:
 Charge =  0 Multiplicity = 1

 SCF Done:  E(RB3LYP) =  -212.580849555     A.U. after   13 cycles
 SCF Done:  E(RB3LYP) =  -212.580882199     A.U. after    8 cycles
 SCF Done:  E(RB3LYP) =  -212.580883957     A.U. after    7 cycles
 SCF Done:  E(RB3LYP) =  -212.580884345     A.U. after    7 cycles
 SCF Done:  E(RB3LYP) =  -212.580884489     A.U. after    7 cycles
 Optimization completed.
    -- Stationary point found.
 Normal termination of Gaussian 09 at Thu Sep  8 15:17:29 2022.

 ----------------------------------------------------------------------
 #P Geom=AllCheck Guess=TCheck SCRF=Check GenChk RB3LYP/6-31G(d,p) Freq
 ----------------------------------------------------------------------

 Structure from the checkpoint file:  "B3LYP6-31Gdp.Frag_496.chk"
 --------
 Frag_496
 --------
 Charge =  0 Multiplicity = 1

                         Standard orientation:
 ---------------------------------------------------------------------
 Center     Atomic      Atomic             Coordinates (Angstroms)
 Number     Number       Type             X           Y           Z
 ---------------------------------------------------------------------
      1          6           0        1.962284   -0.103089   -0.255956
      2          6           0        0.867434   -0.651950    0.268810
      3          6           0       -0.485543    0.020176    0.423863
      4          6           0       -1.570063   -0.779114   -0.316248
      5          7           0       -0.565406    1.423979    0.015273
      6          1           0        2.893613   -0.654506   -0.337367
      7          1           0        1.969327    0.919842   -0.623083
      8          1           0        0.912251   -1.681866    0.626520
      9          1           0       -0.736562   -0.007331    1.495603
     10          1           0       -1.592839   -1.821104    0.017802
     11          1           0       -2.551215   -0.330314   -0.141992
     12          1           0       -1.375654   -0.780096   -1.395068
     13          1           0       -0.347361    1.502881   -0.977063
     14          1           0        0.141608    1.968504    0.504922
 ---------------------------------------------------------------------

 SCF Done:  E(RB3LYP) =  -212.580884489     A.U. after    1 cycles

 The electronic state is 1-A.
 Alpha  occ. eigenvalues --  -14.31037 -10.21642 -10.18532 -10.17755 -10.17421
 Alpha  occ. eigenvalues --   -0.88527  -0.76517  -0.72137  -0.61895  -0.54426
 Alpha  occ. eigenvalues --   -0.48869  -0.46626  -0.44837  -0.41079  -0.37909
 Alpha  occ. eigenvalues --   -0.36137  -0.35601  -0.34118  -0.25594  -0.23671
 Alpha virt. eigenvalues --    0.02172   0.08423   0.11410   0.13712   0.14306
 Alpha virt. eigenvalues --    0.16664   0.17415   0.18028   0.19561   0.20896
 Alpha virt. eigenvalues --    0.23908   0.24507   0.30832   0.37629   0.52055

 Mulliken charges:
               1
     1  C   -0.252860
     2  C   -0.020604
     3  C    0.019690
     4  C   -0.306015
     5  N   -0.591653
     6  H    0.097323
     7  H    0.074546
     8  H    0.079242
     9  H    0.106033
    10  H    0.100092
    11  H    0.119586
    12  H    0.102761
    13  H    0.233989
    14  H    0.237871
 Sum of Mulliken charges =  -0.00000

 Dipole moment (field-independent basis, Debye):
    X=              0.8328    Y=             -0.4060    Z=             -0.1580  Tot=              0.9399
 Quadrupole moment (field-independent basis, Debye-Ang):
   XX=            -33.6897   YY=            -31.7952   ZZ=            -31.7747
   XY=              2.7504   XZ=             -0.1481   YZ=             -1.3311

  Exact polarizability:  60.219   3.262  49.201  -5.064  -4.204  39.152
 Approx polarizability:  80.758   7.258  68.138 -10.822  -8.190  57.771

                      1                      2                      3
                      A                      A                      A
 Frequencies --    122.1013               253.8872               292.7368
 Red. masses --      2.2631                 1.0607                 2.1878
 Frc consts  --      0.0199                 0.0403                 0.1105
 IR Inten    --      0.2702                 0.6772                 4.4943

                      4                      5                      6
                      A                      A                      A
 Frequencies --    307.3464               364.3862               419.2558
 Red. masses --      1.2459                 1.6903                 2.1588
 Frc consts  --      0.0693                 0.1322                 0.2236
 IR Inten    --     33.3023                12.2142                 5.5504

                      7                      8                      9
                      A                      A                      A
 Frequencies --    568.5962               685.7025               796.6195
 Red. masses --      2.0546                 1.7288                 2.4067
 Frc consts  --      0.3914                 0.4789                 0.8998
 IR Inten    --     11.3168                11.9052                11.9090

                     10                     11                     12
                      A                      A                      A
 Frequencies --    896.2322               937.3976               939.1636
 Red. masses --      1.4982                 1.3759                 1.8405
 Frc consts  --      0.7090                 0.7123                 0.9564
 IR Inten    --    169.8603                28.2171                 3.0590

                     13                     14                     15
                      A                      A                      A
 Frequencies --   1013.0732              1029.2791              1043.2488
 Red. masses --      1.3259                 1.4246                 1.1039
 Frc consts  --      0.8017                 0.8892                 0.7079
 IR Inten    --      1.1789                 1.1661                11.4029

                     16                     17                     18
                      A                      A                      A
 Frequencies --   1085.9039              1180.2377              1274.2154
 Red. masses --      1.6450                 1.9004                 1.6737
 Frc consts  --      1.1429                 1.5597                 1.6011
 IR Inten    --     27.7900                 7.0103                 3.8864

                     19                     20                     21
                      A                      A                      A
 Frequencies --   1320.0421              1338.5165              1402.6660
 Red. masses --      1.2940                 1.4392                 1.2567
 Frc consts  --      1.3285                 1.5192                 1.4568
 IR Inten    --      5.4859                10.5984                 4.2823

                     22                     23                     24
                      A                      A                      A
 Frequencies --   1420.1103              1451.5941              1505.5700
 Red. masses --      1.2954                 1.1888                 1.0454
 Frc consts  --      1.5392                 1.4758                 1.3961
 IR Inten    --      5.9586                 5.4750                 3.1801

                     25                     26                     27
                      A                      A                      A
 Frequencies --   1513.3930              1668.4343              1723.2074
 Red. masses --      1.0504                 1.0947                 4.6111
 Frc consts  --      1.4174                 1.7954                 8.0673
 IR Inten    --      3.2018                16.5170                 6.7524

                     28                     29                     30
                      A                      A                      A
 Frequencies --   3002.0512              3043.8779              3112.9193
 Red. masses --      1.0831                 1.0364                 1.1007
 Frc consts  --      5.7512                 5.6576                 6.2845
 IR Inten    --     27.9422                23.6925                26.4857

                     31                     32                     33
                      A                      A                      A
 Frequencies --   3133.2821              3137.5050              3156.7458
 Red. masses --      1.0839                 1.1018                 1.0669
 Frc consts  --      6.2696                 6.3904                 6.2642
 IR Inten    --     25.5614                29.8743                 4.9272

                     34                     35                     36
                      A                      A                      A
 Frequencies --   3238.0015              3475.5436              3562.8621
 Red. masses --      1.1151                 1.0492                 1.0920
 Frc consts  --      6.8883                 7.4673                 8.1669
 IR Inten    --     16.3598                 1.0391                 0.1454

 - Thermochemistry -
 -------------------
 Temperature   298.150 Kelvin.  Pressure   1.00000 Atm.
 Atom     1 has atomic number  6 and mass  12.00000

 Molecular mass:    71.07350 amu.
 Principal axes and moments of inertia in atomic units:
                           1         2         3
     Eigenvalues --   237.48502 458.88749 615.33487
           X            0.99887   0.04761  -0.00107
           Y           -0.04762   0.99871  -0.01765
           Z            0.00023   0.01768   0.99984
 This molecule is an asymmetric top.
 Rotational symmetry number  1.
 Rotational temperatures (Kelvin)      0.36471     0.18875     0.14076
 Rotational constants (GHZ):           7.59939     3.93286     2.93294
 Zero-point vibrational energy     331459.5 (Joules/Mol)
                                   79.22073 (Kcal/Mol)
 Warning -- explicit consideration of   7 degrees of freedom as
           vibrations may cause significant error
 Vibrational temperatures:    175.68   365.29   421.18   442.20   524.27
          (Kelvin)            603.21   818.08   986.57  1146.16  1289.48
                             1348.70  1351.25  1457.58  1480.90  1501.00
                             1562.37  1698.10  1833.31  1899.24  1925.82
                             2018.12  2043.22  2088.52  2166.18  2177.43
                             2400.50  2479.31  4319.28  4379.46  4478.79
                             4508.09  4514.16  4541.85  4658.76  5000.53
                             5126.16

 Zero-point correction=                           0.126246 (Hartree/Particle)
 Thermal correction to Energy=                    0.132464
 Thermal correction to Enthalpy=                  0.133408
 Thermal correction to Gibbs Free Energy=         0.097320
 Sum of electronic and zero-point Energies=           -212.454638
 Sum of electronic and thermal Energies=              -212.448420
 Sum of electronic and thermal Enthalpies=            -212.447476
 Sum of electronic and thermal Free Energies=         -212.483565

                     E (Thermal)             CV                S
                      KCal/Mol        Cal/Mol-Kelvin    Cal/Mol-Kelvin
 Total                   83.123             22.482             75.955
 Electronic               0.000              0.000              0.000
 Translational            0.889              2.981             38.700
 Rotational               0.889              2.981             25.709
 Vibrational             81.345             16.520             11.546
 Vibration     1          0.610              1.931              3.067
 Vibration     2          0.665              1.756              1.703
 Vibration     3          0.688              1.687              1.458
 Vibration     4          0.697              1.660              1.377
 Vibration     5          0.738              1.546              1.103
 Vibration     6          0.782              1.428              0.895
 Vibration     7          0.925              1.099              0.507

 Optimization completed.
    -- Stationary point found.
 Normal termination of Gaussian 09 at Thu Sep  8 15:17:39 2022.
