 Gaussian 09, Revision E.01,
 Gaussian 09:  ES64L-G09RevE.01 30-Nov-2015

 --------------------------------
 #P OPT=calcfc Freq B3LYP/6-31G**
 --------------------------------

 --------
 Frag_151
 --------
 Symbolic Z-matrix:
 Charge =  0 Multiplicity = 1

 SCF Done:  E(RB3LYP) =  -149.958159303     A.U. after   13 cycles
 SCF Done:  E(RB3LYP) =  -149.966374043     A.U. after   13 cycles
 SCF Done:  E(RB3LYP) =  -149.960644773     A.U. after   13 cycles
 SCF Done:  E(RB3LYP) =  -149.966995140     A.U. after   10 cycles
 SCF Done:  E(RB3LYP) =  -149.967697813     A.U. after   12 cycles
 SCF Done:  E(RB3LYP) =  -149.967963507     A.U. after   11 cycles
 SCF Done:  E(RB3LYP) =  -149.968030427     A.U. after   10 cycles
 SCF Done:  E(RB3LYP) =  -149.968033713     A.U. after    8 cycles
 Optimization completed.
    -- Stationary point found.
 Normal termination of Gaussian 09 at Sat Aug 21 02:18:39 2021.

 ----------------------------------------------------------------------
 #P Geom=AllCheck Guess=TCheck SCRF=Check GenChk RB3LYP/6-31G(d,p) Freq
 ----------------------------------------------------------------------

 Structure from the checkpoint file:  "/public/home/users/caep010/.cache/gau_scr/Gau-62501.chk"
 --------
 Frag_151
 --------
 Charge =  0 Multiplicity = 1

                         Standard orientation:
 ---------------------------------------------------------------------
 Center     Atomic      Atomic             Coordinates (Angstroms)
 Number     Number       Type             X           Y           Z
 ---------------------------------------------------------------------
      1          6           0        1.155247    0.169679    0.009588
      2          7           0        0.080383   -0.519553    0.005861
      3          7           0       -1.114773    0.144114   -0.097031
      4          1           0        1.175084    1.266571   -0.014129
      5          1           0        2.101102   -0.362347    0.028628
      6          1           0       -1.855173   -0.401453    0.324232
      7          1           0       -1.111764    1.107223    0.241931
 ---------------------------------------------------------------------

 SCF Done:  E(RB3LYP) =  -149.968033713     A.U. after    1 cycles

 The electronic state is 1-A.
 Alpha  occ. eigenvalues --  -14.36402 -14.36222 -10.20606  -0.98792  -0.80017
 Alpha  occ. eigenvalues --   -0.60639  -0.52210  -0.49674  -0.41552  -0.38027
 Alpha  occ. eigenvalues --   -0.26978  -0.23123
 Alpha virt. eigenvalues --    0.00980   0.08337   0.13030   0.15250   0.17266
 Alpha virt. eigenvalues --    0.22853   0.34869   0.55148   0.60204   0.60426
 Alpha virt. eigenvalues --    0.66296   0.67760   0.70455   0.76232   0.81980

 Mulliken charges:
               1
     1  C   -0.068269
     2  N   -0.204006
     3  N   -0.425526
     4  H    0.074715
     5  H    0.111703
     6  H    0.273664
     7  H    0.237718
 Sum of Mulliken charges =  -0.00000

 Dipole moment (field-independent basis, Debye):
    X=             -0.5186    Y=              1.5367    Z=              1.1543  Tot=              1.9907
 Quadrupole moment (field-independent basis, Debye-Ang):
   XX=            -14.4780   YY=            -18.1936   ZZ=            -20.0537
   XY=              0.1876   XZ=             -2.0035   YZ=              0.2800

  Exact polarizability:  40.632   1.532  24.542  -0.528   0.127  11.936
 Approx polarizability:  61.663   6.073  35.915   0.768   0.343  16.507

                      1                      2                      3
                      A                      A                      A
 Frequencies --    433.4788               518.5523               680.6631
 Red. masses --      1.1392                 2.1013                 1.3022
 Frc consts  --      0.1261                 0.3329                 0.3555
 IR Inten    --     29.1870                10.6042               273.3844

                      4                      5                      6
                      A                      A                      A
 Frequencies --    792.3224               931.1974              1078.8627
 Red. masses --      1.3608                 1.4001                 2.4818
 Frc consts  --      0.5033                 0.7153                 1.7019
 IR Inten    --     17.7785                33.9527                21.9173

                      7                      8                      9
                      A                      A                      A
 Frequencies --   1187.9887              1322.2115              1491.8567
 Red. masses --      1.4752                 1.4389                 1.1689
 Frc consts  --      1.2267                 1.4821                 1.5328
 IR Inten    --     14.2070                17.8071                 5.4947

                     10                     11                     12
                      A                      A                      A
 Frequencies --   1667.6057              1710.3934              3045.7171
 Red. masses --      1.1951                 3.9374                 1.0656
 Frc consts  --      1.9581                 6.7866                 5.8240
 IR Inten    --     30.7366                11.9827                35.5932

                     13                     14                     15
                      A                      A                      A
 Frequencies --   3218.1554              3437.6950              3629.1537
 Red. masses --      1.1051                 1.0531                 1.0905
 Frc consts  --      6.7430                 7.3322                 8.4620
 IR Inten    --     15.0650                 6.3983                11.6571

 - Thermochemistry -
 -------------------
 Temperature   298.150 Kelvin.  Pressure   1.00000 Atm.
 Atom     1 has atomic number  6 and mass  12.00000

 Molecular mass:    44.03745 amu.
 Principal axes and moments of inertia in atomic units:
                           1         2         3
     Eigenvalues --    27.78326 158.38334 184.20644
           X            0.99980   0.00724  -0.01855
           Y           -0.00692   0.99983   0.01727
           Z            0.01867  -0.01714   0.99968
 This molecule is an asymmetric top.
 Rotational symmetry number  1.
 Rotational temperatures (Kelvin)      3.11748     0.54686     0.47020
 Rotational constants (GHZ):          64.95785    11.39477     9.79738
 Zero-point vibrational energy     150405.6 (Joules/Mol)
                                   35.94780 (Kcal/Mol)
 Warning -- explicit consideration of   2 degrees of freedom as
           vibrations may cause significant error
 Vibrational temperatures:    623.68   746.08   979.32  1139.97  1339.78
          (Kelvin)           1552.24  1709.25  1902.37  2146.45  2399.31
                             2460.87  4382.10  4630.20  4946.07  5221.54

 Zero-point correction=                           0.057286 (Hartree/Particle)
 Thermal correction to Energy=                    0.060922
 Thermal correction to Enthalpy=                  0.061866
 Thermal correction to Gibbs Free Energy=         0.032939
 Sum of electronic and zero-point Energies=           -149.910747
 Sum of electronic and thermal Energies=              -149.907112
 Sum of electronic and thermal Enthalpies=            -149.906168
 Sum of electronic and thermal Free Energies=         -149.935094

                     E (Thermal)             CV                S
                      KCal/Mol        Cal/Mol-Kelvin    Cal/Mol-Kelvin
 Total                   38.229             11.360             60.881
 Electronic               0.000              0.000              0.000
 Translational            0.889              2.981             37.273
 Rotational               0.889              2.981             21.321
 Vibrational             36.451              5.398              2.287
 Vibration     1          0.794              1.397              0.847
 Vibration     2          0.874              1.209              0.613

 Normal termination of Gaussian 09 at Sat Aug 21 02:18:45 2021.
