 Gaussian 09, Revision E.01,
 Gaussian 09:  ES64L-G09RevE.01 30-Nov-2015

 --------------------------------
 #P OPT=calcfc Freq B3LYP/6-31G**
 --------------------------------

 --------
 Frag_378
 --------
 Symbolic Z-matrix:
 Charge =  0 Multiplicity = 1

 SCF Done:  E(RB3LYP) =  -303.873284995     A.U. after   14 cycles
 SCF Done:  E(RB3LYP) =  -303.889314504     A.U. after   14 cycles
 SCF Done:  E(RB3LYP) =  -303.887233067     A.U. after   12 cycles
 SCF Done:  E(RB3LYP) =  -303.889359086     A.U. after    9 cycles
 SCF Done:  E(RB3LYP) =  -303.889691637     A.U. after   11 cycles
 SCF Done:  E(RB3LYP) =  -303.876286546     A.U. after   14 cycles
 SCF Done:  E(RB3LYP) =  -303.889811215     A.U. after   10 cycles
 SCF Done:  E(RB3LYP) =  -303.890668038     A.U. after   12 cycles
 SCF Done:  E(RB3LYP) =  -303.889846711     A.U. after   13 cycles
 SCF Done:  E(RB3LYP) =  -303.890708730     A.U. after    9 cycles
 SCF Done:  E(RB3LYP) =  -303.891235917     A.U. after   12 cycles
 SCF Done:  E(RB3LYP) =  -303.891773604     A.U. after   12 cycles
 SCF Done:  E(RB3LYP) =  -303.891939195     A.U. after   12 cycles
 SCF Done:  E(RB3LYP) =  -303.891942748     A.U. after   12 cycles
 SCF Done:  E(RB3LYP) =  -303.892101546     A.U. after   11 cycles
 SCF Done:  E(RB3LYP) =  -303.892109776     A.U. after   10 cycles
 SCF Done:  E(RB3LYP) =  -303.892110871     A.U. after    8 cycles
 SCF Done:  E(RB3LYP) =  -303.892111014     A.U. after    8 cycles
 SCF Done:  E(RB3LYP) =  -303.892111044     A.U. after    6 cycles
 Optimization completed.
    -- Stationary point found.
 Normal termination of Gaussian 09 at Fri Sep 10 21:05:25 2021.

 ----------------------------------------------------------------------
 #P Geom=AllCheck Guess=TCheck SCRF=Check GenChk RB3LYP/6-31G(d,p) Freq
 ----------------------------------------------------------------------

 Structure from the checkpoint file:  "/public/home/users/caep010/.cache/gau_scr/Gau-224748.chk"
 --------
 Frag_378
 --------
 Charge =  0 Multiplicity = 1

                         Standard orientation:
 ---------------------------------------------------------------------
 Center     Atomic      Atomic             Coordinates (Angstroms)
 Number     Number       Type             X           Y           Z
 ---------------------------------------------------------------------
      1          6           0        1.509331   -1.081491    0.084551
      2          7           0        0.592608    0.041156   -0.019167
      3          6           0        1.167215    1.372801   -0.073071
      4          6           0       -0.764175   -0.207858   -0.016188
      5          7           0       -1.581436    0.925509    0.004443
      6          8           0       -1.242205   -1.336446   -0.076584
      7          1           0        2.113924   -1.015364    0.999041
      8          1           0        0.922552   -1.998223    0.104595
      9          1           0        2.189843   -1.107628   -0.775955
     10          1           0        0.507095    2.051720   -0.616919
     11          1           0        2.117542    1.332736   -0.615034
     12          1           0        1.372132    1.793109    0.924025
     13          1           0       -1.291962    1.707557    0.575331
     14          1           0       -2.545914    0.660289    0.148905
 ---------------------------------------------------------------------

 SCF Done:  E(RB3LYP) =  -303.892111044     A.U. after    1 cycles

 The electronic state is 1-A.
 Alpha  occ. eigenvalues --  -19.09241 -14.35612 -14.34315 -10.29928 -10.22548
 Alpha  occ. eigenvalues --  -10.20834  -1.02975  -0.92828  -0.88512  -0.72300
 Alpha  occ. eigenvalues --   -0.68843  -0.56005  -0.53858  -0.49561  -0.47226
 Alpha  occ. eigenvalues --   -0.44955  -0.40825  -0.40548  -0.39766  -0.38699
 Alpha  occ. eigenvalues --   -0.37306  -0.27004  -0.24350  -0.23003
 Alpha virt. eigenvalues --    0.05839   0.07763   0.11231   0.13130   0.14050
 Alpha virt. eigenvalues --    0.15048   0.16401   0.17123   0.17894   0.19123
 Alpha virt. eigenvalues --    0.22819   0.29473   0.34521   0.40020   0.49311

 Mulliken charges:
               1
     1  C   -0.175297
     2  N   -0.441847
     3  C   -0.184886
     4  C    0.703409
     5  N   -0.635132
     6  O   -0.534823
     7  H    0.104646
     8  H    0.161414
     9  H    0.107510
    10  H    0.133518
    11  H    0.120569
    12  H    0.108334
    13  H    0.256884
    14  H    0.275701
 Sum of Mulliken charges =  -0.00000

 Dipole moment (field-independent basis, Debye):
    X=              1.6877    Y=              3.1900    Z=              1.1497  Tot=              3.7877
 Quadrupole moment (field-independent basis, Debye-Ang):
   XX=            -33.3089   YY=            -37.1031   ZZ=            -37.0317
   XY=             -4.5969   XZ=             -2.1677   YZ=              1.3016

  Exact polarizability:  59.104   0.366  53.539   0.271   1.613  33.576
 Approx polarizability:  77.994   5.617  78.352   1.194   2.526  46.981

                      1                      2                      3
                      A                      A                      A
 Frequencies --     87.2394               133.4656               151.3738
 Red. masses --      1.6704                 1.9254                 1.3950
 Frc consts  --      0.0075                 0.0202                 0.0188
 IR Inten    --      1.9205                 5.0874                 1.3003

                      4                      5                      6
                      A                      A                      A
 Frequencies --    192.8299               318.9136               391.8847
 Red. masses --      1.6500                 2.9321                 2.0484
 Frc consts  --      0.0361                 0.1757                 0.1853
 IR Inten    --      5.8612                10.6644                15.6087

                      7                      8                      9
                      A                      A                      A
 Frequencies --    439.8876               513.9953               586.6686
 Red. masses --      1.2048                 3.1638                 1.7896
 Frc consts  --      0.1374                 0.4925                 0.3629
 IR Inten    --     30.3230                 7.6824               134.9349

                     10                     11                     12
                      A                      A                      A
 Frequencies --    603.2837               772.3067               773.5238
 Red. masses --      2.5827                 3.5004                 6.1699
 Frc consts  --      0.5538                 1.2301                 2.1751
 IR Inten    --     53.8948                 2.8643                74.3221

                     13                     14                     15
                      A                      A                      A
 Frequencies --   1034.1371              1090.1539              1106.5634
 Red. masses --      2.2043                 1.4308                 1.5930
 Frc consts  --      1.3889                 1.0019                 1.1493
 IR Inten    --     36.2582                11.8316                59.2177

                     16                     17                     18
                      A                      A                      A
 Frequencies --   1135.0447              1175.6015              1277.5163
 Red. masses --      1.2296                 1.3428                 2.2365
 Frc consts  --      0.9334                 1.0934                 2.1506
 IR Inten    --      3.3277                 3.0125                45.5678

                     19                     20                     21
                      A                      A                      A
 Frequencies --   1303.9448              1437.2765              1441.8422
 Red. masses --      5.5677                 2.1082                 1.1572
 Frc consts  --      5.5775                 2.5659                 1.4174
 IR Inten    --     40.8319               152.6536                 9.7389

                     22                     23                     24
                      A                      A                      A
 Frequencies --   1488.7873              1512.4449              1513.0429
 Red. masses --      1.2934                 1.0485                 1.0545
 Frc consts  --      1.6891                 1.4131                 1.4223
 IR Inten    --     62.0859                17.5854                 9.8650

                     25                     26                     27
                      A                      A                      A
 Frequencies --   1522.2148              1552.5529              1634.9237
 Red. masses --      1.0496                 1.2882                 1.2080
 Frc consts  --      1.4329                 1.8294                 1.9024
 IR Inten    --     13.7314                52.4912               133.2476

                     28                     29                     30
                      A                      A                      A
 Frequencies --   1789.3519              2993.1164              3017.5898
 Red. masses --      7.3521                 1.0530                 1.0411
 Frc consts  --     13.8693                 5.5581                 5.5857
 IR Inten    --    364.8497                66.1729                70.8435

                     31                     32                     33
                      A                      A                      A
 Frequencies --   3064.8748              3081.5808              3135.4852
 Red. masses --      1.1033                 1.0841                 1.1009
 Frc consts  --      6.1064                 6.0653                 6.3769
 IR Inten    --     51.1095                24.4612                11.6041

                     34                     35                     36
                      A                      A                      A
 Frequencies --   3181.2666              3576.3125              3692.0984
 Red. masses --      1.0957                 1.0476                 1.0992
 Frc consts  --      6.5335                 7.8945                 8.8285
 IR Inten    --      0.8970                17.9999                24.4959

 - Thermochemistry -
 -------------------
 Temperature   298.150 Kelvin.  Pressure   1.00000 Atm.
 Atom     1 has atomic number  6 and mass  12.00000

 Molecular mass:    88.06366 amu.
 Principal axes and moments of inertia in atomic units:
                           1         2         3
     Eigenvalues --   357.47633 515.09357 845.11743
           X            0.99638  -0.08474  -0.00676
           Y            0.08477   0.99639   0.00367
           Z            0.00643  -0.00423   0.99997
 This molecule is an asymmetric top.
 Rotational symmetry number  1.
 Rotational temperatures (Kelvin)      0.24229     0.16815     0.10249
 Rotational constants (GHZ):           5.04856     3.50372     2.13549
 Zero-point vibrational energy     315354.1 (Joules/Mol)
                                   75.37145 (Kcal/Mol)
 Warning -- explicit consideration of  10 degrees of freedom as
           vibrations may cause significant error
 Vibrational temperatures:    125.52   192.03   217.79   277.44   458.85
          (Kelvin)            563.83   632.90   739.52   844.08   867.99
                             1111.18  1112.93  1487.89  1568.49  1592.10
                             1633.07  1691.43  1838.06  1876.08  2067.92
                             2074.49  2142.03  2176.07  2176.93  2190.12
                             2233.77  2352.29  2574.48  4306.42  4341.63
                             4409.67  4433.70  4511.26  4577.13  5145.51
                             5312.10

 Zero-point correction=                           0.120112 (Hartree/Particle)
 Thermal correction to Energy=                    0.127475
 Thermal correction to Enthalpy=                  0.128419
 Thermal correction to Gibbs Free Energy=         0.089005
 Sum of electronic and zero-point Energies=           -303.771999
 Sum of electronic and thermal Energies=              -303.764636
 Sum of electronic and thermal Enthalpies=            -303.763692
 Sum of electronic and thermal Free Energies=         -303.803106

                     E (Thermal)             CV                S
                      KCal/Mol        Cal/Mol-Kelvin    Cal/Mol-Kelvin
 Total                   79.992             25.089             82.953
 Electronic               0.000              0.000              0.000
 Translational            0.889              2.981             39.339
 Rotational               0.889              2.981             26.545
 Vibrational             78.214             19.128             17.069
 Vibration     1          0.601              1.958              3.721
 Vibration     2          0.613              1.920              2.895
 Vibration     3          0.619              1.901              2.655
 Vibration     4          0.635              1.850              2.200
 Vibration     5          0.705              1.637              1.316
 Vibration     6          0.759              1.488              0.993
 Vibration     7          0.800              1.383              0.827
 Vibration     8          0.869              1.219              0.624
 Vibration     9          0.944              1.060              0.473
 Vibration    10          0.962              1.025              0.444

 Optimization completed.
    -- Stationary point found.
 Normal termination of Gaussian 09 at Fri Sep 10 21:05:36 2021.
