 Gaussian 09, Revision E.01,
 Gaussian 09:  ES64L-G09RevE.01 30-Nov-2015

 ----------------------------
 #P OPT Freq B3LYP/6-31G(d,p)
 ----------------------------

 --------
 Frag_717
 --------
 Symbolic Z-matrix:
 Charge =  0 Multiplicity = 1

 SCF Done:  E(RB3LYP) =  -191.862491478     A.U. after   13 cycles
 SCF Done:  E(RB3LYP) =  -191.862598535     A.U. after   11 cycles
 SCF Done:  E(RB3LYP) =  -191.862532472     A.U. after   10 cycles
 SCF Done:  E(RB3LYP) =  -191.862577914     A.U. after   11 cycles
 SCF Done:  E(RB3LYP) =  -191.862609083     A.U. after   10 cycles
 SCF Done:  E(RB3LYP) =  -191.862610176     A.U. after    8 cycles
 SCF Done:  E(RB3LYP) =  -191.862608822     A.U. after    9 cycles
 SCF Done:  E(RB3LYP) =  -191.862611093     A.U. after    8 cycles
 Optimization completed.
    -- Stationary point found.
 Normal termination of Gaussian 09 at Thu Sep  8 15:07:18 2022.

 ----------------------------------------------------------------------
 #P Geom=AllCheck Guess=TCheck SCRF=Check GenChk RB3LYP/6-31G(d,p) Freq
 ----------------------------------------------------------------------

 Structure from the checkpoint file:  "B3LYP6-31Gdp.Frag_717.chk"
 --------
 Frag_717
 --------
 Charge =  0 Multiplicity = 1

                         Standard orientation:
 ---------------------------------------------------------------------
 Center     Atomic      Atomic             Coordinates (Angstroms)
 Number     Number       Type             X           Y           Z
 ---------------------------------------------------------------------
      1          6           0        1.923348   -0.218542   -0.011230
      2          6           0        0.776481    0.160831   -0.007727
      3          6           0       -0.627770    0.586439    0.036389
      4          8           0       -1.550019   -0.487812   -0.102081
      5          1           0        2.936992   -0.546672   -0.031144
      6          1           0       -0.801873    1.152857    0.965338
      7          1           0       -0.836252    1.268424   -0.794823
      8          1           0       -1.331074   -1.144481    0.572689
 ---------------------------------------------------------------------

 SCF Done:  E(RB3LYP) =  -191.862611093     A.U. after    1 cycles

 The electronic state is 1-A.
 Alpha  occ. eigenvalues --  -19.15358 -10.26034 -10.19217 -10.18796  -1.02646
 Alpha  occ. eigenvalues --   -0.76820  -0.69420  -0.55049  -0.51088  -0.47169
 Alpha  occ. eigenvalues --   -0.44895  -0.35892  -0.29294  -0.27581  -0.26723
 Alpha virt. eigenvalues --    0.02623   0.05109   0.09923   0.11978   0.13121
 Alpha virt. eigenvalues --    0.17885   0.23518   0.24980   0.41731   0.45838
 Alpha virt. eigenvalues --    0.52263   0.53070   0.57676   0.65355   0.68794

 Mulliken charges:
               1
     1  C   -0.398223
     2  C    0.238434
     3  C   -0.047349
     4  O   -0.521648
     5  H    0.157758
     6  H    0.118053
     7  H    0.143025
     8  H    0.309951
 Sum of Mulliken charges =  -0.00000

 Dipole moment (field-independent basis, Debye):
    X=              0.8968    Y=              0.0588    Z=              1.1450  Tot=              1.4556
 Quadrupole moment (field-independent basis, Debye-Ang):
   XX=            -22.7664   YY=            -21.5180   ZZ=            -23.4719
   XY=             -1.6610   XZ=             -1.7418   YZ=             -1.6717

  Exact polarizability:  46.464  -5.712  25.356  -0.270  -1.070  20.647
 Approx polarizability:  74.249 -12.151  35.011   0.753  -1.528  27.677

                      1                      2                      3
                      A                      A                      A
 Frequencies --    201.4067               287.8562               360.7544
 Red. masses --      3.3944                 1.8577                 1.6836
 Frc consts  --      0.0811                 0.0907                 0.1291
 IR Inten    --      3.7639                56.2651                84.1914

                      4                      5                      6
                      A                      A                      A
 Frequencies --    558.3819               609.6916               660.2659
 Red. masses --      7.4797                 1.2024                 1.2210
 Frc consts  --      1.3740                 0.2634                 0.3136
 IR Inten    --      9.9452                51.1277                38.6768

                      7                      8                      9
                      A                      A                      A
 Frequencies --    917.9398               995.7086              1064.6940
 Red. masses --      3.9018                 1.5962                 6.0955
 Frc consts  --      1.9371                 0.9324                 4.0711
 IR Inten    --     23.4963                22.1283               103.1202

                     10                     11                     12
                      A                      A                      A
 Frequencies --   1217.2084              1365.0068              1420.2032
 Red. masses --      1.0943                 1.2119                 1.2302
 Frc consts  --      0.9552                 1.3304                 1.4619
 IR Inten    --     17.1313                 2.9510                70.2788

                     13                     14                     15
                      A                      A                      A
 Frequencies --   1504.1361              2235.1731              2990.8439
 Red. masses --      1.0790                 5.9316                 1.0715
 Frc consts  --      1.4383                17.4600                 5.6471
 IR Inten    --      0.5042                 1.6172                50.4790

                     16                     17                     18
                      A                      A                      A
 Frequencies --   3083.7753              3488.0925              3812.2249
 Red. masses --      1.0901                 1.1609                 1.0664
 Frc consts  --      6.1079                 8.3221                 9.1315
 IR Inten    --     16.7506                54.4838                19.1914

 - Thermochemistry -
 -------------------
 Temperature   298.150 Kelvin.  Pressure   1.00000 Atm.
 Atom     1 has atomic number  6 and mass  12.00000

 Molecular mass:    56.02621 amu.
 Principal axes and moments of inertia in atomic units:
                           1         2         3
     Eigenvalues --    55.06203 388.25390 428.65823
           X            0.99972  -0.02239  -0.00826
           Y            0.02200   0.99877  -0.04434
           Z            0.00924   0.04415   0.99898
 This molecule is an asymmetric top.
 Rotational symmetry number  1.
 Rotational temperatures (Kelvin)      1.57302     0.22309     0.20206
 Rotational constants (GHZ):          32.77651     4.64835     4.21021
 Zero-point vibrational energy     160140.3 (Joules/Mol)
                                   38.27444 (Kcal/Mol)
 Warning -- explicit consideration of   5 degrees of freedom as
           vibrations may cause significant error
 Vibrational temperatures:    289.78   414.16   519.04   803.39   877.21
          (Kelvin)            949.97  1320.71  1432.60  1531.86  1751.29
                             1963.94  2043.35  2164.11  3215.91  4303.15
                             4436.86  5018.58  5484.93

 Zero-point correction=                           0.060994 (Hartree/Particle)
 Thermal correction to Energy=                    0.065792
 Thermal correction to Enthalpy=                  0.066736
 Thermal correction to Gibbs Free Energy=         0.034356
 Sum of electronic and zero-point Energies=           -191.801617
 Sum of electronic and thermal Energies=              -191.796819
 Sum of electronic and thermal Enthalpies=            -191.795875
 Sum of electronic and thermal Free Energies=         -191.828255

                     E (Thermal)             CV                S
                      KCal/Mol        Cal/Mol-Kelvin    Cal/Mol-Kelvin
 Total                   41.285             15.749             68.150
 Electronic               0.000              0.000              0.000
 Translational            0.889              2.981             37.991
 Rotational               0.889              2.981             23.731
 Vibrational             39.508              9.788              6.428
 Vibration     1          0.638              1.838              2.120
 Vibration     2          0.685              1.696              1.487
 Vibration     3          0.735              1.553              1.119
 Vibration     4          0.914              1.121              0.527
 Vibration     5          0.969              1.011              0.433

 Optimization completed.
    -- Stationary point found.
 Normal termination of Gaussian 09 at Thu Sep  8 15:07:24 2022.
