 Gaussian 09, Revision E.01,
 Gaussian 09:  ES64L-G09RevE.01 30-Nov-2015

 ----------------------------
 #P OPT Freq B3LYP/6-31G(d,p)
 ----------------------------

 --------
 Frag_860
 --------
 Symbolic Z-matrix:
 Charge =  0 Multiplicity = 1

 SCF Done:  E(RB3LYP) =  -279.325149351     A.U. after   14 cycles
 SCF Done:  E(RB3LYP) =  -279.325218016     A.U. after   11 cycles
 SCF Done:  E(RB3LYP) =  -279.325223481     A.U. after    9 cycles
 SCF Done:  E(RB3LYP) =  -279.325225215     A.U. after    8 cycles
 Optimization completed.
    -- Stationary point found.
 Normal termination of Gaussian 09 at Thu Sep  8 14:56:05 2022.

 ----------------------------------------------------------------------
 #P Geom=AllCheck Guess=TCheck SCRF=Check GenChk RB3LYP/6-31G(d,p) Freq
 ----------------------------------------------------------------------

 Structure from the checkpoint file:  "B3LYP6-31Gdp.Frag_860.chk"
 --------
 Frag_860
 --------
 Charge =  0 Multiplicity = 1

                         Standard orientation:
 ---------------------------------------------------------------------
 Center     Atomic      Atomic             Coordinates (Angstroms)
 Number     Number       Type             X           Y           Z
 ---------------------------------------------------------------------
      1          7           0        1.859005   -0.115306   -0.000015
      2          7           0        0.780012   -0.722094    0.000043
      3          6           0       -0.443072    0.103608    0.000025
      4          7           0       -0.388724    1.363249    0.000021
      5          8           0       -1.530691   -0.677863   -0.000030
      6          1           0        1.676216    0.919476   -0.000208
      7          1           0       -1.309372    1.799537   -0.000016
      8          1           0       -1.214940   -1.598705   -0.000031
 ---------------------------------------------------------------------

 SCF Done:  E(RB3LYP) =  -279.325225215     A.U. after    1 cycles

 The electronic state is 1-A.
 Alpha  occ. eigenvalues --  -19.21702 -14.41297 -14.40117 -14.33952 -10.32555
 Alpha  occ. eigenvalues --   -1.11577  -1.04938  -0.91566  -0.72512  -0.61905
 Alpha  occ. eigenvalues --   -0.59829  -0.52634  -0.46719  -0.43581  -0.39095
 Alpha  occ. eigenvalues --   -0.38190  -0.31637  -0.29996  -0.26242
 Alpha virt. eigenvalues --   -0.08992   0.05194   0.06818   0.09024   0.14895
 Alpha virt. eigenvalues --    0.21159   0.27418   0.34243   0.42908   0.52664
 Alpha virt. eigenvalues --    0.55186   0.57425   0.58759   0.67661   0.68518

 Mulliken charges:
               1
     1  N   -0.199750
     2  N   -0.245384
     3  C    0.623702
     4  N   -0.551690
     5  O   -0.486675
     6  H    0.261559
     7  H    0.257844
     8  H    0.340393
 Sum of Mulliken charges =  -0.00000

 Dipole moment (field-independent basis, Debye):
    X=             -1.8670    Y=             -0.0803    Z=             -0.0004  Tot=              1.8687
 Quadrupole moment (field-independent basis, Debye-Ang):
   XX=            -31.4264   YY=            -26.4894   ZZ=            -28.2055
   XY=              2.0602   XZ=             -0.0005   YZ=             -0.0001

  Exact polarizability:  41.103   1.488  40.604  -0.000  -0.001  15.430
 Approx polarizability:  63.517   7.330  69.280  -0.000  -0.001  22.689

                      1                      2                      3
                      A                      A                      A
 Frequencies --    133.9078               357.2519               479.4384
 Red. masses --      4.6816                 4.7595                 3.7066
 Frc consts  --      0.0495                 0.3579                 0.5020
 IR Inten    --     13.6783                26.1978                16.7065

                      4                      5                      6
                      A                      A                      A
 Frequencies --    552.1012               586.4978               668.3036
 Red. masses --      1.1355                 3.0097                 4.1805
 Frc consts  --      0.2039                 0.6100                 1.1001
 IR Inten    --     96.5982                89.3630                30.9698

                      7                      8                      9
                      A                      A                      A
 Frequencies --    810.8337               842.2004              1060.3657
 Red. masses --      4.7895                 1.2584                 1.4625
 Frc consts  --      1.8553                 0.5259                 0.9689
 IR Inten    --      7.4055                67.5971                58.3400

                     10                     11                     12
                      A                      A                      A
 Frequencies --   1084.9968              1222.7175              1384.8520
 Red. masses --      2.3041                 1.4057                 2.3809
 Frc consts  --      1.5981                 1.2382                 2.6903
 IR Inten    --     35.3617                14.8315               387.3659

                     13                     14                     15
                      A                      A                      A
 Frequencies --   1513.7837              1679.8185              1813.0483
 Red. masses --      1.2794                 9.1605                 8.2919
 Frc consts  --      1.7274                15.2298                16.0592
 IR Inten    --    123.2377                 0.7807               143.7526

                     16                     17                     18
                      A                      A                      A
 Frequencies --   3082.9299              3542.4398              3722.2144
 Red. masses --      1.0694                 1.0763                 1.0645
 Frc consts  --      5.9883                 7.9578                 8.6899
 IR Inten    --     14.0485                13.5140                80.2795

 - Thermochemistry -
 -------------------
 Temperature   298.150 Kelvin.  Pressure   1.00000 Atm.
 Atom     1 has atomic number  7 and mass  14.00307

 Molecular mass:    73.02761 amu.
 Principal axes and moments of inertia in atomic units:
                           1         2         3
     Eigenvalues --   170.13687 374.67563 544.81250
           X            0.99981   0.01947  -0.00000
           Y           -0.01947   0.99981  -0.00000
           Z            0.00000   0.00000   1.00000
 This molecule is an asymmetric top.
 Rotational symmetry number  1.
 Rotational temperatures (Kelvin)      0.50908     0.23117     0.15898
 Rotational constants (GHZ):          10.60758     4.81681     3.31259
 Zero-point vibrational energy     146768.0 (Joules/Mol)
                                   35.07840 (Kcal/Mol)
 Warning -- explicit consideration of   5 degrees of freedom as
           vibrations may cause significant error
 Vibrational temperatures:    192.66   514.01   689.80   794.35   843.84
          (Kelvin)            961.54  1166.61  1211.74  1525.63  1561.07
                             1759.22  1992.49  2177.99  2416.88  2608.57
                             4435.64  5096.77  5355.43

 Zero-point correction=                           0.055901 (Hartree/Particle)
 Thermal correction to Energy=                    0.060710
 Thermal correction to Enthalpy=                  0.061654
 Thermal correction to Gibbs Free Energy=         0.028148
 Sum of electronic and zero-point Energies=           -279.269324
 Sum of electronic and thermal Energies=              -279.264515
 Sum of electronic and thermal Enthalpies=            -279.263571
 Sum of electronic and thermal Free Energies=         -279.297078

                     E (Thermal)             CV                S
                      KCal/Mol        Cal/Mol-Kelvin    Cal/Mol-Kelvin
 Total                   38.096             16.086             70.520
 Electronic               0.000              0.000              0.000
 Translational            0.889              2.981             38.781
 Rotational               0.889              2.981             25.055
 Vibrational             36.319             10.125              6.684
 Vibration     1          0.613              1.919              2.889
 Vibration     2          0.732              1.560              1.134
 Vibration     3          0.836              1.296              0.712
 Vibration     4          0.907              1.135              0.540
 Vibration     5          0.944              1.061              0.473

 Optimization completed.
    -- Stationary point found.
 Normal termination of Gaussian 09 at Thu Sep  8 14:56:12 2022.
