 Gaussian 09, Revision D.01,
 Gaussian 09:  ES64L-G09RevD.01 24-Apr-2013

 -------------------------
 #P OPT Freq B3LYP/6-31G**
 -------------------------

 -------
 Frag_89
 -------
 Symbolic Z-matrix:
 Charge =  0 Multiplicity = 1

 SCF Done:  E(RB3LYP) =  -211.360186567     A.U. after   14 cycles
 Optimization completed.
    -- Stationary point found.
 Normal termination of Gaussian 09 at Fri Jul 23 16:16:38 2021.

 ----------------------------------------------------------------------
 #P Geom=AllCheck Guess=TCheck SCRF=Check GenChk RB3LYP/6-31G(d,p) Freq
 ----------------------------------------------------------------------

 Structure from the checkpoint file:  "/vol2/users/liuj201281/HOFBenchmark/IsodesmicSplit/Sample60/Ring26/Running/Gau-114151.chk"
 -------
 Frag_89
 -------
 Charge =  0 Multiplicity = 1

                         Standard orientation:
 ---------------------------------------------------------------------
 Center     Atomic      Atomic             Coordinates (Angstroms)
 Number     Number       Type             X           Y           Z
 ---------------------------------------------------------------------
      1          6           0       -1.972802   -0.028430   -0.070603
      2          6           0       -0.806988   -0.669304    0.078097
      3          6           0        0.525898   -0.051775    0.015197
      4          6           0        1.632915   -0.820551   -0.038503
      5          7           0        0.556468    1.349025   -0.049603
      6          1           0       -2.024025    1.032469   -0.295303
      7          1           0       -2.917491   -0.557350    0.000197
      8          1           0       -0.805165   -1.740904    0.263197
      9          1           0        2.629306   -0.391730   -0.080503
     10          1           0        1.554538   -1.899653   -0.087703
     11          1           0       -0.091942    1.796811    0.587397
     12          1           0        1.485360    1.737545    0.054797
 ---------------------------------------------------------------------

 SCF Done:  E(RB3LYP) =  -211.360186567     A.U. after    1 cycles

 The electronic state is 1-A.
 Alpha  occ. eigenvalues --  -14.33347 -10.22148 -10.19078 -10.18164 -10.16348
 Alpha  occ. eigenvalues --   -0.90867  -0.77440  -0.72019  -0.60283  -0.54490
 Alpha  occ. eigenvalues --   -0.51075  -0.46290  -0.43910  -0.40366  -0.38130
 Alpha  occ. eigenvalues --   -0.35267  -0.34533  -0.26175  -0.20342
 Alpha virt. eigenvalues --   -0.01443   0.08045   0.10486   0.12182   0.13267
 Alpha virt. eigenvalues --    0.15576   0.17168   0.19646   0.20807   0.28001
 Alpha virt. eigenvalues --    0.33409   0.38275   0.40283   0.48897   0.53865

 Mulliken charges:
               1
     1  C   -0.258911
     2  C   -0.054776
     3  C    0.317128
     4  C   -0.319953
     5  N   -0.648785
     6  H    0.101451
     7  H    0.100783
     8  H    0.087140
     9  H    0.080384
    10  H    0.092656
    11  H    0.251221
    12  H    0.251662
 Sum of Mulliken charges =   0.00000

 Dipole moment (field-independent basis, Debye):
    X=              0.0674    Y=              0.7718    Z=              1.0846  Tot=              1.3329
 Quadrupole moment (field-independent basis, Debye-Ang):
   XX=            -28.0569   YY=            -27.2021   ZZ=            -34.0894
   XY=              1.6619   XZ=             -0.0264   YZ=              1.8827

  Exact polarizability:  78.962 -10.914  53.637  -0.174  -0.714  20.744
 Approx polarizability: 126.515 -30.289  81.083   0.541  -2.148  29.670

                      1                      2                      3
                      A                      A                      A
 Frequencies --    153.4297               280.9301               361.1106
 Red. masses --      2.1681                 2.6979                 1.0737
 Frc consts  --      0.0301                 0.1255                 0.0825
 IR Inten    --      0.5243                 1.1482                31.2579

                      4                      5                      6
                      A                      A                      A
 Frequencies --    439.7508               457.7631               560.2490
 Red. masses --      2.0141                 1.7493                 2.4600
 Frc consts  --      0.2295                 0.2160                 0.4549
 IR Inten    --     10.0252                 6.7635                25.5945

                      7                      8                      9
                      A                      A                      A
 Frequencies --    643.3730               754.7704               776.5787
 Red. masses --      1.1830                 1.2564                 1.9598
 Frc consts  --      0.2885                 0.4217                 0.6964
 IR Inten    --    124.6937                27.0766                52.2157

                     10                     11                     12
                      A                      A                      A
 Frequencies --    817.0342               835.2959               931.1820
 Red. masses --      1.7260                 2.2152                 1.3727
 Frc consts  --      0.6788                 0.9106                 0.7013
 IR Inten    --     61.3014                26.8212                33.0650

                     13                     14                     15
                      A                      A                      A
 Frequencies --    998.4541              1025.9832              1058.1059
 Red. masses --      1.5531                 1.1086                 1.4280
 Frc consts  --      0.9122                 0.6875                 0.9420
 IR Inten    --      5.6344                12.2449                 7.1361

                     16                     17                     18
                      A                      A                      A
 Frequencies --   1161.2343              1327.3051              1386.0854
 Red. masses --      1.3870                 1.2916                 2.3194
 Frc consts  --      1.1020                 1.3406                 2.6254
 IR Inten    --      0.7080                 1.1942                23.0901

                     19                     20                     21
                      A                      A                      A
 Frequencies --   1446.4895              1476.3023              1650.7669
 Red. masses --      1.3633                 1.2783                 1.3176
 Frc consts  --      1.6807                 1.6414                 2.1155
 IR Inten    --      7.0026                 3.3440                30.7916

                     22                     23                     24
                      A                      A                      A
 Frequencies --   1676.9335              1725.6213              3164.0636
 Red. masses --      2.9105                 4.3052                 1.0586
 Frc consts  --      4.8222                 7.5533                 6.2441
 IR Inten    --     79.7564                24.3216                 4.6938

                     25                     26                     27
                      A                      A                      A
 Frequencies --   3168.6858              3178.6831              3250.5253
 Red. masses --      1.0617                 1.0910                 1.1160
 Frc consts  --      6.2806                 6.4947                 6.9476
 IR Inten    --      6.0947                 4.6980                11.6460

                     28                     29                     30
                      A                      A                      A
 Frequencies --   3260.1988              3543.2026              3647.4310
 Red. masses --      1.1153                 1.0481                 1.0966
 Frc consts  --      6.9843                 7.7524                 8.5953
 IR Inten    --     13.4311                 3.1072                 4.8734

 - Thermochemistry -
 -------------------
 Temperature   298.150 Kelvin.  Pressure   1.00000 Atm.
 Atom     1 has atomic number  6 and mass  12.00000

 Molecular mass:    69.05785 amu.
 Principal axes and moments of inertia in atomic units:
                           1         2         3
     Eigenvalues --   193.59733 428.07287 616.65943
           X            0.99995  -0.00955   0.00048
           Y            0.00955   0.99989   0.01098
           Z           -0.00058  -0.01097   0.99994
 This molecule is an asymmetric top.
 Rotational symmetry number  1.
 Rotational temperatures (Kelvin)      0.44739     0.20233     0.14046
 Rotational constants (GHZ):           9.32214     4.21597     2.92664
 Zero-point vibrational energy     270102.1 (Joules/Mol)
                                   64.55594 (Kcal/Mol)
 Warning -- explicit consideration of   6 degrees of freedom as
           vibrations may cause significant error
 Vibrational temperatures:    220.75   404.20   519.56   632.70   658.62
          (Kelvin)            806.07   925.67  1085.94  1117.32  1175.53
                             1201.80  1339.76  1436.55  1476.16  1522.38
                             1670.76  1909.69  1994.27  2081.17  2124.07
                             2375.08  2412.73  2482.78  4552.38  4559.03
                             4573.41  4676.78  4690.69  5097.87  5247.83

 Zero-point correction=                           0.102876 (Hartree/Particle)
 Thermal correction to Energy=                    0.108515
 Thermal correction to Enthalpy=                  0.109459
 Thermal correction to Gibbs Free Energy=         0.074683
 Sum of electronic and zero-point Energies=           -211.257310
 Sum of electronic and thermal Energies=              -211.251672
 Sum of electronic and thermal Enthalpies=            -211.250728
 Sum of electronic and thermal Free Energies=         -211.285504

                     E (Thermal)             CV                S
                      KCal/Mol        Cal/Mol-Kelvin    Cal/Mol-Kelvin
 Total                   68.094             20.815             73.192
 Electronic               0.000              0.000              0.000
 Translational            0.889              2.981             38.614
 Rotational               0.889              2.981             25.439
 Vibrational             66.317             14.854              9.139
 Vibration     1          0.619              1.899              2.629
 Vibration     2          0.681              1.709              1.528
 Vibration     3          0.735              1.552              1.117
 Vibration     4          0.800              1.383              0.827
 Vibration     5          0.816              1.344              0.773
 Vibration     6          0.916              1.117              0.523

 Normal termination of Gaussian 09 at Fri Jul 23 16:16:55 2021.
