 Gaussian 09, Revision E.01,
 Gaussian 09:  ES64L-G09RevE.01 30-Nov-2015

 ----------------------------
 #P OPT Freq B3LYP/6-31G(d,p)
 ----------------------------

 ---------
 Frag_1006
 ---------
 Symbolic Z-matrix:
 Charge =  0 Multiplicity = 1

 SCF Done:  E(RB3LYP) =  -267.852851135     A.U. after   14 cycles
 SCF Done:  E(RB3LYP) =  -267.876973040     A.U. after   13 cycles
 SCF Done:  E(RB3LYP) =  -267.879360915     A.U. after   13 cycles
 SCF Done:  E(RB3LYP) =  -267.879569456     A.U. after   11 cycles
 SCF Done:  E(RB3LYP) =  -267.879604947     A.U. after   11 cycles
 SCF Done:  E(RB3LYP) =  -267.879635058     A.U. after    9 cycles
 SCF Done:  E(RB3LYP) =  -267.879656092     A.U. after   11 cycles
 SCF Done:  E(RB3LYP) =  -267.871551310     A.U. after   15 cycles
 SCF Done:  E(RB3LYP) =  -267.879808194     A.U. after   12 cycles
 SCF Done:  E(RB3LYP) =  -267.879466541     A.U. after   13 cycles
 SCF Done:  E(RB3LYP) =  -267.879833047     A.U. after   11 cycles
 SCF Done:  E(RB3LYP) =  -267.879964667     A.U. after   11 cycles
 SCF Done:  E(RB3LYP) =  -267.880061899     A.U. after   11 cycles
 SCF Done:  E(RB3LYP) =  -267.880096085     A.U. after   11 cycles
 SCF Done:  E(RB3LYP) =  -267.880100387     A.U. after    9 cycles
 SCF Done:  E(RB3LYP) =  -267.880101187     A.U. after    8 cycles
 SCF Done:  E(RB3LYP) =  -267.880101311     A.U. after    7 cycles
 Optimization completed.
    -- Stationary point found.
 Normal termination of Gaussian 09 at Thu Sep  8 19:58:05 2022.

 ----------------------------------------------------------------------
 #P Geom=AllCheck Guess=TCheck SCRF=Check GenChk RB3LYP/6-31G(d,p) Freq
 ----------------------------------------------------------------------

 Structure from the checkpoint file:  "B3LYP6-31Gdp.Frag_1006.chk"
 ---------
 Frag_1006
 ---------
 Charge =  0 Multiplicity = 1

                         Standard orientation:
 ---------------------------------------------------------------------
 Center     Atomic      Atomic             Coordinates (Angstroms)
 Number     Number       Type             X           Y           Z
 ---------------------------------------------------------------------
      1          6           0        1.155267   -1.168133    0.620483
      2          7           0        0.844552   -0.088024   -0.070707
      3          7           0        1.747236    0.784859   -0.466203
      4          6           0       -0.611280    0.210381   -0.356869
      5          6           0       -1.507419   -1.023780   -0.424854
      6          6           0       -1.108419    1.248161    0.653343
      7          1           0        0.380967   -1.831547    0.961685
      8          1           0        2.198873   -1.329143    0.844446
      9          1           0        1.244769    1.485960   -1.016280
     10          1           0       -0.579076    0.659137   -1.355179
     11          1           0       -2.479319   -0.725738   -0.829859
     12          1           0       -1.686805   -1.459494    0.562341
     13          1           0       -1.086021   -1.791937   -1.077849
     14          1           0       -2.116001    1.579938    0.385681
     15          1           0       -1.141239    0.817447    1.658589
     16          1           0       -0.447565    2.117759    0.672173
 ---------------------------------------------------------------------

 SCF Done:  E(RB3LYP) =  -267.880101311     A.U. after    1 cycles

 The electronic state is 1-A.
 Alpha  occ. eigenvalues --  -14.43980 -14.29608 -10.24775 -10.19852 -10.19466
 Alpha  occ. eigenvalues --  -10.18975  -1.01920  -0.81802  -0.77459  -0.70697
 Alpha  occ. eigenvalues --   -0.64943  -0.56023  -0.52592  -0.47464  -0.46759
 Alpha  occ. eigenvalues --   -0.43970  -0.41802  -0.40493  -0.39516  -0.38049
 Alpha  occ. eigenvalues --   -0.36273  -0.34870  -0.25549  -0.17399
 Alpha virt. eigenvalues --    0.00017   0.07238   0.10372   0.12119   0.13313
 Alpha virt. eigenvalues --    0.13431   0.15084   0.16812   0.17469   0.18408
 Alpha virt. eigenvalues --    0.19854   0.20202   0.22980   0.24800   0.29166

 Mulliken charges:
               1
     1  C   -0.129854
     2  N   -0.100191
     3  N   -0.440364
     4  C    0.023900
     5  C   -0.336170
     6  C   -0.296008
     7  H    0.103537
     8  H    0.119655
     9  H    0.210380
    10  H    0.116105
    11  H    0.116455
    12  H    0.119439
    13  H    0.131032
    14  H    0.112639
    15  H    0.122493
    16  H    0.126953
 Sum of Mulliken charges =   0.00000

 Dipole moment (field-independent basis, Debye):
    X=             -3.7743    Y=             -0.4334    Z=             -0.0773  Tot=              3.7999
 Quadrupole moment (field-independent basis, Debye-Ang):
   XX=            -44.0967   YY=            -36.7697   ZZ=            -37.8886
   XY=             -2.3033   XZ=              1.4663   YZ=             -1.6160

  Exact polarizability:  61.614   1.375  67.622   0.665 -12.128  48.939
 Approx polarizability:  83.347  11.383 121.057  -4.178 -35.792  78.743

                      1                      2                      3
                      A                      A                      A
 Frequencies --     55.9971               225.2172               273.1516
 Red. masses --      3.2095                 1.0421                 1.7961
 Frc consts  --      0.0059                 0.0311                 0.0790
 IR Inten    --      1.5860                 0.2314                 3.9787

                      4                      5                      6
                      A                      A                      A
 Frequencies --    283.2747               347.4744               358.9918
 Red. masses --      1.3548                 1.9999                 2.5085
 Frc consts  --      0.0641                 0.1423                 0.1905
 IR Inten    --      4.6594                 2.1950                 0.6856

                      7                      8                      9
                      A                      A                      A
 Frequencies --    378.6579               519.3296               545.2454
 Red. masses --      1.2861                 3.3878                 2.3790
 Frc consts  --      0.1086                 0.5383                 0.4167
 IR Inten    --      8.3486                 2.6546                 4.5358

                     10                     11                     12
                      A                      A                      A
 Frequencies --    610.7235               641.7289               761.5695
 Red. masses --      2.1473                 1.1625                 2.6086
 Frc consts  --      0.4719                 0.2821                 0.8914
 IR Inten    --     10.9387               114.6142                 1.5470

                     13                     14                     15
                      A                      A                      A
 Frequencies --    771.3809               908.4790               947.1164
 Red. masses --      1.5283                 2.3676                 1.1828
 Frc consts  --      0.5358                 1.1513                 0.6251
 IR Inten    --      1.0430                 0.2459                 0.9232

                     16                     17                     18
                      A                      A                      A
 Frequencies --    963.3626              1088.8732              1137.3132
 Red. masses --      1.4199                 1.9843                 1.6757
 Frc consts  --      0.7764                 1.3862                 1.2770
 IR Inten    --      0.0087                39.0987                23.4244

                     19                     20                     21
                      A                      A                      A
 Frequencies --   1161.6366              1203.3828              1297.3950
 Red. masses --      2.1364                 1.9536                 1.9970
 Frc consts  --      1.6985                 1.6668                 1.9805
 IR Inten    --      8.6575                 5.9244                22.0259

                     22                     23                     24
                      A                      A                      A
 Frequencies --   1352.7850              1379.5245              1399.9018
 Red. masses --      1.3787                 1.4124                 1.5189
 Frc consts  --      1.4865                 1.5837                 1.7537
 IR Inten    --     20.7435                71.1931               116.4598

                     25                     26                     27
                      A                      A                      A
 Frequencies --   1417.8118              1431.9605              1480.7480
 Red. masses --      1.3732                 1.2440                 1.1554
 Frc consts  --      1.6263                 1.5030                 1.4926
 IR Inten    --     18.6864                 8.9964                 9.1554

                     28                     29                     30
                      A                      A                      A
 Frequencies --   1497.8621              1501.5500              1516.8441
 Red. masses --      1.0513                 1.0464                 1.0508
 Frc consts  --      1.3897                 1.3900                 1.4244
 IR Inten    --      1.9719                 3.4827                10.6766

                     31                     32                     33
                      A                      A                      A
 Frequencies --   1527.9203              1674.5600              3054.6482
 Red. masses --      1.0556                 3.1097                 1.0353
 Frc consts  --      1.4520                 5.1377                 5.6915
 IR Inten    --      5.2285                53.3493                11.1741

                     34                     35                     36
                      A                      A                      A
 Frequencies --   3058.2592              3067.2237              3123.8573
 Red. masses --      1.0368                 1.0844                 1.1022
 Frc consts  --      5.7134                 6.0106                 6.3370
 IR Inten    --     11.1128                10.3208                 5.9690

                     37                     38                     39
                      A                      A                      A
 Frequencies --   3133.1664              3142.5673              3144.3238
 Red. masses --      1.1026                 1.1035                 1.1031
 Frc consts  --      6.3774                 6.4211                 6.4256
 IR Inten    --     32.5036                14.6409                13.6297

                     40                     41                     42
                      A                      A                      A
 Frequencies --   3228.1614              3357.9048              3438.9893
 Red. masses --      1.0516                 1.1231                 1.0744
 Frc consts  --      6.4569                 7.4611                 7.4867
 IR Inten    --      2.2884                 0.5527                 2.9134

 - Thermochemistry -
 -------------------
 Temperature   298.150 Kelvin.  Pressure   1.00000 Atm.
 Atom     1 has atomic number  6 and mass  12.00000

 Molecular mass:    86.08440 amu.
 Principal axes and moments of inertia in atomic units:
                           1         2         3
     Eigenvalues --   374.86908 588.28880 772.90914
           X            0.99978  -0.01889   0.00860
           Y            0.01892   0.99981  -0.00381
           Z           -0.00853   0.00397   0.99996
 This molecule is an asymmetric top.
 Rotational symmetry number  1.
 Rotational temperatures (Kelvin)      0.23105     0.14723     0.11206
 Rotational constants (GHZ):           4.81432     3.06778     2.33500
 Zero-point vibrational energy     373299.9 (Joules/Mol)
                                   89.22082 (Kcal/Mol)
 Warning -- explicit consideration of  10 degrees of freedom as
           vibrations may cause significant error
 Vibrational temperatures:     80.57   324.04   393.00   407.57   499.94
          (Kelvin)            516.51   544.80   747.20   784.49   878.69
                              923.30  1095.73  1109.84  1307.10  1362.69
                             1386.06  1566.64  1636.34  1671.33  1731.40
                             1866.66  1946.35  1984.83  2014.14  2039.91
                             2060.27  2130.46  2155.09  2160.39  2182.40
                             2198.33  2409.32  4394.95  4400.15  4413.05
                             4494.53  4507.92  4521.45  4523.97  4644.60
                             4831.27  4947.93

 Zero-point correction=                           0.142182 (Hartree/Particle)
 Thermal correction to Energy=                    0.149474
 Thermal correction to Enthalpy=                  0.150418
 Thermal correction to Gibbs Free Energy=         0.111430
 Sum of electronic and zero-point Energies=           -267.737919
 Sum of electronic and thermal Energies=              -267.730627
 Sum of electronic and thermal Enthalpies=            -267.729683
 Sum of electronic and thermal Free Energies=         -267.768672

                     E (Thermal)             CV                S
                      KCal/Mol        Cal/Mol-Kelvin    Cal/Mol-Kelvin
 Total                   93.796             26.963             82.059
 Electronic               0.000              0.000              0.000
 Translational            0.889              2.981             39.271
 Rotational               0.889              2.981             26.636
 Vibrational             92.019             21.001             16.152
 Vibration     1          0.596              1.975              4.594
 Vibration     2          0.650              1.803              1.917
 Vibration     3          0.676              1.723              1.576
 Vibration     4          0.682              1.705              1.514
 Vibration     5          0.725              1.580              1.178
 Vibration     6          0.734              1.557              1.126
 Vibration     7          0.749              1.516              1.045
 Vibration     8          0.874              1.207              0.612
 Vibration     9          0.900              1.150              0.554
 Vibration    10          0.970              1.009              0.432

 Optimization completed.
    -- Stationary point found.
 Normal termination of Gaussian 09 at Thu Sep  8 19:58:18 2022.
