 Gaussian 09, Revision E.01,
 Gaussian 09:  ES64L-G09RevE.01 30-Nov-2015

 --------------------------------
 #P OPT=calcfc Freq B3LYP/6-31G**
 --------------------------------

 --------
 Frag_207
 --------
 Symbolic Z-matrix:
 Charge =  0 Multiplicity = 1

 SCF Done:  E(RB3LYP) =  -228.603238959     A.U. after   14 cycles
 SCF Done:  E(RB3LYP) =  -228.606416043     A.U. after   14 cycles
 SCF Done:  E(RB3LYP) =  -228.620810306     A.U. after   13 cycles
 SCF Done:  E(RB3LYP) =  -228.586348917     A.U. after   12 cycles
 SCF Done:  E(RB3LYP) =  -228.621240886     A.U. after    9 cycles
 SCF Done:  E(RB3LYP) =  -228.613690479     A.U. after   14 cycles
 SCF Done:  E(RB3LYP) =  -228.622350396     A.U. after   11 cycles
 SCF Done:  E(RB3LYP) =  -228.623130117     A.U. after   13 cycles
 SCF Done:  E(RB3LYP) =  -228.623173403     A.U. after   13 cycles
 SCF Done:  E(RB3LYP) =  -228.619177166     A.U. after   12 cycles
 SCF Done:  E(RB3LYP) =  -228.624254661     A.U. after   11 cycles
 SCF Done:  E(RB3LYP) =  -228.624536405     A.U. after   11 cycles
 SCF Done:  E(RB3LYP) =  -228.624801928     A.U. after   11 cycles
 SCF Done:  E(RB3LYP) =  -228.624886480     A.U. after   10 cycles
 SCF Done:  E(RB3LYP) =  -228.624904392     A.U. after    9 cycles
 SCF Done:  E(RB3LYP) =  -228.624909667     A.U. after    9 cycles
 SCF Done:  E(RB3LYP) =  -228.624910972     A.U. after    8 cycles
 SCF Done:  E(RB3LYP) =  -228.624911323     A.U. after    7 cycles
 SCF Done:  E(RB3LYP) =  -228.624911352     A.U. after    6 cycles
 Optimization completed.
    -- Stationary point found.
 Normal termination of Gaussian 09 at Sat Aug 21 02:22:06 2021.

 ----------------------------------------------------------------------
 #P Geom=AllCheck Guess=TCheck SCRF=Check GenChk RB3LYP/6-31G(d,p) Freq
 ----------------------------------------------------------------------

 Structure from the checkpoint file:  "/public/home/users/caep010/.cache/gau_scr/Gau-10174.chk"
 --------
 Frag_207
 --------
 Charge =  0 Multiplicity = 1

                         Standard orientation:
 ---------------------------------------------------------------------
 Center     Atomic      Atomic             Coordinates (Angstroms)
 Number     Number       Type             X           Y           Z
 ---------------------------------------------------------------------
      1          6           0       -0.681430    1.415939   -0.021964
      2          6           0       -0.444058   -0.069208   -0.009028
      3          7           0       -1.646224   -0.828504   -0.099018
      4          6           0        0.766387   -0.656149    0.019908
      5          7           0        2.034561   -0.033571    0.108498
      6          1           0        0.234335    1.988469   -0.192452
      7          1           0       -1.109694    1.767814    0.927329
      8          1           0       -1.393583    1.673687   -0.813907
      9          1           0       -2.323513   -0.546847    0.606676
     10          1           0       -1.474338   -1.822809    0.014559
     11          1           0        0.825760   -1.743406    0.032998
     12          1           0        1.989066    0.973786    0.002933
     13          1           0        2.688209   -0.399668   -0.577989
 ---------------------------------------------------------------------

 SCF Done:  E(RB3LYP) =  -228.624911352     A.U. after    1 cycles

 The electronic state is 1-A.
 Alpha  occ. eigenvalues --  -14.32186 -14.31806 -10.19691 -10.18880 -10.17874
 Alpha  occ. eigenvalues --   -0.89752  -0.87332  -0.73237  -0.66764  -0.54335
 Alpha  occ. eigenvalues --   -0.50675  -0.49007  -0.43288  -0.42223  -0.40701
 Alpha  occ. eigenvalues --   -0.37768  -0.35261  -0.31887  -0.27034  -0.16658
 Alpha virt. eigenvalues --    0.06249   0.08169   0.09584   0.11818   0.14385
 Alpha virt. eigenvalues --    0.15405   0.18815   0.20021   0.23101   0.24273
 Alpha virt. eigenvalues --    0.27289   0.37463   0.44543   0.53011   0.54253

 Mulliken charges:
               1
     1  C   -0.368223
     2  C    0.248420
     3  N   -0.633636
     4  C   -0.002093
     5  N   -0.613312
     6  H    0.092366
     7  H    0.110787
     8  H    0.126753
     9  H    0.239916
    10  H    0.239152
    11  H    0.070697
    12  H    0.242033
    13  H    0.247139
 Sum of Mulliken charges =  -0.00000

 Dipole moment (field-independent basis, Debye):
    X=              0.0452    Y=              0.1472    Z=             -0.0192  Tot=              0.1551
 Quadrupole moment (field-independent basis, Debye-Ang):
   XX=            -29.7588   YY=            -27.2908   ZZ=            -33.8323
   XY=              1.1822   XZ=             -6.5355   YZ=             -0.4457

  Exact polarizability:  67.246  -4.106  48.781  -2.690   0.847  28.237
 Approx polarizability: 100.994  -9.605  65.123  -1.396   1.635  39.837

                      1                      2                      3
                      A                      A                      A
 Frequencies --    102.6127               197.9891               280.4626
 Red. masses --      1.0603                 1.1289                 1.1003
 Frc consts  --      0.0066                 0.0261                 0.0510
 IR Inten    --      6.1202                56.4351                28.3475

                      4                      5                      6
                      A                      A                      A
 Frequencies --    296.0299               307.4040               420.4508
 Red. masses --      2.7738                 2.3219                 2.5294
 Frc consts  --      0.1432                 0.1293                 0.2634
 IR Inten    --     10.1452                70.6868                 6.3057

                      7                      8                      9
                      A                      A                      A
 Frequencies --    457.7204               565.9690               773.7102
 Red. masses --      2.3915                 3.1869                 1.5400
 Frc consts  --      0.2952                 0.6015                 0.5431
 IR Inten    --     12.3158                 3.8575               188.8165

                     10                     11                     12
                      A                      A                      A
 Frequencies --    792.7587               822.8556               871.1867
 Red. masses --      1.3684                 2.4387                 1.4659
 Frc consts  --      0.5067                 0.9729                 0.6555
 IR Inten    --    241.2139                68.8240                55.7105

                     13                     14                     15
                      A                      A                      A
 Frequencies --   1015.0866              1060.9687              1096.7224
 Red. masses --      1.3921                 1.4252                 1.6048
 Frc consts  --      0.8451                 0.9452                 1.1373
 IR Inten    --      1.7326                 1.3943                13.1825

                     16                     17                     18
                      A                      A                      A
 Frequencies --   1175.5763              1228.9904              1317.1933
 Red. masses --      1.4223                 2.0212                 2.3411
 Frc consts  --      1.1581                 1.7987                 2.3932
 IR Inten    --     20.1919                60.0629                12.5219

                     19                     20                     21
                      A                      A                      A
 Frequencies --   1410.0255              1444.4554              1486.9314
 Red. masses --      1.2140                 1.6059                 1.0444
 Frc consts  --      1.4221                 1.9742                 1.3604
 IR Inten    --      4.6111                 4.6377                 5.5044

                     22                     23                     24
                      A                      A                      A
 Frequencies --   1510.0700              1653.2174              1661.2149
 Red. masses --      1.0686                 1.1156                 1.1143
 Frc consts  --      1.4357                 1.7964                 1.8117
 IR Inten    --      3.3729                 8.6483                58.3158

                     25                     26                     27
                      A                      A                      A
 Frequencies --   1771.0254              3019.3895              3078.1041
 Red. masses --      5.6158                 1.0452                 1.0915
 Frc consts  --     10.3780                 5.6143                 6.0931
 IR Inten    --      1.6550                43.5532                26.8009

                     28                     29                     30
                      A                      A                      A
 Frequencies --   3120.6189              3155.1685              3481.6505
 Red. masses --      1.0998                 1.0888                 1.0509
 Frc consts  --      6.3104                 6.3862                 7.5059
 IR Inten    --     27.4464                26.0541                 3.7164

                     31                     32                     33
                      A                      A                      A
 Frequencies --   3503.1387              3587.9103              3610.7069
 Red. masses --      1.0502                 1.0915                 1.0924
 Frc consts  --      7.5934                 8.2788                 8.3914
 IR Inten    --      2.1383                 0.7516                 0.5906

 - Thermochemistry -
 -------------------
 Temperature   298.150 Kelvin.  Pressure   1.00000 Atm.
 Atom     1 has atomic number  6 and mass  12.00000

 Molecular mass:    72.06875 amu.
 Principal axes and moments of inertia in atomic units:
                           1         2         3
     Eigenvalues --   211.32648 486.86014 680.11679
           X            0.99974  -0.00618  -0.02185
           Y            0.00607   0.99997  -0.00509
           Z            0.02188   0.00495   0.99975
 This molecule is an asymmetric top.
 Rotational symmetry number  1.
 Rotational temperatures (Kelvin)      0.40986     0.17790     0.12735
 Rotational constants (GHZ):           8.54006     3.70690     2.65358
 Zero-point vibrational energy     300725.1 (Joules/Mol)
                                   71.87503 (Kcal/Mol)
 Warning -- explicit consideration of   8 degrees of freedom as
           vibrations may cause significant error
 Vibrational temperatures:    147.64   284.86   403.52   425.92   442.29
          (Kelvin)            604.93   658.56   814.30  1113.20  1140.60
                             1183.90  1253.44  1460.48  1526.50  1577.94
                             1691.39  1768.24  1895.14  2028.71  2078.25
                             2139.36  2172.65  2378.61  2390.11  2548.11
                             4344.22  4428.70  4489.87  4539.58  5009.31
                             5040.23  5162.20  5195.00

 Zero-point correction=                           0.114540 (Hartree/Particle)
 Thermal correction to Energy=                    0.121136
 Thermal correction to Enthalpy=                  0.122081
 Thermal correction to Gibbs Free Energy=         0.085133
 Sum of electronic and zero-point Energies=           -228.510371
 Sum of electronic and thermal Energies=              -228.503775
 Sum of electronic and thermal Enthalpies=            -228.502831
 Sum of electronic and thermal Free Energies=         -228.539778

                     E (Thermal)             CV                S
                      KCal/Mol        Cal/Mol-Kelvin    Cal/Mol-Kelvin
 Total                   76.014             23.154             77.763
 Electronic               0.000              0.000              0.000
 Translational            0.889              2.981             38.742
 Rotational               0.889              2.981             25.751
 Vibrational             74.237             17.192             13.270
 Vibration     1          0.605              1.947              3.404
 Vibration     2          0.637              1.843              2.152
 Vibration     3          0.680              1.710              1.531
 Vibration     4          0.690              1.681              1.439
 Vibration     5          0.697              1.660              1.376
 Vibration     6          0.783              1.426              0.890
 Vibration     7          0.816              1.344              0.773
 Vibration     8          0.922              1.105              0.512

 Optimization completed.
    -- Stationary point found.
 Normal termination of Gaussian 09 at Sat Aug 21 02:22:15 2021.
