 Gaussian 09, Revision D.01,
 Gaussian 09:  ES64L-G09RevD.01 24-Apr-2013

 --------------------------------
 #P OPT=calcfc Freq B3LYP/6-31G**
 --------------------------------

 -------
 Frag_83
 -------
 Symbolic Z-matrix:
 Charge =  0 Multiplicity = 1

 SCF Done:  E(RB3LYP) =  -133.945153166     A.U. after   12 cycles
 SCF Done:  E(RB3LYP) =  -133.946203300     A.U. after   14 cycles
 SCF Done:  E(RB3LYP) =  -133.948326291     A.U. after   14 cycles
 SCF Done:  E(RB3LYP) =  -133.948970462     A.U. after   11 cycles
 SCF Done:  E(RB3LYP) =  -133.949034756     A.U. after   11 cycles
 SCF Done:  E(RB3LYP) =  -133.949070434     A.U. after   11 cycles
 SCF Done:  E(RB3LYP) =  -133.949073999     A.U. after    9 cycles
 Optimization completed.
    -- Stationary point found.
 Normal termination of Gaussian 09 at Fri Jul 23 12:20:50 2021.

 ----------------------------------------------------------------------
 #P Geom=AllCheck Guess=TCheck SCRF=Check GenChk RB3LYP/6-31G(d,p) Freq
 ----------------------------------------------------------------------

 Structure from the checkpoint file:  "/vol2/users/liuj201281/HOFBenchmark/IsodesmicSplit/Sample60/Ring26/Running/Gau-242248.chk"
 -------
 Frag_83
 -------
 Charge =  0 Multiplicity = 1

                         Standard orientation:
 ---------------------------------------------------------------------
 Center     Atomic      Atomic             Coordinates (Angstroms)
 Number     Number       Type             X           Y           Z
 ---------------------------------------------------------------------
      1          6           0       -1.181538   -0.183065    0.000016
      2          7           0       -0.139881    0.537865    0.000010
      3          6           0        1.147272   -0.135392   -0.000003
      4          1           0       -1.167195   -1.284553   -0.000008
      5          1           0       -2.162710    0.295303   -0.000083
      6          1           0        1.716809    0.185392    0.879325
      7          1           0        1.081207   -1.235636    0.000129
      8          1           0        1.716655    0.185178   -0.879510
 ---------------------------------------------------------------------

 SCF Done:  E(RB3LYP) =  -133.949073999     A.U. after    1 cycles

 The electronic state is 1-A.
 Alpha  occ. eigenvalues --  -14.33397 -10.22388 -10.20721  -0.91622  -0.70856
 Alpha  occ. eigenvalues --   -0.58051  -0.47412  -0.45608  -0.43145  -0.37631
 Alpha  occ. eigenvalues --   -0.30200  -0.25178
 Alpha virt. eigenvalues --   -0.00293   0.10818   0.14010   0.15999   0.17123
 Alpha virt. eigenvalues --    0.17324   0.21238   0.33553   0.50070   0.53692
 Alpha virt. eigenvalues --    0.56765   0.62422   0.64907   0.67315   0.73562

 Mulliken charges:
               1
     1  C   -0.024245
     2  N   -0.312868
     3  C   -0.186502
     4  H    0.079041
     5  H    0.106964
     6  H    0.126037
     7  H    0.085532
     8  H    0.126040
 Sum of Mulliken charges =   0.00000

 Dipole moment (field-independent basis, Debye):
    X=              0.0665    Y=             -1.4413    Z=             -0.0001  Tot=              1.4428
 Quadrupole moment (field-independent basis, Debye-Ang):
   XX=            -16.2556   YY=            -20.7580   ZZ=            -19.4791
   XY=              0.5072   XZ=              0.0001   YZ=              0.0000

  Exact polarizability:  40.470   2.761  27.604   0.000   0.000  18.408
 Approx polarizability:  54.716   8.434  41.183   0.000  -0.001  24.888

                      1                      2                      3
                      A                      A                      A
 Frequencies --    225.4625               477.0219               699.9037
 Red. masses --      1.2470                 2.1379                 1.0547
 Frc consts  --      0.0373                 0.2866                 0.3044
 IR Inten    --      8.1244                 5.8669                 0.9354

                      4                      5                      6
                      A                      A                      A
 Frequencies --    971.7943              1060.6933              1131.4620
 Red. masses --      4.0539                 1.3472                 1.2528
 Frc consts  --      2.2556                 0.8930                 0.9449
 IR Inten    --     13.3721                16.0049                 0.5314

                      7                      8                      9
                      A                      A                      A
 Frequencies --   1147.0880              1247.8851              1448.4265
 Red. masses --      1.3989                 1.6633                 1.1762
 Frc consts  --      1.0845                 1.5260                 1.4539
 IR Inten    --      0.2135                14.6830                 2.9023

                     10                     11                     12
                      A                      A                      A
 Frequencies --   1491.0238              1492.9696              1523.5793
 Red. masses --      1.0429                 1.0901                 1.1064
 Frc consts  --      1.3660                 1.4315                 1.5132
 IR Inten    --      3.5999                 2.8324                18.2273

                     13                     14                     15
                      A                      A                      A
 Frequencies --   1756.7836              2980.6010              2999.2902
 Red. masses --      6.0722                 1.0482                 1.0653
 Frc consts  --     11.0417                 5.4865                 5.6460
 IR Inten    --     19.8916                46.7680                64.4869

                     16                     17                     18
                      A                      A                      A
 Frequencies --   3080.6421              3101.7721              3147.4522
 Red. masses --      1.0869                 1.1018                 1.1035
 Frc consts  --      6.0775                 6.2453                 6.4411
 IR Inten    --     28.1469                20.7900                36.3871

 - Thermochemistry -
 -------------------
 Temperature   298.150 Kelvin.  Pressure   1.00000 Atm.
 Atom     1 has atomic number  6 and mass  12.00000

 Molecular mass:    43.04220 amu.
 Principal axes and moments of inertia in atomic units:
                           1         2         3
     Eigenvalues --    33.96715 169.81749 192.65110
           X            1.00000   0.00288   0.00000
           Y           -0.00288   1.00000   0.00000
           Z            0.00000   0.00000   1.00000
 This molecule is an asymmetric top.
 Rotational symmetry number  1.
 Rotational temperatures (Kelvin)      2.54993     0.51004     0.44959
 Rotational constants (GHZ):          53.13196    10.62753     9.36793
 Zero-point vibrational energy     179343.3 (Joules/Mol)
                                   42.86407 (Kcal/Mol)
 Warning -- explicit consideration of   2 degrees of freedom as
           vibrations may cause significant error
 Vibrational temperatures:    324.39   686.33  1007.00  1398.19  1526.10
          (Kelvin)           1627.92  1650.40  1795.43  2083.96  2145.25
                             2148.05  2192.09  2527.62  4288.41  4315.30
                             4432.35  4462.75  4528.48

 Zero-point correction=                           0.068308 (Hartree/Particle)
 Thermal correction to Energy=                    0.072166
 Thermal correction to Enthalpy=                  0.073110
 Thermal correction to Gibbs Free Energy=         0.043580
 Sum of electronic and zero-point Energies=           -133.880766
 Sum of electronic and thermal Energies=              -133.876908
 Sum of electronic and thermal Enthalpies=            -133.875964
 Sum of electronic and thermal Free Energies=         -133.905494

                     E (Thermal)             CV                S
                      KCal/Mol        Cal/Mol-Kelvin    Cal/Mol-Kelvin
 Total                   45.285             11.634             62.151
 Electronic               0.000              0.000              0.000
 Translational            0.889              2.981             37.205
 Rotational               0.889              2.981             21.635
 Vibrational             43.507              5.672              3.311
 Vibration     1          0.650              1.802              1.915
 Vibration     2          0.834              1.301              0.718

 Optimization completed.
    -- Stationary point found.
 Normal termination of Gaussian 09 at Fri Jul 23 12:21:00 2021.
