 Gaussian 09, Revision E.01,
 Gaussian 09:  ES64L-G09RevE.01 30-Nov-2015

 ----------------------------
 #P OPT Freq B3LYP/6-31G(d,p)
 ----------------------------

 --------
 Frag_804
 --------
 Symbolic Z-matrix:
 Charge =  0 Multiplicity = 1

 SCF Done:  E(RB3LYP) =  -287.757354278     A.U. after   14 cycles
 SCF Done:  E(RB3LYP) =  -287.757443714     A.U. after    9 cycles
 SCF Done:  E(RB3LYP) =  -287.757445451     A.U. after    8 cycles
 SCF Done:  E(RB3LYP) =  -287.757447909     A.U. after    9 cycles
 Optimization completed.
    -- Stationary point found.
 Normal termination of Gaussian 09 at Thu Sep  8 14:59:56 2022.

 ----------------------------------------------------------------------
 #P Geom=AllCheck Guess=TCheck SCRF=Check GenChk RB3LYP/6-31G(d,p) Freq
 ----------------------------------------------------------------------

 Structure from the checkpoint file:  "B3LYP6-31Gdp.Frag_804.chk"
 --------
 Frag_804
 --------
 Charge =  0 Multiplicity = 1

                         Standard orientation:
 ---------------------------------------------------------------------
 Center     Atomic      Atomic             Coordinates (Angstroms)
 Number     Number       Type             X           Y           Z
 ---------------------------------------------------------------------
      1          6           0       -1.075760    1.262466   -0.408861
      2          6           0       -0.319988    0.000204    0.042745
      3          6           0       -1.075650   -1.266589   -0.396157
      4          6           0       -0.012514    0.007750    1.536500
      5          7           0        0.933458   -0.004039   -0.818209
      6          8           0        1.973564   -0.001003   -0.200271
      7          1           0       -2.068506    1.286194    0.051096
      8          1           0       -0.538907    2.168821   -0.112001
      9          1           0       -1.197163    1.275446   -1.495846
     10          1           0       -0.538884   -2.169874   -0.089932
     11          1           0       -2.068541   -1.285647    0.063714
     12          1           0       -1.196737   -1.290635   -1.482990
     13          1           0        0.567280    0.891355    1.816414
     14          1           0        0.567426   -0.872895    1.825301
     15          1           0       -0.945218    0.010552    2.108510
 ---------------------------------------------------------------------

 SCF Done:  E(RB3LYP) =  -287.757447909     A.U. after    1 cycles

 The electronic state is 1-A.
 Alpha  occ. eigenvalues --  -19.20508 -14.43920 -10.22800 -10.19032 -10.19031
 Alpha  occ. eigenvalues --  -10.18105  -1.14981  -0.84089  -0.70238  -0.70092
 Alpha  occ. eigenvalues --   -0.68208  -0.54402  -0.49279  -0.46976  -0.46521
 Alpha  occ. eigenvalues --   -0.42471  -0.42272  -0.39287  -0.39268  -0.38279
 Alpha  occ. eigenvalues --   -0.37549  -0.34456  -0.34101  -0.21504
 Alpha virt. eigenvalues --   -0.07579   0.08167   0.11483   0.14104   0.14415
 Alpha virt. eigenvalues --    0.15159   0.15369   0.18368   0.19027   0.20034
 Alpha virt. eigenvalues --    0.21548   0.22644   0.23016   0.23488   0.35577

 Mulliken charges:
               1
     1  C   -0.306705
     2  C    0.085112
     3  C   -0.306707
     4  C   -0.295805
     5  N    0.049093
     6  O   -0.259889
     7  H    0.113956
     8  H    0.115178
     9  H    0.121894
    10  H    0.115179
    11  H    0.113956
    12  H    0.121897
    13  H    0.114687
    14  H    0.114693
    15  H    0.103462
 Sum of Mulliken charges =  -0.00000

 Dipole moment (field-independent basis, Debye):
    X=             -2.3505    Y=              0.0040    Z=              0.8095  Tot=              2.4860
 Quadrupole moment (field-independent basis, Debye-Ang):
   XX=            -40.5929   YY=            -35.7053   ZZ=            -38.4764
   XY=              0.0060   XZ=              1.2021   YZ=             -0.0137

  Exact polarizability:  59.372   0.008  49.440   1.516   0.001  49.754
 Approx polarizability:  91.826   0.017  66.593   3.464   0.013  69.386

                      1                      2                      3
                      A                      A                      A
 Frequencies --     83.5627               177.0573               228.8899
 Red. masses --      5.6691                 1.0139                 1.0447
 Frc consts  --      0.0233                 0.0187                 0.0322
 IR Inten    --      0.0205                 0.0012                 0.0194

                      4                      5                      6
                      A                      A                      A
 Frequencies --    241.1369               301.4612               336.1014
 Red. masses --      1.0558                 2.8999                 2.6099
 Frc consts  --      0.0362                 0.1553                 0.1737
 IR Inten    --      0.1558                 1.2031                 1.2860

                      7                      8                      9
                      A                      A                      A
 Frequencies --    358.4709               390.8325               439.3616
 Red. masses --      2.8770                 2.4176                 3.2678
 Frc consts  --      0.2178                 0.2176                 0.3717
 IR Inten    --      1.3928                 0.1121                 4.3707

                     10                     11                     12
                      A                      A                      A
 Frequencies --    586.9281               764.3113               796.8807
 Red. masses --      3.5757                 4.8305                 3.2496
 Frc consts  --      0.7257                 1.6626                 1.2158
 IR Inten    --      0.7182                 9.7155                24.3666

                     13                     14                     15
                      A                      A                      A
 Frequencies --    941.2397               942.7949               970.8204
 Red. masses --      1.7337                 1.4885                 1.2079
 Frc consts  --      0.9049                 0.7795                 0.6708
 IR Inten    --      0.8677                 0.5233                 0.0121

                     16                     17                     18
                      A                      A                      A
 Frequencies --   1013.0794              1055.1944              1218.3008
 Red. masses --      1.4184                 1.4735                 2.1325
 Frc consts  --      0.8577                 0.9667                 1.8648
 IR Inten    --      0.3557                 1.4292                 1.2002

                     19                     20                     21
                      A                      A                      A
 Frequencies --   1230.3511              1295.0085              1401.8116
 Red. masses --      2.5836                 3.0794                 1.2184
 Frc consts  --      2.3043                 3.0427                 1.4107
 IR Inten    --      7.5671                 9.1956                 4.4499

                     22                     23                     24
                      A                      A                      A
 Frequencies --   1412.0372              1433.9481              1486.5569
 Red. masses --      1.2751                 1.2249                 1.0469
 Frc consts  --      1.4979                 1.4840                 1.3630
 IR Inten    --     11.2895                 1.7522                 0.0011

                     25                     26                     27
                      A                      A                      A
 Frequencies --   1493.2431              1500.2786              1508.4256
 Red. masses --      1.0447                 1.0470                 1.0478
 Frc consts  --      1.3724                 1.3884                 1.4047
 IR Inten    --      0.0265                 0.7354                 4.5077

                     28                     29                     30
                      A                      A                      A
 Frequencies --   1512.1893              1530.4722              1676.5864
 Red. masses --      1.0636                 1.0558                13.8159
 Frc consts  --      1.4330                 1.4571                22.8813
 IR Inten    --      6.4632                14.7412                96.6268

                     31                     32                     33
                      A                      A                      A
 Frequencies --   3047.1876              3049.2808              3058.1402
 Red. masses --      1.0339                 1.0345                 1.0357
 Frc consts  --      5.6560                 5.6675                 5.7069
 IR Inten    --     21.5592                12.4138                10.7235

                     34                     35                     36
                      A                      A                      A
 Frequencies --   3123.1119              3123.8445              3129.5421
 Red. masses --      1.1034                 1.1031                 1.1033
 Frc consts  --      6.3411                 6.3422                 6.3668
 IR Inten    --      9.4135                 7.2233                 1.9746

                     37                     38                     39
                      A                      A                      A
 Frequencies --   3131.3915              3133.2078              3136.2044
 Red. masses --      1.1024                 1.1025                 1.1023
 Frc consts  --      6.3688                 6.3767                 6.3877
 IR Inten    --     28.1761                33.6232                25.0338

 - Thermochemistry -
 -------------------
 Temperature   298.150 Kelvin.  Pressure   1.00000 Atm.
 Atom     1 has atomic number  6 and mass  12.00000

 Molecular mass:    87.06841 amu.
 Principal axes and moments of inertia in atomic units:
                           1         2         3
     Eigenvalues --   406.17919 617.05381 622.67645
           X            0.99847   0.05525  -0.00002
           Y           -0.00028   0.00535   0.99999
           Z           -0.05525   0.99846  -0.00536
 This molecule is an asymmetric top.
 Rotational symmetry number  1.
 Rotational temperatures (Kelvin)      0.21324     0.14037     0.13910
 Rotational constants (GHZ):           4.44321     2.92477     2.89836
 Zero-point vibrational energy     336505.0 (Joules/Mol)
                                   80.42663 (Kcal/Mol)
 Warning -- explicit consideration of  10 degrees of freedom as
           vibrations may cause significant error
 Vibrational temperatures:    120.23   254.75   329.32   346.94   433.73
          (Kelvin)            483.57   515.76   562.32   632.14   844.46
                             1099.67  1146.53  1354.23  1356.47  1396.79
                             1457.59  1518.19  1752.86  1770.20  1863.23
                             2016.89  2031.60  2063.13  2138.82  2148.44
                             2158.56  2170.29  2175.70  2202.01  2412.23
                             4384.22  4387.23  4399.98  4493.46  4494.51
                             4502.71  4505.37  4507.98  4512.29

 Zero-point correction=                           0.128168 (Hartree/Particle)
 Thermal correction to Energy=                    0.135747
 Thermal correction to Enthalpy=                  0.136691
 Thermal correction to Gibbs Free Energy=         0.097280
 Sum of electronic and zero-point Energies=           -287.629280
 Sum of electronic and thermal Energies=              -287.621701
 Sum of electronic and thermal Enthalpies=            -287.620756
 Sum of electronic and thermal Free Energies=         -287.660168

                     E (Thermal)             CV                S
                      KCal/Mol        Cal/Mol-Kelvin    Cal/Mol-Kelvin
 Total                   85.183             26.798             82.948
 Electronic               0.000              0.000              0.000
 Translational            0.889              2.981             39.305
 Rotational               0.889              2.981             26.548
 Vibrational             83.405             20.836             17.094
 Vibration     1          0.600              1.960              3.805
 Vibration     2          0.628              1.871              2.359
 Vibration     3          0.652              1.797              1.888
 Vibration     4          0.658              1.777              1.794
 Vibration     5          0.693              1.671              1.409
 Vibration     6          0.717              1.603              1.231
 Vibration     7          0.733              1.558              1.129
 Vibration     8          0.759              1.490              0.997
 Vibration     9          0.799              1.384              0.829
 Vibration    10          0.944              1.060              0.473

 Optimization completed.
    -- Stationary point found.
 Normal termination of Gaussian 09 at Thu Sep  8 15:00:09 2022.
