 Gaussian 09, Revision E.01,
 Gaussian 09:  ES64L-G09RevE.01 30-Nov-2015

 ----------------------------
 #P OPT Freq B3LYP/6-31G(d,p)
 ----------------------------

 ---------
 Frag_1057
 ---------
 Symbolic Z-matrix:
 Charge =  0 Multiplicity = 1

 SCF Done:  E(RB3LYP) =  -288.988469630     A.U. after   14 cycles
 SCF Done:  E(RB3LYP) =  -288.988504028     A.U. after    8 cycles
 SCF Done:  E(RB3LYP) =  -288.988509646     A.U. after    8 cycles
 SCF Done:  E(RB3LYP) =  -288.988509619     A.U. after    8 cycles
 Optimization completed.
    -- Stationary point found.
 Normal termination of Gaussian 09 at Thu Sep  8 14:51:29 2022.

 ----------------------------------------------------------------------
 #P Geom=AllCheck Guess=TCheck SCRF=Check GenChk RB3LYP/6-31G(d,p) Freq
 ----------------------------------------------------------------------

 Structure from the checkpoint file:  "B3LYP6-31Gdp.Frag_1057.chk"
 ---------
 Frag_1057
 ---------
 Charge =  0 Multiplicity = 1

                         Standard orientation:
 ---------------------------------------------------------------------
 Center     Atomic      Atomic             Coordinates (Angstroms)
 Number     Number       Type             X           Y           Z
 ---------------------------------------------------------------------
      1          6           0        0.404627   -0.867529    1.276838
      2          6           0        0.392594    0.014193    0.014886
      3          6           0        0.381938    1.500886    0.396286
      4          6           0        1.603246   -0.301562   -0.877235
      5          7           0       -0.793561   -0.244498   -0.841709
      6          8           0       -1.997691   -0.113973   -0.044695
      7          1           0        1.274291   -0.644232    1.903864
      8          1           0       -0.500350   -0.700822    1.865486
      9          1           0        0.448820   -1.930136    1.009519
     10          1           0        1.267640    1.755595    0.986564
     11          1           0        0.372139    2.126714   -0.501725
     12          1           0       -0.504171    1.735348    0.992057
     13          1           0        2.534656   -0.102700   -0.338586
     14          1           0        1.613048   -1.357012   -1.175029
     15          1           0        1.588373    0.309212   -1.784557
     16          1           0       -0.787903   -1.241516   -1.068731
     17          1           0       -2.464522    0.596887   -0.503994
 ---------------------------------------------------------------------

 SCF Done:  E(RB3LYP) =  -288.988509619     A.U. after    1 cycles

 The electronic state is 1-A.
 Alpha  occ. eigenvalues --  -19.16263 -14.36133 -10.21777 -10.17525 -10.16764
 Alpha  occ. eigenvalues --  -10.16673  -1.04257  -0.84988  -0.74220  -0.68494
 Alpha  occ. eigenvalues --   -0.68107  -0.55080  -0.49461  -0.47129  -0.44788
 Alpha  occ. eigenvalues --   -0.42458  -0.41738  -0.38290  -0.37489  -0.36609
 Alpha  occ. eigenvalues --   -0.36059  -0.33158  -0.32574  -0.27792  -0.23398
 Alpha virt. eigenvalues --    0.07415   0.08208   0.12817   0.13058   0.14734
 Alpha virt. eigenvalues --    0.15843   0.16560   0.17170   0.18176   0.20144
 Alpha virt. eigenvalues --    0.21191   0.22104   0.22786   0.24408   0.25648

 Mulliken charges:
               1
     1  C   -0.303747
     2  C    0.153456
     3  C   -0.301077
     4  C   -0.310120
     5  N   -0.290387
     6  O   -0.457143
     7  H    0.095979
     8  H    0.127012
     9  H    0.086736
    10  H    0.097166
    11  H    0.102430
    12  H    0.109021
    13  H    0.105865
    14  H    0.092866
    15  H    0.114277
    16  H    0.250055
    17  H    0.327612
 Sum of Mulliken charges =  -0.00000

 Dipole moment (field-independent basis, Debye):
    X=              0.4766    Y=              0.1545    Z=             -0.2878  Tot=              0.5778
 Quadrupole moment (field-independent basis, Debye-Ang):
   XX=            -37.4979   YY=            -37.0540   ZZ=            -39.9056
   XY=             -2.1842   XZ=              1.5354   YZ=              0.9212

  Exact polarizability:  59.655  -1.957  54.272  -0.389   0.579  51.909
 Approx polarizability:  80.887  -2.492  73.384  -0.812   1.346  71.682

                      1                      2                      3
                      A                      A                      A
 Frequencies --    141.2103               200.7408               244.5525
 Red. masses --      2.4711                 1.1539                 1.1312
 Frc consts  --      0.0290                 0.0274                 0.0399
 IR Inten    --      0.1765                 0.4736                 2.4567

                      4                      5                      6
                      A                      A                      A
 Frequencies --    259.9140               268.7327               332.6041
 Red. masses --      1.9445                 1.2187                 1.5461
 Frc consts  --      0.0774                 0.0519                 0.1008
 IR Inten    --      0.8892                 0.6784                31.1084

                      7                      8                      9
                      A                      A                      A
 Frequencies --    349.1669               358.3482               409.4604
 Red. masses --      1.9661                 1.7328                 2.2986
 Frc consts  --      0.1412                 0.1311                 0.2271
 IR Inten    --     36.8017                20.0522                 0.3266

                     10                     11                     12
                      A                      A                      A
 Frequencies --    460.5260               535.5371               747.6850
 Red. masses --      2.2192                 3.2961                 3.8932
 Frc consts  --      0.2773                 0.5570                 1.2823
 IR Inten    --     26.0168                 4.0412                 3.0555

                     13                     14                     15
                      A                      A                      A
 Frequencies --    860.1272               923.4031               932.0259
 Red. masses --      2.7088                 1.7147                 1.8511
 Frc consts  --      1.1807                 0.8614                 0.9474
 IR Inten    --     30.7698                 1.2097                 6.8119

                     16                     17                     18
                      A                      A                      A
 Frequencies --    961.0835               964.3878              1004.0726
 Red. masses --      1.7769                 1.5007                 1.5657
 Frc consts  --      0.9670                 0.8224                 0.9300
 IR Inten    --     14.4880                 8.7061                34.5280

                     19                     20                     21
                      A                      A                      A
 Frequencies --   1053.3055              1085.5644              1244.7086
 Red. masses --      1.4270                 1.3815                 2.1942
 Frc consts  --      0.9328                 0.9592                 2.0029
 IR Inten    --      1.9738                31.1757                17.7606

                     22                     23                     24
                      A                      A                      A
 Frequencies --   1265.0273              1290.0632              1356.9689
 Red. masses --      2.6553                 2.3790                 1.2831
 Frc consts  --      2.5036                 2.3328                 1.3921
 IR Inten    --     24.9784                16.4523                44.5644

                     25                     26                     27
                      A                      A                      A
 Frequencies --   1405.5641              1408.7997              1435.9784
 Red. masses --      1.2874                 1.2667                 1.2329
 Frc consts  --      1.4985                 1.4813                 1.4979
 IR Inten    --     12.3224                 8.3884                 3.4416

                     28                     29                     30
                      A                      A                      A
 Frequencies --   1481.9549              1488.7804              1501.5136
 Red. masses --      1.0783                 1.0550                 1.0481
 Frc consts  --      1.3952                 1.3777                 1.3923
 IR Inten    --      1.3473                 0.1624                 0.1159

                     31                     32                     33
                      A                      A                      A
 Frequencies --   1504.4388              1513.2741              1525.6195
 Red. masses --      1.0464                 1.0591                 1.0897
 Frc consts  --      1.3953                 1.4290                 1.4943
 IR Inten    --      0.0785                 4.3577                 3.5192

                     34                     35                     36
                      A                      A                      A
 Frequencies --   1536.5703              3036.8691              3040.9351
 Red. masses --      1.0604                 1.0383                 1.0373
 Frc consts  --      1.4751                 5.6421                 5.6513
 IR Inten    --      7.4030                15.5198                41.3526

                     37                     38                     39
                      A                      A                      A
 Frequencies --   3050.5721              3102.8724              3109.5403
 Red. masses --      1.0364                 1.1004                 1.0988
 Frc consts  --      5.6825                 6.2419                 6.2596
 IR Inten    --      8.1700                 7.5573                49.6511

                     40                     41                     42
                      A                      A                      A
 Frequencies --   3120.9578              3131.0442              3132.1858
 Red. masses --      1.1029                 1.1028                 1.1021
 Frc consts  --      6.3294                 6.3699                 6.3703
 IR Inten    --     16.0289                35.7701                14.8214

                     43                     44                     45
                      A                      A                      A
 Frequencies --   3143.0396              3440.3037              3806.7706
 Red. masses --      1.1002                 1.0752                 1.0684
 Frc consts  --      6.4034                 7.4976                 9.1218
 IR Inten    --     22.1723                 3.6216                31.4360

 - Thermochemistry -
 -------------------
 Temperature   298.150 Kelvin.  Pressure   1.00000 Atm.
 Atom     1 has atomic number  6 and mass  12.00000

 Molecular mass:    89.08406 amu.
 Principal axes and moments of inertia in atomic units:
                           1         2         3
     Eigenvalues --   409.06466 673.07485 674.04731
           X            0.99969  -0.01989  -0.01503
           Y            0.02168   0.99127   0.13004
           Z            0.01231  -0.13033   0.99139
 This molecule is an asymmetric top.
 Rotational symmetry number  1.
 Rotational temperatures (Kelvin)      0.21174     0.12868     0.12850
 Rotational constants (GHZ):           4.41187     2.68134     2.67747
 Zero-point vibrational energy     401746.7 (Joules/Mol)
                                   96.01976 (Kcal/Mol)
 Warning -- explicit consideration of  11 degrees of freedom as
           vibrations may cause significant error
 Vibrational temperatures:    203.17   288.82   351.86   373.96   386.65
          (Kelvin)            478.54   502.37   515.58   589.12   662.59
                              770.52  1075.75  1237.53  1328.57  1340.98
                             1382.78  1387.54  1444.63  1515.47  1561.88
                             1790.86  1820.09  1856.11  1952.37  2022.29
                             2026.95  2066.05  2132.20  2142.02  2160.34
                             2164.55  2177.26  2195.02  2210.78  4369.37
                             4375.22  4389.09  4464.34  4473.93  4490.36
                             4504.87  4506.51  4522.13  4949.82  5477.09

 Zero-point correction=                           0.153017 (Hartree/Particle)
 Thermal correction to Energy=                    0.160880
 Thermal correction to Enthalpy=                  0.161824
 Thermal correction to Gibbs Free Energy=         0.122282
 Sum of electronic and zero-point Energies=           -288.835492
 Sum of electronic and thermal Energies=              -288.827630
 Sum of electronic and thermal Enthalpies=            -288.826686
 Sum of electronic and thermal Free Energies=         -288.866228

                     E (Thermal)             CV                S
                      KCal/Mol        Cal/Mol-Kelvin    Cal/Mol-Kelvin
 Total                  100.954             29.149             83.224
 Electronic               0.000              0.000              0.000
 Translational            0.889              2.981             39.374
 Rotational               0.889              2.981             26.720
 Vibrational             99.176             23.187             17.130
 Vibration     1          0.615              1.912              2.787
 Vibration     2          0.638              1.839              2.126
 Vibration     3          0.660              1.772              1.770
 Vibration     4          0.668              1.746              1.662
 Vibration     5          0.673              1.731              1.604
 Vibration     6          0.715              1.610              1.247
 Vibration     7          0.726              1.577              1.170
 Vibration     8          0.733              1.558              1.129
 Vibration     9          0.774              1.450              0.929
 Vibration    10          0.818              1.338              0.765
 Vibration    11          0.891              1.171              0.575

 Optimization completed.
    -- Stationary point found.
 Normal termination of Gaussian 09 at Thu Sep  8 14:51:44 2022.
