 Gaussian 09, Revision E.01,
 Gaussian 09:  ES64L-G09RevE.01 30-Nov-2015

 ----------------------------
 #P OPT Freq B3LYP/6-31G(d,p)
 ----------------------------

 --------
 Frag_544
 --------
 Symbolic Z-matrix:
 Charge =  0 Multiplicity = 1

 SCF Done:  E(RB3LYP) =  -251.906867009     A.U. after   13 cycles
 SCF Done:  E(RB3LYP) =  -251.917007571     A.U. after   12 cycles
 SCF Done:  E(RB3LYP) =  -251.917287645     A.U. after   10 cycles
 SCF Done:  E(RB3LYP) =  -251.917285154     A.U. after   10 cycles
 SCF Done:  E(RB3LYP) =  -251.917374355     A.U. after   10 cycles
 SCF Done:  E(RB3LYP) =  -251.917375819     A.U. after    8 cycles
 SCF Done:  E(RB3LYP) =  -251.917376171     A.U. after    8 cycles
 SCF Done:  E(RB3LYP) =  -251.917372266     A.U. after    9 cycles
 SCF Done:  E(RB3LYP) =  -251.917365031     A.U. after    9 cycles
 SCF Done:  E(RB3LYP) =  -251.917362669     A.U. after    9 cycles
 SCF Done:  E(RB3LYP) =  -251.917349744     A.U. after    8 cycles
 SCF Done:  E(RB3LYP) =  -251.917349537     A.U. after    6 cycles
 SCF Done:  E(RB3LYP) =  -251.917357587     A.U. after    9 cycles
 SCF Done:  E(RB3LYP) =  -251.917374983     A.U. after    8 cycles
 SCF Done:  E(RB3LYP) =  -251.917368078     A.U. after    7 cycles
 SCF Done:  E(RB3LYP) =  -251.916001509     A.U. after   11 cycles
 SCF Done:  E(RB3LYP) =  -251.917375898     A.U. after    7 cycles
 Optimization completed.
    -- Stationary point found.
 Normal termination of Gaussian 09 at Thu Sep  8 20:20:17 2022.

 ----------------------------------------------------------------------
 #P Geom=AllCheck Guess=TCheck SCRF=Check GenChk RB3LYP/6-31G(d,p) Freq
 ----------------------------------------------------------------------

 Structure from the checkpoint file:  "B3LYP6-31Gdp.Frag_544.chk"
 --------
 Frag_544
 --------
 Charge =  0 Multiplicity = 1

                         Standard orientation:
 ---------------------------------------------------------------------
 Center     Atomic      Atomic             Coordinates (Angstroms)
 Number     Number       Type             X           Y           Z
 ---------------------------------------------------------------------
      1          6           0        1.279983    0.895161   -0.910262
      2          6           0        0.833542   -0.115021    0.122953
      3          7           0        1.739237   -0.751211    0.761616
      4          6           0       -0.669287   -0.311270    0.334633
      5          6           0       -1.354631   -0.882400   -0.920963
      6          6           0       -1.362935    0.981581    0.802293
      7          1           0        0.926493    1.901746   -0.659975
      8          1           0        0.882397    0.654695   -1.902605
      9          1           0        2.369617    0.903694   -0.956078
     10          1           0        1.307719   -1.400150    1.430238
     11          1           0       -0.771469   -1.054606    1.137523
     12          1           0       -2.404699   -1.110162   -0.709708
     13          1           0       -0.869730   -1.804461   -1.256457
     14          1           0       -1.333970   -0.167533   -1.749947
     15          1           0       -0.880045    1.395869    1.693071
     16          1           0       -1.350161    1.749474    0.021858
     17          1           0       -2.410842    0.781608    1.048848
 ---------------------------------------------------------------------

 SCF Done:  E(RB3LYP) =  -251.917375898     A.U. after    1 cycles

 The electronic state is 1-A.
 Alpha  occ. eigenvalues --  -14.30537 -10.22813 -10.20108 -10.18454 -10.18449
 Alpha  occ. eigenvalues --  -10.17831  -0.89738  -0.79354  -0.71894  -0.69140
 Alpha  occ. eigenvalues --   -0.61302  -0.53466  -0.48772  -0.45015  -0.43186
 Alpha  occ. eigenvalues --   -0.40737  -0.39800  -0.39117  -0.38298  -0.36498
 Alpha  occ. eigenvalues --   -0.35029  -0.33458  -0.28872  -0.24645
 Alpha virt. eigenvalues --    0.01271   0.07711   0.10572   0.12662   0.13779
 Alpha virt. eigenvalues --    0.14177   0.15711   0.17928   0.18166   0.18961
 Alpha virt. eigenvalues --    0.20141   0.20636   0.21772   0.23436   0.25957

 Mulliken charges:
               1
     1  C   -0.359939
     2  C    0.297550
     3  N   -0.521922
     4  C   -0.107093
     5  C   -0.314998
     6  C   -0.316484
     7  H    0.118049
     8  H    0.116668
     9  H    0.136265
    10  H    0.211794
    11  H    0.085642
    12  H    0.107171
    13  H    0.112181
    14  H    0.107863
    15  H    0.111972
    16  H    0.108176
    17  H    0.107106
 Sum of Mulliken charges =  -0.00000

 Dipole moment (field-independent basis, Debye):
    X=             -2.3813    Y=              0.3580    Z=             -0.3407  Tot=              2.4321
 Quadrupole moment (field-independent basis, Debye-Ang):
   XX=            -44.7628   YY=            -37.8271   ZZ=            -37.7637
   XY=              1.8652   XZ=             -1.8592   YZ=             -1.1315

  Exact polarizability:  64.902  -2.283  56.997   2.261  -5.788  56.878
 Approx polarizability:  88.910  -7.284  80.504   7.307 -12.174  80.845

                      1                      2                      3
                      A                      A                      A
 Frequencies --     17.7203               165.9467               210.8552
 Red. masses --      2.4490                 1.1161                 1.5043
 Frc consts  --      0.0005                 0.0181                 0.0394
 IR Inten    --      0.9287                 0.0947                 0.4337

                      4                      5                      6
                      A                      A                      A
 Frequencies --    252.6966               261.3556               280.5094
 Red. masses --      1.0744                 1.4508                 2.6019
 Frc consts  --      0.0404                 0.0584                 0.1206
 IR Inten    --      0.2709                 0.6721                 0.3939

                      7                      8                      9
                      A                      A                      A
 Frequencies --    333.1438               493.1045               524.5545
 Red. masses --      2.3726                 2.5178                 2.8424
 Frc consts  --      0.1551                 0.3607                 0.4608
 IR Inten    --      0.6645                10.3562                 2.9079

                     10                     11                     12
                      A                      A                      A
 Frequencies --    580.4928               732.4808               904.7976
 Red. masses --      2.2546                 2.8819                 1.3842
 Frc consts  --      0.4476                 0.9110                 0.6677
 IR Inten    --      5.5223                 3.2999                32.5312

                     13                     14                     15
                      A                      A                      A
 Frequencies --    906.9451               938.6304               967.9523
 Red. masses --      2.1417                 1.1769                 1.6710
 Frc consts  --      1.0379                 0.6109                 0.9224
 IR Inten    --      9.4003                 7.6656                 9.3719

                     16                     17                     18
                      A                      A                      A
 Frequencies --    972.4860              1080.5800              1094.0666
 Red. masses --      1.5050                 1.4053                 1.5558
 Frc consts  --      0.8386                 0.9668                 1.0972
 IR Inten    --      0.2055                 6.3745                11.5196

                     19                     20                     21
                      A                      A                      A
 Frequencies --   1130.3351              1158.9536              1200.8750
 Red. masses --      2.2831                 1.4867                 1.8277
 Frc consts  --      1.7187                 1.1765                 1.5530
 IR Inten    --      0.1391                28.3422                 7.4764

                     22                     23                     24
                      A                      A                      A
 Frequencies --   1346.9348              1347.8790              1374.1275
 Red. masses --      1.4469                 1.5239                 1.3088
 Frc consts  --      1.5466                 1.6312                 1.4561
 IR Inten    --      2.1039                 2.5567                52.0219

                     25                     26                     27
                      A                      A                      A
 Frequencies --   1410.5915              1426.1310              1437.6479
 Red. masses --      1.2235                 1.3685                 1.3719
 Frc consts  --      1.4344                 1.6399                 1.6706
 IR Inten    --      2.2183                21.4000                34.2078

                     28                     29                     30
                      A                      A                      A
 Frequencies --   1486.5887              1494.1075              1503.4435
 Red. masses --      1.0599                 1.0470                 1.0418
 Frc consts  --      1.3801                 1.3771                 1.3875
 IR Inten    --      5.7713                 8.1514                 1.1982

                     31                     32                     33
                      A                      A                      A
 Frequencies --   1512.0879              1519.0079              1525.1591
 Red. masses --      1.0485                 1.0434                 1.0565
 Frc consts  --      1.4124                 1.4185                 1.4479
 IR Inten    --      0.5394                 6.8481                10.3072

                     34                     35                     36
                      A                      A                      A
 Frequencies --   1726.5238              3021.8039              3041.9199
 Red. masses --      8.0993                 1.0846                 1.0347
 Frc consts  --     14.2246                 5.8353                 5.6410
 IR Inten    --     62.3323                21.6866                23.7458

                     37                     38                     39
                      A                      A                      A
 Frequencies --   3044.2629              3049.1449              3102.6395
 Red. masses --      1.0361                 1.0375                 1.1000
 Frc consts  --      5.6574                 5.6834                 6.2390
 IR Inten    --      7.2293                18.7736                19.3468

                     40                     41                     42
                      A                      A                      A
 Frequencies --   3113.2751              3116.6007              3118.9163
 Red. masses --      1.1019                 1.1021                 1.1031
 Frc consts  --      6.2928                 6.3069                 6.3224
 IR Inten    --      5.9039                51.6422                17.7646

                     43                     44                     45
                      A                      A                      A
 Frequencies --   3121.6853              3160.6610              3404.8538
 Red. masses --      1.1024                 1.1009                 1.0737
 Frc consts  --      6.3292                 6.4797                 7.3341
 IR Inten    --     38.5629                 9.5321                13.6425

 - Thermochemistry -
 -------------------
 Temperature   298.150 Kelvin.  Pressure   1.00000 Atm.
 Atom     1 has atomic number  6 and mass  12.00000

 Molecular mass:    85.08915 amu.
 Principal axes and moments of inertia in atomic units:
                           1         2         3
     Eigenvalues --   402.82702 719.07761 729.48956
           X            0.99932   0.02552  -0.02668
           Y           -0.02640   0.99910  -0.03321
           Z            0.02581   0.03389   0.99909
 This molecule is an asymmetric top.
 Rotational symmetry number  1.
 Rotational temperatures (Kelvin)      0.21501     0.12045     0.11873
 Rotational constants (GHZ):           4.48019     2.50980     2.47398
 Zero-point vibrational energy     404424.4 (Joules/Mol)
                                   96.65974 (Kcal/Mol)
 Warning -- explicit consideration of  10 degrees of freedom as
           vibrations may cause significant error
 Vibrational temperatures:     25.50   238.76   303.37   363.57   376.03
          (Kelvin)            403.59   479.32   709.47   754.72   835.20
                             1053.88  1301.80  1304.89  1350.48  1392.67
                             1399.19  1554.71  1574.12  1626.30  1667.47
                             1727.79  1937.94  1939.29  1977.06  2029.52
                             2051.88  2068.45  2138.87  2149.68  2163.12
                             2175.55  2185.51  2194.36  2484.08  4347.70
                             4376.64  4380.01  4387.03  4464.00  4479.30
                             4484.09  4487.42  4491.40  4547.48  4898.82

 Zero-point correction=                           0.154037 (Hartree/Particle)
 Thermal correction to Energy=                    0.161843
 Thermal correction to Enthalpy=                  0.162788
 Thermal correction to Gibbs Free Energy=         0.121587
 Sum of electronic and zero-point Energies=           -251.763339
 Sum of electronic and thermal Energies=              -251.755532
 Sum of electronic and thermal Enthalpies=            -251.754588
 Sum of electronic and thermal Free Energies=         -251.795789

                     E (Thermal)             CV                S
                      KCal/Mol        Cal/Mol-Kelvin    Cal/Mol-Kelvin
 Total                  101.558             27.444             86.713
 Electronic               0.000              0.000              0.000
 Translational            0.889              2.981             39.237
 Rotational               0.889              2.981             26.849
 Vibrational             99.781             21.483             20.628
 Vibration     1          0.593              1.986              6.875
 Vibration     2          0.624              1.884              2.481
 Vibration     3          0.643              1.824              2.036
 Vibration     4          0.664              1.758              1.712
 Vibration     5          0.669              1.743              1.653
 Vibration     6          0.680              1.710              1.531
 Vibration     7          0.715              1.609              1.245
 Vibration     8          0.849              1.265              0.676
 Vibration     9          0.880              1.196              0.599
 Vibration    10          0.937              1.073              0.484

 Normal termination of Gaussian 09 at Thu Sep  8 20:20:32 2022.
