 Gaussian 09, Revision E.01,
 Gaussian 09:  ES64L-G09RevE.01 30-Nov-2015

 ----------------------------
 #P OPT Freq B3LYP/6-31G(d,p)
 ----------------------------

 --------
 Frag_449
 --------
 Symbolic Z-matrix:
 Charge =  0 Multiplicity = 1

 SCF Done:  E(RB3LYP) =  -306.441137593     A.U. after   14 cycles
 SCF Done:  E(RB3LYP) =  -306.441250705     A.U. after   10 cycles
 SCF Done:  E(RB3LYP) =  -306.441264926     A.U. after    9 cycles
 SCF Done:  E(RB3LYP) =  -306.441270744     A.U. after    9 cycles
 SCF Done:  E(RB3LYP) =  -306.441272020     A.U. after    8 cycles
 SCF Done:  E(RB3LYP) =  -306.441272315     A.U. after    7 cycles
 Optimization completed.
    -- Stationary point found.
 Normal termination of Gaussian 09 at Thu Sep  8 15:11:25 2022.

 ----------------------------------------------------------------------
 #P Geom=AllCheck Guess=TCheck SCRF=Check GenChk RB3LYP/6-31G(d,p) Freq
 ----------------------------------------------------------------------

 Structure from the checkpoint file:  "B3LYP6-31Gdp.Frag_449.chk"
 --------
 Frag_449
 --------
 Charge =  0 Multiplicity = 1

                         Standard orientation:
 ---------------------------------------------------------------------
 Center     Atomic      Atomic             Coordinates (Angstroms)
 Number     Number       Type             X           Y           Z
 ---------------------------------------------------------------------
      1          6           0        1.435633    1.127364   -0.196462
      2          6           0        0.721231    0.003554   -0.009906
      3          8           0        1.271729   -1.226896    0.208236
      4          6           0       -0.757341   -0.027505   -0.005914
      5          6           0       -1.473070   -1.144973   -0.176291
      6          8           0       -1.385620    1.185249    0.134199
      7          1           0        0.951099    2.058535   -0.458679
      8          1           0        2.520196    1.127832   -0.156351
      9          1           0        2.225738   -1.167952    0.063076
     10          1           0       -0.978288   -2.087732   -0.361856
     11          1           0       -2.555381   -1.109370   -0.152035
     12          1           0       -0.810957    1.761223    0.657806
 ---------------------------------------------------------------------

 SCF Done:  E(RB3LYP) =  -306.441272315     A.U. after    1 cycles

 The electronic state is 1-A.
 Alpha  occ. eigenvalues --  -19.18662 -19.17053 -10.26102 -10.24584 -10.18270
 Alpha  occ. eigenvalues --  -10.16958  -1.06942  -1.04980  -0.78234  -0.74025
 Alpha  occ. eigenvalues --   -0.63234  -0.57919  -0.52989  -0.49723  -0.45140
 Alpha  occ. eigenvalues --   -0.42948  -0.41424  -0.39441  -0.37222  -0.36883
 Alpha  occ. eigenvalues --   -0.34015  -0.25340  -0.21971
 Alpha virt. eigenvalues --   -0.01668   0.06268   0.08337   0.10440   0.13219
 Alpha virt. eigenvalues --    0.16077   0.16719   0.18070   0.24929   0.30235
 Alpha virt. eigenvalues --    0.31817   0.33990   0.39314   0.53065   0.53376

 Mulliken charges:
               1
     1  C   -0.347731
     2  C    0.332121
     3  O   -0.538263
     4  C    0.339343
     5  C   -0.284390
     6  O   -0.550954
     7  H    0.106827
     8  H    0.089685
     9  H    0.319181
    10  H    0.118574
    11  H    0.106584
    12  H    0.309023
 Sum of Mulliken charges =  -0.00000

 Dipole moment (field-independent basis, Debye):
    X=              2.3758    Y=              0.4896    Z=              0.3657  Tot=              2.4531
 Quadrupole moment (field-independent basis, Debye-Ang):
   XX=            -31.2254   YY=            -33.3062   ZZ=            -37.1806
   XY=              0.2164   XZ=             -0.7179   YZ=              2.1824

  Exact polarizability:  63.711  15.349  65.145   0.005   0.926  22.274
 Approx polarizability:  90.320  31.911 111.853   0.254   0.904  32.201

                      1                      2                      3
                      A                      A                      A
 Frequencies --    102.4483               278.1696               356.8469
 Red. masses --      4.6281                 3.5011                 2.2531
 Frc consts  --      0.0286                 0.1596                 0.1690
 IR Inten    --      2.0911                 2.9919                 9.3632

                      4                      5                      6
                      A                      A                      A
 Frequencies --    400.2035               402.2413               430.2295
 Red. masses --      1.1060                 3.0001                 1.2147
 Frc consts  --      0.1044                 0.2860                 0.1325
 IR Inten    --    182.5746                12.7753                34.6949

                      7                      8                      9
                      A                      A                      A
 Frequencies --    514.4004               537.3620               707.1526
 Red. masses --      2.3797                 4.1563                 2.9281
 Frc consts  --      0.3710                 0.7071                 0.8627
 IR Inten    --     16.8329                 3.1439                 6.6335

                     10                     11                     12
                      A                      A                      A
 Frequencies --    718.3679               760.3514               785.8419
 Red. masses --      1.3537                 1.1170                 3.0323
 Frc consts  --      0.4116                 0.3805                 1.1033
 IR Inten    --      4.6135                10.0692                 8.9526

                     13                     14                     15
                      A                      A                      A
 Frequencies --    809.1530               873.0119               980.9187
 Red. masses --      1.4185                 1.3876                 1.7844
 Frc consts  --      0.5472                 0.6231                 1.0116
 IR Inten    --     63.7054                52.2567                 4.5619

                     16                     17                     18
                      A                      A                      A
 Frequencies --    984.3536              1163.5374              1239.7103
 Red. masses --      1.9370                 1.9939                 1.2884
 Frc consts  --      1.1058                 1.5904                 1.1666
 IR Inten    --     36.5997               138.5611               144.0924

                     19                     20                     21
                      A                      A                      A
 Frequencies --   1319.2794              1413.4291              1435.9625
 Red. masses --      1.8514                 1.9116                 1.2934
 Frc consts  --      1.8986                 2.2501                 1.5713
 IR Inten    --     88.3496                 2.7511                 6.7269

                     22                     23                     24
                      A                      A                      A
 Frequencies --   1469.6157              1681.2308              1743.4310
 Red. masses --      1.5638                 5.0231                 5.7152
 Frc consts  --      1.9900                 8.3653                10.2350
 IR Inten    --     20.5887               169.5852                 3.2691

                     25                     26                     27
                      A                      A                      A
 Frequencies --   3176.1971              3197.8678              3268.8667
 Red. masses --      1.0626                 1.0601                 1.1141
 Frc consts  --      6.3157                 6.3875                 7.0140
 IR Inten    --      2.6343                 1.2538                 5.8437

                     28                     29                     30
                      A                      A                      A
 Frequencies --   3300.6284              3791.8485              3815.8470
 Red. masses --      1.1174                 1.0654                 1.0657
 Frc consts  --      7.1725                 9.0251                 9.1428
 IR Inten    --      1.3892                27.2232                29.7278

 - Thermochemistry -
 -------------------
 Temperature   298.150 Kelvin.  Pressure   1.00000 Atm.
 Atom     1 has atomic number  6 and mass  12.00000

 Molecular mass:    86.03678 amu.
 Principal axes and moments of inertia in atomic units:
                           1         2         3
     Eigenvalues --   340.04077 515.15111 836.33924
           X            0.99336   0.11502  -0.00311
           Y           -0.11498   0.99332   0.00950
           Z            0.00418  -0.00908   0.99995
 This molecule is an asymmetric top.
 Rotational symmetry number  1.
 Rotational temperatures (Kelvin)      0.25472     0.16813     0.10356
 Rotational constants (GHZ):           5.30743     3.50332     2.15791
 Zero-point vibrational energy     249173.2 (Joules/Mol)
                                   59.55382 (Kcal/Mol)
 Warning -- explicit consideration of   8 degrees of freedom as
           vibrations may cause significant error
 Vibrational temperatures:    147.40   400.22   513.42   575.80   578.73
          (Kelvin)            619.00   740.11   773.14  1017.43  1033.57
                             1093.97  1130.65  1164.19  1256.07  1411.32
                             1416.26  1674.07  1783.66  1898.15  2033.61
                             2066.03  2114.45  2418.91  2508.41  4569.83
                             4601.01  4703.16  4748.86  5455.62  5490.15

 Zero-point correction=                           0.094905 (Hartree/Particle)
 Thermal correction to Energy=                    0.101249
 Thermal correction to Enthalpy=                  0.102193
 Thermal correction to Gibbs Free Energy=         0.065334
 Sum of electronic and zero-point Energies=           -306.346367
 Sum of electronic and thermal Energies=              -306.340024
 Sum of electronic and thermal Enthalpies=            -306.339080
 Sum of electronic and thermal Free Energies=         -306.375938

                     E (Thermal)             CV                S
                      KCal/Mol        Cal/Mol-Kelvin    Cal/Mol-Kelvin
 Total                   63.534             23.776             77.575
 Electronic               0.000              0.000              0.000
 Translational            0.889              2.981             39.270
 Rotational               0.889              2.981             26.485
 Vibrational             61.757             17.815             11.820
 Vibration     1          0.605              1.947              3.407
 Vibration     2          0.679              1.714              1.545
 Vibration     3          0.732              1.561              1.136
 Vibration     4          0.766              1.470              0.962
 Vibration     5          0.768              1.465              0.954
 Vibration     6          0.791              1.404              0.858
 Vibration     7          0.869              1.218              0.623
 Vibration     8          0.892              1.167              0.571

 Optimization completed.
    -- Stationary point found.
 Normal termination of Gaussian 09 at Thu Sep  8 15:11:35 2022.
