 Gaussian 09, Revision E.01,
 Gaussian 09:  ES64L-G09RevE.01 30-Nov-2015

 -------------------------
 #P OPT Freq B3LYP/6-31G**
 -------------------------

 --------
 Frag_116
 --------
 Symbolic Z-matrix:
 Charge =  0 Multiplicity = 1

 SCF Done:  E(RB3LYP) =  -173.236397774     A.U. after   12 cycles
 SCF Done:  E(RB3LYP) =  -173.246152584     A.U. after   11 cycles
 SCF Done:  E(RB3LYP) =  -173.246659521     A.U. after   10 cycles
 SCF Done:  E(RB3LYP) =  -173.246948957     A.U. after   10 cycles
 SCF Done:  E(RB3LYP) =  -173.247367908     A.U. after   11 cycles
 SCF Done:  E(RB3LYP) =  -173.247943636     A.U. after   11 cycles
 SCF Done:  E(RB3LYP) =  -173.248607914     A.U. after   10 cycles
 SCF Done:  E(RB3LYP) =  -173.249099851     A.U. after   10 cycles
 SCF Done:  E(RB3LYP) =  -173.249117212     A.U. after   10 cycles
 SCF Done:  E(RB3LYP) =  -173.249146167     A.U. after    9 cycles
 SCF Done:  E(RB3LYP) =  -173.249150719     A.U. after    7 cycles
 Optimization completed.
    -- Stationary point found.
 Normal termination of Gaussian 09 at Sat Aug 21 01:34:44 2021.

 ----------------------------------------------------------------------
 #P Geom=AllCheck Guess=TCheck SCRF=Check GenChk RB3LYP/6-31G(d,p) Freq
 ----------------------------------------------------------------------

 Structure from the checkpoint file:  "/public/home/users/caep010/.cache/gau_scr/Gau-106000.chk"
 --------
 Frag_116
 --------
 Charge =  0 Multiplicity = 1

                         Standard orientation:
 ---------------------------------------------------------------------
 Center     Atomic      Atomic             Coordinates (Angstroms)
 Number     Number       Type             X           Y           Z
 ---------------------------------------------------------------------
      1          6           0        0.000001   -1.081355   -0.073966
      2          6           0        1.053774    0.041068    0.091734
      3          7           0       -0.000001    1.033067   -0.235467
      4          6           0       -1.053774    0.041066    0.091733
      5          1           0        0.000002   -1.508866   -1.079137
      6          1           0        0.000002   -1.886034    0.663859
      7          1           0        1.430198    0.098137    1.124974
      8          1           0        1.911467    0.044689   -0.590794
      9          1           0       -0.000002    1.873121    0.338180
     10          1           0       -1.430198    0.098134    1.124974
     11          1           0       -1.911467    0.044685   -0.590794
 ---------------------------------------------------------------------

 SCF Done:  E(RB3LYP) =  -173.249150719     A.U. after    1 cycles

 The electronic state is 1-A.
 Alpha  occ. eigenvalues --  -14.30886 -10.20459 -10.20459 -10.18187  -0.91698
 Alpha  occ. eigenvalues --   -0.71083  -0.66531  -0.55305  -0.50766  -0.47278
 Alpha  occ. eigenvalues --   -0.39572  -0.37892  -0.36049  -0.32766  -0.31538
 Alpha  occ. eigenvalues --   -0.21824
 Alpha virt. eigenvalues --    0.08402   0.10974   0.12263   0.13964   0.17684
 Alpha virt. eigenvalues --    0.18456   0.18872   0.20296   0.23561   0.23806
 Alpha virt. eigenvalues --    0.32411   0.51250   0.52811   0.54566   0.54822

 Mulliken charges:
               1
     1  C   -0.226541
     2  C   -0.031683
     3  N   -0.509150
     4  C   -0.031683
     5  H    0.114269
     6  H    0.098239
     7  H    0.081095
     8  H    0.097402
     9  H    0.229555
    10  H    0.081094
    11  H    0.097402
 Sum of Mulliken charges =  -0.00000

 Dipole moment (field-independent basis, Debye):
    X=              0.0000    Y=             -0.3557    Z=              1.2296  Tot=              1.2800
 Quadrupole moment (field-independent basis, Debye-Ang):
   XX=            -25.0526   YY=            -24.9902   ZZ=            -26.2526
   XY=             -0.0000   XZ=             -0.0000   YZ=              2.2046

  Exact polarizability:  40.748   0.000  37.194  -0.000   0.934  34.193
 Approx polarizability:  52.367   0.000  49.214  -0.000   0.310  47.934

                      1                      2                      3
                      A                      A                      A
 Frequencies --    211.3795               656.8272               747.6287
 Red. masses --      1.6540                 1.8670                 1.2694
 Frc consts  --      0.0435                 0.4746                 0.4181
 IR Inten    --      3.3735                56.8711                38.3453

                      4                      5                      6
                      A                      A                      A
 Frequencies --    838.1133               928.2571               938.4127
 Red. masses --      1.2218                 2.3823                 1.9352
 Frc consts  --      0.5057                 1.2094                 1.0041
 IR Inten    --      0.2977                15.5544                 0.4282

                      7                      8                      9
                      A                      A                      A
 Frequencies --    970.0258              1024.1181              1049.6558
 Red. masses --      1.6528                 2.9423                 3.5304
 Frc consts  --      0.9163                 1.8182                 2.2918
 IR Inten    --      6.1991                11.7982                 2.5492

                     10                     11                     12
                      A                      A                      A
 Frequencies --   1117.6616              1177.3117              1204.8598
 Red. masses --      1.2514                 1.7777                 1.1524
 Frc consts  --      0.9211                 1.4518                 0.9856
 IR Inten    --     14.3449                 7.4543                 0.0340

                     13                     14                     15
                      A                      A                      A
 Frequencies --   1218.6397              1276.5072              1284.5704
 Red. masses --      1.2249                 1.3849                 1.2420
 Frc consts  --      1.0718                 1.3296                 1.2075
 IR Inten    --      0.0879                 6.1988                 4.2643

                     16                     17                     18
                      A                      A                      A
 Frequencies --   1367.8192              1384.0005              1501.1589
 Red. masses --      1.4957                 1.3400                 1.1012
 Frc consts  --      1.6487                 1.5123                 1.4620
 IR Inten    --      0.7159                14.7763                 1.4656

                     19                     20                     21
                      A                      A                      A
 Frequencies --   1525.7406              1555.2179              2990.1979
 Red. masses --      1.0840                 1.1200                 1.0653
 Frc consts  --      1.4868                 1.5961                 5.6118
 IR Inten    --      5.0827                 1.8537                98.0646

                     22                     23                     24
                      A                      A                      A
 Frequencies --   2996.5738              3066.0039              3066.7598
 Red. masses --      1.0694                 1.0962                 1.0973
 Frc consts  --      5.6576                 6.0713                 6.0805
 IR Inten    --     70.8696                37.9253                62.1135

                     25                     26                     27
                      A                      A                      A
 Frequencies --   3091.5383              3146.4900              3514.3428
 Red. masses --      1.0611                 1.1100                 1.0761
 Frc consts  --      5.9753                 6.4747                 7.8306
 IR Inten    --     35.4431                34.1296                 3.9893

 - Thermochemistry -
 -------------------
 Temperature   298.150 Kelvin.  Pressure   1.00000 Atm.
 Atom     1 has atomic number  6 and mass  12.00000

 Molecular mass:    57.05785 amu.
 Principal axes and moments of inertia in atomic units:
                           1         2         3
     Eigenvalues --   157.52694 158.71202 273.57212
           X           -0.00001   1.00000  -0.00000
           Y            0.99938   0.00001   0.03535
           Z           -0.03535  -0.00000   0.99938
 This molecule is an asymmetric top.
 Rotational symmetry number  1.
 Rotational temperatures (Kelvin)      0.54983     0.54573     0.31660
 Rotational constants (GHZ):          11.45671    11.37117     6.59695
 Zero-point vibrational energy     262280.1 (Joules/Mol)
                                   62.68645 (Kcal/Mol)
 Warning -- explicit consideration of   1 degrees of freedom as
           vibrations may cause significant error
 Vibrational temperatures:    304.13   945.03  1075.67  1205.86  1335.55
          (Kelvin)           1350.16  1395.65  1473.48  1510.22  1608.06
                             1693.89  1733.52  1753.35  1836.61  1848.21
                             1967.98  1991.27  2159.83  2195.20  2237.61
                             4302.22  4311.40  4411.29  4412.38  4448.03
                             4527.09  5056.35

 Zero-point correction=                           0.099897 (Hartree/Particle)
 Thermal correction to Energy=                    0.103895
 Thermal correction to Enthalpy=                  0.104839
 Thermal correction to Gibbs Free Energy=         0.073891
 Sum of electronic and zero-point Energies=           -173.149253
 Sum of electronic and thermal Energies=              -173.145256
 Sum of electronic and thermal Enthalpies=            -173.144311
 Sum of electronic and thermal Free Energies=         -173.175260

                     E (Thermal)             CV                S
                      KCal/Mol        Cal/Mol-Kelvin    Cal/Mol-Kelvin
 Total                   65.195             13.662             65.137
 Electronic               0.000              0.000              0.000
 Translational            0.889              2.981             38.046
 Rotational               0.889              2.981             23.440
 Vibrational             63.418              7.701              3.651
 Vibration     1          0.643              1.824              2.032

 Optimization completed.
    -- Stationary point found.
 Normal termination of Gaussian 09 at Sat Aug 21 01:34:51 2021.
