 Gaussian 09, Revision E.01,
 Gaussian 09:  ES64L-G09RevE.01 30-Nov-2015

 ----------------------------
 #P OPT Freq B3LYP/6-31G(d,p)
 ----------------------------

 --------
 Frag_519
 --------
 Symbolic Z-matrix:
 Charge =  0 Multiplicity = 1

 SCF Done:  E(RB3LYP) =  -249.723287202     A.U. after   13 cycles
 SCF Done:  E(RB3LYP) =  -249.723318799     A.U. after    8 cycles
 SCF Done:  E(RB3LYP) =  -249.723320503     A.U. after    7 cycles
 SCF Done:  E(RB3LYP) =  -249.723320992     A.U. after    7 cycles
 SCF Done:  E(RB3LYP) =  -249.723321171     A.U. after    7 cycles
 Optimization completed.
    -- Stationary point found.
 Normal termination of Gaussian 09 at Thu Sep  8 15:08:19 2022.

 ----------------------------------------------------------------------
 #P Geom=AllCheck Guess=TCheck SCRF=Check GenChk RB3LYP/6-31G(d,p) Freq
 ----------------------------------------------------------------------

 Structure from the checkpoint file:  "B3LYP6-31Gdp.Frag_519.chk"
 --------
 Frag_519
 --------
 Charge =  0 Multiplicity = 1

                         Standard orientation:
 ---------------------------------------------------------------------
 Center     Atomic      Atomic             Coordinates (Angstroms)
 Number     Number       Type             X           Y           Z
 ---------------------------------------------------------------------
      1          6           0        2.051345   -0.001082    0.101431
      2          6           0        0.727679   -0.675505   -0.268315
      3          6           0       -0.502681    0.016779    0.325028
      4          7           0       -1.785632   -0.608365    0.018540
      5          8           0       -0.516332    1.340158   -0.180231
      6          1           0        2.066445    1.032946   -0.251002
      7          1           0        2.901470   -0.530088   -0.340793
      8          1           0        2.197442    0.012526    1.187781
      9          1           0        0.605473   -0.692437   -1.359765
     10          1           0        0.726105   -1.719242    0.071635
     11          1           0       -0.416078    0.019871    1.426326
     12          1           0       -1.901726   -1.468976    0.548163
     13          1           0       -1.820372   -0.853274   -0.970027
     14          1           0       -1.386737    1.694816    0.050889
 ---------------------------------------------------------------------

 SCF Done:  E(RB3LYP) =  -249.723321171     A.U. after    1 cycles

 The electronic state is 1-A.
 Alpha  occ. eigenvalues --  -19.13440 -14.31786 -10.25478 -10.17834 -10.16837
 Alpha  occ. eigenvalues --   -1.01850  -0.87135  -0.76187  -0.65125  -0.58188
 Alpha  occ. eigenvalues --   -0.52321  -0.48767  -0.44317  -0.41801  -0.40522
 Alpha  occ. eigenvalues --   -0.37775  -0.34965  -0.34030  -0.32751  -0.27204
 Alpha  occ. eigenvalues --   -0.24311
 Alpha virt. eigenvalues --    0.07848   0.10571   0.12640   0.12739   0.16278
 Alpha virt. eigenvalues --    0.17477   0.17949   0.18130   0.19965   0.22999
 Alpha virt. eigenvalues --    0.24501   0.26727   0.29071   0.51855   0.53609

 Mulliken charges:
               1
     1  C   -0.318388
     2  C   -0.174755
     3  C    0.279767
     4  N   -0.606994
     5  O   -0.535144
     6  H    0.131526
     7  H    0.096360
     8  H    0.097973
     9  H    0.094412
    10  H    0.081795
    11  H    0.071927
    12  H    0.236512
    13  H    0.238755
    14  H    0.306256
 Sum of Mulliken charges =  -0.00000

 Dipole moment (field-independent basis, Debye):
    X=             -0.4267    Y=             -1.5876    Z=              0.3091  Tot=              1.6727
 Quadrupole moment (field-independent basis, Debye-Ang):
   XX=            -32.9083   YY=            -30.5322   ZZ=            -31.0856
   XY=              0.0004   XZ=              0.3348   YZ=              0.7581

  Exact polarizability:  48.867   0.931  43.775   0.390  -0.554  40.586
 Approx polarizability:  58.717   1.381  60.019   0.294  -2.383  57.926

                      1                      2                      3
                      A                      A                      A
 Frequencies --    124.9554               223.6386               241.7380
 Red. masses --      2.1330                 1.1178                 2.5780
 Frc consts  --      0.0196                 0.0329                 0.0888
 IR Inten    --      1.3067                 2.0111                 4.4934

                      4                      5                      6
                      A                      A                      A
 Frequencies --    263.7563               384.8827               434.6923
 Red. masses --      1.1608                 1.4686                 2.1173
 Frc consts  --      0.0476                 0.1282                 0.2357
 IR Inten    --     32.7447                80.5333                24.2145

                      7                      8                      9
                      A                      A                      A
 Frequencies --    473.9721               569.3635               786.0468
 Red. masses --      2.0206                 2.6091                 1.4034
 Frc consts  --      0.2674                 0.4983                 0.5109
 IR Inten    --     12.1251                38.1976                 2.9085

                     10                     11                     12
                      A                      A                      A
 Frequencies --    847.1119               890.0923               982.1253
 Red. masses --      1.5884                 1.5559                 2.0842
 Frc consts  --      0.6716                 0.7263                 1.1845
 IR Inten    --     77.6627               114.3049                67.5808

                     13                     14                     15
                      A                      A                      A
 Frequencies --   1050.5908              1058.5001              1071.4225
 Red. masses --      1.8000                 2.6899                 1.4133
 Frc consts  --      1.1705                 1.7757                 0.9559
 IR Inten    --     13.6691                25.8914                31.7238

                     16                     17                     18
                      A                      A                      A
 Frequencies --   1169.6334              1245.3559              1283.6972
 Red. masses --      2.5114                 1.5807                 1.2444
 Frc consts  --      2.0243                 1.4444                 1.2081
 IR Inten    --     49.1912                 4.1012                46.2774

                     19                     20                     21
                      A                      A                      A
 Frequencies --   1325.9751              1357.9784              1419.8503
 Red. masses --      1.1565                 1.3697                 1.2769
 Frc consts  --      1.1980                 1.4882                 1.5167
 IR Inten    --     20.9831                 7.1895                 2.9175

                     22                     23                     24
                      A                      A                      A
 Frequencies --   1431.3400              1449.2645              1490.0446
 Red. masses --      1.3012                 1.4838                 1.0827
 Frc consts  --      1.5707                 1.8362                 1.4163
 IR Inten    --      9.7634                34.0880                 1.2595

                     25                     26                     27
                      A                      A                      A
 Frequencies --   1510.7493              1523.6411              1653.5074
 Red. masses --      1.0411                 1.0617                 1.1148
 Frc consts  --      1.4001                 1.4522                 1.7958
 IR Inten    --      4.0799                 6.3838                34.5700

                     28                     29                     30
                      A                      A                      A
 Frequencies --   2958.5806              3028.5863              3044.5813
 Red. masses --      1.0838                 1.0599                 1.0393
 Frc consts  --      5.5893                 5.7281                 5.6759
 IR Inten    --     67.0396                31.5416                28.1475

                     31                     32                     33
                      A                      A                      A
 Frequencies --   3070.0553              3108.4575              3140.6079
 Red. masses --      1.1022                 1.1013                 1.1011
 Frc consts  --      6.1207                 6.2696                 6.3991
 IR Inten    --     32.5871                44.2556                23.2832

                     34                     35                     36
                      A                      A                      A
 Frequencies --   3479.5155              3576.6227              3796.4124
 Red. masses --      1.0496                 1.0923                 1.0652
 Frc consts  --      7.4873                 8.2329                 9.0458
 IR Inten    --      0.2376                 0.1987                20.6868

 - Thermochemistry -
 -------------------
 Temperature   298.150 Kelvin.  Pressure   1.00000 Atm.
 Atom     1 has atomic number  6 and mass  12.00000

 Molecular mass:    75.06841 amu.
 Principal axes and moments of inertia in atomic units:
                           1         2         3
     Eigenvalues --   212.39107 520.92460 665.23230
           X            0.99995   0.00954   0.00331
           Y           -0.00961   0.99972   0.02164
           Z           -0.00311  -0.02167   0.99976
 This molecule is an asymmetric top.
 Rotational symmetry number  1.
 Rotational temperatures (Kelvin)      0.40780     0.16627     0.13020
 Rotational constants (GHZ):           8.49726     3.46450     2.71295
 Zero-point vibrational energy     331768.4 (Joules/Mol)
                                   79.29455 (Kcal/Mol)
 Warning -- explicit consideration of   8 degrees of freedom as
           vibrations may cause significant error
 Vibrational temperatures:    179.78   321.77   347.81   379.49   553.76
          (Kelvin)            625.42   681.94   819.19  1130.94  1218.80
                             1280.64  1413.06  1511.56  1522.94  1541.54
                             1682.84  1791.79  1846.95  1907.78  1953.83
                             2042.85  2059.38  2085.17  2143.84  2173.63
                             2192.18  2379.03  4256.73  4357.45  4380.47
                             4417.12  4472.37  4518.63  5006.24  5145.96
                             5462.18

 Zero-point correction=                           0.126364 (Hartree/Particle)
 Thermal correction to Energy=                    0.132829
 Thermal correction to Enthalpy=                  0.133774
 Thermal correction to Gibbs Free Energy=         0.097075
 Sum of electronic and zero-point Energies=           -249.596957
 Sum of electronic and thermal Energies=              -249.590492
 Sum of electronic and thermal Enthalpies=            -249.589548
 Sum of electronic and thermal Free Energies=         -249.626246

                     E (Thermal)             CV                S
                      KCal/Mol        Cal/Mol-Kelvin    Cal/Mol-Kelvin
 Total                   83.352             22.985             77.239
 Electronic               0.000              0.000              0.000
 Translational            0.889              2.981             38.863
 Rotational               0.889              2.981             25.801
 Vibrational             81.574             17.023             12.574
 Vibration     1          0.610              1.928              3.022
 Vibration     2          0.649              1.805              1.929
 Vibration     3          0.658              1.776              1.790
 Vibration     4          0.670              1.739              1.637
 Vibration     5          0.754              1.502              1.020
 Vibration     6          0.795              1.395              0.843
 Vibration     7          0.831              1.308              0.727
 Vibration     8          0.925              1.098              0.505

 Normal termination of Gaussian 09 at Thu Sep  8 15:08:29 2022.
