 Gaussian 09, Revision E.01,
 Gaussian 09:  ES64L-G09RevE.01 30-Nov-2015

 ----------------------------
 #P OPT Freq B3LYP/6-31G(d,p)
 ----------------------------

 --------
 Frag_771
 --------
 Symbolic Z-matrix:
 Charge =  0 Multiplicity = 1

 SCF Done:  E(RB3LYP) =  -300.436438584     A.U. after   14 cycles
 SCF Done:  E(RB3LYP) =  -300.436574169     A.U. after   12 cycles
 SCF Done:  E(RB3LYP) =  -300.436595094     A.U. after   10 cycles
 SCF Done:  E(RB3LYP) =  -300.436602502     A.U. after    9 cycles
 SCF Done:  E(RB3LYP) =  -300.436607658     A.U. after   10 cycles
 SCF Done:  E(RB3LYP) =  -300.436609890     A.U. after    9 cycles
 SCF Done:  E(RB3LYP) =  -300.436610331     A.U. after    8 cycles
 SCF Done:  E(RB3LYP) =  -300.436610988     A.U. after    8 cycles
 Optimization completed.
    -- Stationary point found.
 Normal termination of Gaussian 09 at Thu Sep  8 14:55:46 2022.

 ----------------------------------------------------------------------
 #P Geom=AllCheck Guess=TCheck SCRF=Check GenChk RB3LYP/6-31G(d,p) Freq
 ----------------------------------------------------------------------

 Structure from the checkpoint file:  "B3LYP6-31Gdp.Frag_771.chk"
 --------
 Frag_771
 --------
 Charge =  0 Multiplicity = 1

                         Standard orientation:
 ---------------------------------------------------------------------
 Center     Atomic      Atomic             Coordinates (Angstroms)
 Number     Number       Type             X           Y           Z
 ---------------------------------------------------------------------
      1          7           0        1.862002   -0.176139   -0.066472
      2          8           0        0.545183   -0.770811   -0.046487
      3          6           0       -0.472401    0.144574    0.005039
      4          7           0       -1.668779   -0.503094    0.065895
      5          8           0       -0.308683    1.350199    0.003475
      6          1           0        1.682062    0.791717   -0.357496
      7          1           0        2.098576   -0.101372    0.926893
      8          1           0       -1.701050   -1.489880   -0.137215
      9          1           0       -2.489743    0.051616   -0.114283
 ---------------------------------------------------------------------

 SCF Done:  E(RB3LYP) =  -300.436610988     A.U. after    1 cycles

 The electronic state is 1-A.
 Alpha  occ. eigenvalues --  -19.21126 -19.13125 -14.38109 -14.36964 -10.34138
 Alpha  occ. eigenvalues --   -1.12182  -1.02588  -0.92761  -0.82543  -0.61922
 Alpha  occ. eigenvalues --   -0.56764  -0.52956  -0.50082  -0.45895  -0.44209
 Alpha  occ. eigenvalues --   -0.39233  -0.32957  -0.29135  -0.28460  -0.26515
 Alpha virt. eigenvalues --    0.04361   0.06012   0.08502   0.11008   0.13262
 Alpha virt. eigenvalues --    0.16783   0.23561   0.33318   0.36598   0.53464
 Alpha virt. eigenvalues --    0.54933   0.58282   0.65298   0.65997   0.68461

 Mulliken charges:
               1
     1  N   -0.334771
     2  O   -0.410998
     3  C    0.755455
     4  N   -0.618846
     5  O   -0.508677
     6  H    0.274849
     7  H    0.265931
     8  H    0.288007
     9  H    0.289049
 Sum of Mulliken charges =   0.00000

 Dipole moment (field-independent basis, Debye):
    X=             -1.8130    Y=             -1.0528    Z=              0.4747  Tot=              2.1495
 Quadrupole moment (field-independent basis, Debye-Ang):
   XX=            -22.5779   YY=            -31.1959   ZZ=            -28.3281
   XY=              5.1177   XZ=              4.1672   YZ=             -0.3323

  Exact polarizability:  41.590   3.178  31.576   1.308  -0.539  18.508
 Approx polarizability:  52.602   5.034  53.279   0.632  -0.943  25.584

                      1                      2                      3
                      A                      A                      A
 Frequencies --    136.1074               169.4580               330.8275
 Red. masses --      1.2827                 2.8729                 3.2886
 Frc consts  --      0.0140                 0.0486                 0.2121
 IR Inten    --     40.1824                29.0851                70.7725

                      4                      5                      6
                      A                      A                      A
 Frequencies --    344.6283               468.3735               509.8400
 Red. masses --      1.3214                 2.0182                 1.3772
 Frc consts  --      0.0925                 0.2609                 0.2109
 IR Inten    --    249.7367                 8.4196                 9.7825

                      7                      8                      9
                      A                      A                      A
 Frequencies --    686.5084               758.1783               867.0014
 Red. masses --      5.4745                10.6901                 4.4680
 Frc consts  --      1.5201                 3.6206                 1.9788
 IR Inten    --      0.8049                24.4783                42.9951

                     10                     11                     12
                      A                      A                      A
 Frequencies --   1012.2977              1114.5320              1263.2333
 Red. masses --      6.0460                 1.9662                 1.3412
 Frc consts  --      3.6503                 1.4390                 1.2610
 IR Inten    --     31.9588                 0.5304                76.9202

                     13                     14                     15
                      A                      A                      A
 Frequencies --   1371.1235              1388.4610              1617.4950
 Red. masses --      1.7292                 1.7223                 1.2299
 Frc consts  --      1.9153                 1.9563                 1.8958
 IR Inten    --    207.1995               146.4585               118.5826

                     16                     17                     18
                      A                      A                      A
 Frequencies --   1669.9157              1843.6713              3388.0805
 Red. masses --      1.0782                 9.5627                 1.0482
 Frc consts  --      1.7714                19.1513                 7.0892
 IR Inten    --     55.9598               331.7045                13.9340

                     19                     20                     21
                      A                      A                      A
 Frequencies --   3481.9770              3616.3118              3750.9708
 Red. masses --      1.0931                 1.0454                 1.1047
 Frc consts  --      7.8084                 8.0549                 9.1572
 IR Inten    --      5.5101                52.4217                57.2285

 - Thermochemistry -
 -------------------
 Temperature   298.150 Kelvin.  Pressure   1.00000 Atm.
 Atom     1 has atomic number  7 and mass  14.00307

 Molecular mass:    76.02728 amu.
 Principal axes and moments of inertia in atomic units:
                           1         2         3
     Eigenvalues --   166.90481 408.23460 566.90874
           X            0.99852   0.05187   0.01642
           Y           -0.05183   0.99865  -0.00274
           Z           -0.01654   0.00189   0.99986
 This molecule is an asymmetric top.
 Rotational symmetry number  1.
 Rotational temperatures (Kelvin)      0.51894     0.21217     0.15278
 Rotational constants (GHZ):          10.81300     4.42084     3.18348
 Zero-point vibrational energy     178177.7 (Joules/Mol)
                                   42.58550 (Kcal/Mol)
 Warning -- explicit consideration of   6 degrees of freedom as
           vibrations may cause significant error
 Vibrational temperatures:    195.83   243.81   475.99   495.84   673.88
          (Kelvin)            733.55   987.73  1090.85  1247.42  1456.47
                             1603.56  1817.51  1972.74  1997.68  2327.21
                             2402.63  2652.63  4874.69  5009.78  5203.06
                             5396.80

 Zero-point correction=                           0.067864 (Hartree/Particle)
 Thermal correction to Energy=                    0.073556
 Thermal correction to Enthalpy=                  0.074500
 Thermal correction to Gibbs Free Energy=         0.039272
 Sum of electronic and zero-point Energies=           -300.368747
 Sum of electronic and thermal Energies=              -300.363055
 Sum of electronic and thermal Enthalpies=            -300.362111
 Sum of electronic and thermal Free Energies=         -300.397339

                     E (Thermal)             CV                S
                      KCal/Mol        Cal/Mol-Kelvin    Cal/Mol-Kelvin
 Total                   46.157             18.769             74.144
 Electronic               0.000              0.000              0.000
 Translational            0.889              2.981             38.901
 Rotational               0.889              2.981             25.161
 Vibrational             44.379             12.807             10.082
 Vibration     1          0.614              1.917              2.858
 Vibration     2          0.625              1.880              2.441
 Vibration     3          0.713              1.614              1.256
 Vibration     4          0.723              1.586              1.191
 Vibration     5          0.826              1.320              0.742
 Vibration     6          0.865              1.228              0.634

 Normal termination of Gaussian 09 at Thu Sep  8 14:55:53 2022.
