 Gaussian 09, Revision E.01,
 Gaussian 09:  ES64L-G09RevE.01 30-Nov-2015

 --------------------------------
 #P OPT=calcfc Freq B3LYP/6-31G**
 --------------------------------

 --------
 Frag_328
 --------
 Symbolic Z-matrix:
 Charge =  0 Multiplicity = 1

 SCF Done:  E(RB3LYP) =  -189.278597779     A.U. after   13 cycles
 SCF Done:  E(RB3LYP) =  -189.289484670     A.U. after   13 cycles
 SCF Done:  E(RB3LYP) =  -189.288887030     A.U. after   14 cycles
 SCF Done:  E(RB3LYP) =  -189.290277789     A.U. after   11 cycles
 SCF Done:  E(RB3LYP) =  -189.291373650     A.U. after   12 cycles
 SCF Done:  E(RB3LYP) =  -189.291490409     A.U. after   11 cycles
 SCF Done:  E(RB3LYP) =  -189.291514116     A.U. after    9 cycles
 SCF Done:  E(RB3LYP) =  -189.291517287     A.U. after    9 cycles
 SCF Done:  E(RB3LYP) =  -189.291517455     A.U. after    7 cycles
 Optimization completed.
    -- Stationary point found.
 Normal termination of Gaussian 09 at Fri Sep 10 20:40:53 2021.

 ----------------------------------------------------------------------
 #P Geom=AllCheck Guess=TCheck SCRF=Check GenChk RB3LYP/6-31G(d,p) Freq
 ----------------------------------------------------------------------

 Structure from the checkpoint file:  "/public/home/users/caep010/.cache/gau_scr/Gau-142981.chk"
 --------
 Frag_328
 --------
 Charge =  0 Multiplicity = 1

                         Standard orientation:
 ---------------------------------------------------------------------
 Center     Atomic      Atomic             Coordinates (Angstroms)
 Number     Number       Type             X           Y           Z
 ---------------------------------------------------------------------
      1          6           0       -1.444840   -0.493676   -0.010810
      2          6           0       -0.542320    0.711232    0.021154
      3          7           0        0.739460    0.697507    0.002067
      4          7           0        1.366853   -0.528850   -0.096632
      5          1           0       -1.218355   -1.128859   -0.876817
      6          1           0       -1.325834   -1.119345    0.886302
      7          1           0       -2.494261   -0.197483   -0.064861
      8          1           0       -0.990991    1.702279    0.048626
      9          1           0        0.890806   -1.301884    0.367041
     10          1           0        2.317412   -0.440641    0.239597
 ---------------------------------------------------------------------

 SCF Done:  E(RB3LYP) =  -189.291517455     A.U. after    1 cycles

 The electronic state is 1-A.
 Alpha  occ. eigenvalues --  -14.35594 -14.34993 -10.20695 -10.18981  -0.97874
 Alpha  occ. eigenvalues --   -0.80341  -0.71825  -0.57392  -0.52228  -0.46402
 Alpha  occ. eigenvalues --   -0.42632  -0.42180  -0.37707  -0.35801  -0.26070
 Alpha  occ. eigenvalues --   -0.22251
 Alpha virt. eigenvalues --    0.01853   0.07469   0.12246   0.13805   0.15616
 Alpha virt. eigenvalues --    0.19094   0.19247   0.20934   0.28598   0.36762
 Alpha virt. eigenvalues --    0.53368   0.54975   0.56347   0.62429   0.63077

 Mulliken charges:
               1
     1  C   -0.382353
     2  C    0.081875
     3  N   -0.248824
     4  N   -0.436620
     5  H    0.137581
     6  H    0.116391
     7  H    0.118873
     8  H    0.100947
     9  H    0.241304
    10  H    0.270825
 Sum of Mulliken charges =  -0.00000

 Dipole moment (field-independent basis, Debye):
    X=             -0.7517    Y=             -1.6481    Z=              1.1588  Tot=              2.1504
 Quadrupole moment (field-independent basis, Debye-Ang):
   XX=            -21.7718   YY=            -24.8928   ZZ=            -26.2498
   XY=             -2.4477   XZ=              1.9737   YZ=             -1.2026

  Exact polarizability:  49.903  -4.270  35.690   0.058  -0.764  22.324
 Approx polarizability:  75.049  -7.764  50.090  -1.589  -0.692  31.203

                      1                      2                      3
                      A                      A                      A
 Frequencies --    129.6778               282.9162               362.7432
 Red. masses --      1.0592                 2.7521                 1.1828
 Frc consts  --      0.0105                 0.1298                 0.0917
 IR Inten    --      0.6901                 1.6359                20.0669

                      4                      5                      6
                      A                      A                      A
 Frequencies --    537.0257               656.9261               722.6927
 Red. masses --      2.5332                 2.4603                 1.4589
 Frc consts  --      0.4304                 0.6256                 0.4489
 IR Inten    --      8.9578                20.2417               256.3679

                      7                      8                      9
                      A                      A                      A
 Frequencies --    827.9087               939.3207              1043.5439
 Red. masses --      1.1919                 2.2449                 1.5349
 Frc consts  --      0.4813                 1.1670                 0.9848
 IR Inten    --      9.5618                 2.0896                 0.1637

                     10                     11                     12
                      A                      A                      A
 Frequencies --   1091.8731              1115.6020              1312.8025
 Red. masses --      2.6281                 2.0529                 1.3274
 Frc consts  --      1.8460                 1.5053                 1.3479
 IR Inten    --     29.6853                13.4798                 5.8816

                     13                     14                     15
                      A                      A                      A
 Frequencies --   1383.4127              1425.7724              1495.2575
 Red. masses --      1.2161                 1.2864                 1.0449
 Frc consts  --      1.3713                 1.5408                 1.3765
 IR Inten    --      6.4072                11.2199                 8.1015

                     16                     17                     18
                      A                      A                      A
 Frequencies --   1500.1704              1670.3468              1714.2769
 Red. masses --      1.0474                 1.1929                 4.8961
 Frc consts  --      1.3888                 1.9609                 8.4774
 IR Inten    --      6.0284                28.3194                 4.6263

                     19                     20                     21
                      A                      A                      A
 Frequencies --   3011.2855              3067.4517              3138.1723
 Red. masses --      1.0462                 1.0932                 1.0969
 Frc consts  --      5.5894                 6.0604                 6.3646
 IR Inten    --     17.2910                20.4134                10.8492

                     22                     23                     24
                      A                      A                      A
 Frequencies --   3170.1261              3458.8818              3620.5292
 Red. masses --      1.0906                 1.0519                 1.0916
 Frc consts  --      6.4574                 7.4146                 8.4310
 IR Inten    --     21.6627                 4.0748                 9.8227

 - Thermochemistry -
 -------------------
 Temperature   298.150 Kelvin.  Pressure   1.00000 Atm.
 Atom     1 has atomic number  6 and mass  12.00000

 Molecular mass:    58.05310 amu.
 Principal axes and moments of inertia in atomic units:
                           1         2         3
     Eigenvalues --   103.25957 288.87482 378.72007
           X            0.99991  -0.00720   0.01117
           Y            0.00743   0.99976  -0.02051
           Z           -0.01102   0.02060   0.99973
 This molecule is an asymmetric top.
 Rotational symmetry number  1.
 Rotational temperatures (Kelvin)      0.83880     0.29983     0.22870
 Rotational constants (GHZ):          17.47771     6.24749     4.76537
 Zero-point vibrational energy     225368.8 (Joules/Mol)
                                   53.86443 (Kcal/Mol)
 Warning -- explicit consideration of   4 degrees of freedom as
           vibrations may cause significant error
 Vibrational temperatures:    186.58   407.05   521.91   772.66   945.17
          (Kelvin)           1039.79  1191.17  1351.47  1501.42  1570.96
                             1605.10  1888.83  1990.42  2051.37  2151.34
                             2158.41  2403.25  2466.46  4332.56  4413.37
                             4515.12  4561.10  4976.55  5209.13

 Zero-point correction=                           0.085838 (Hartree/Particle)
 Thermal correction to Energy=                    0.090810
 Thermal correction to Enthalpy=                  0.091754
 Thermal correction to Gibbs Free Energy=         0.058766
 Sum of electronic and zero-point Energies=           -189.205679
 Sum of electronic and thermal Energies=              -189.200707
 Sum of electronic and thermal Enthalpies=            -189.199763
 Sum of electronic and thermal Free Energies=         -189.232751

                     E (Thermal)             CV                S
                      KCal/Mol        Cal/Mol-Kelvin    Cal/Mol-Kelvin
 Total                   56.984             16.526             69.429
 Electronic               0.000              0.000              0.000
 Translational            0.889              2.981             38.097
 Rotational               0.889              2.981             23.939
 Vibrational             55.207             10.564              7.393
 Vibration     1          0.612              1.924              2.951
 Vibration     2          0.682              1.705              1.516
 Vibration     3          0.737              1.549              1.110
 Vibration     4          0.892              1.168              0.572

 Optimization completed.
    -- Stationary point found.
 Normal termination of Gaussian 09 at Fri Sep 10 20:41:00 2021.
