 Gaussian 09, Revision E.01,
 Gaussian 09:  ES64L-G09RevE.01 30-Nov-2015

 -------------------------
 #P OPT Freq B3LYP/6-31G**
 -------------------------

 --------
 Frag_272
 --------
 Symbolic Z-matrix:
 Charge =  0 Multiplicity = 1

 SCF Done:  E(RB3LYP) =  -415.997621473     A.U. after   14 cycles
 SCF Done:  E(RB3LYP) =  -416.017711029     A.U. after   13 cycles
 SCF Done:  E(RB3LYP) =  -416.018600119     A.U. after   12 cycles
 SCF Done:  E(RB3LYP) =  -416.018685621     A.U. after   11 cycles
 SCF Done:  E(RB3LYP) =  -416.018692868     A.U. after   12 cycles
 SCF Done:  E(RB3LYP) =  -416.018840805     A.U. after    9 cycles
 SCF Done:  E(RB3LYP) =  -416.018950007     A.U. after   11 cycles
 SCF Done:  E(RB3LYP) =  -416.018987762     A.U. after   11 cycles
 SCF Done:  E(RB3LYP) =  -416.018991128     A.U. after    9 cycles
 SCF Done:  E(RB3LYP) =  -416.018993552     A.U. after   10 cycles
 SCF Done:  E(RB3LYP) =  -416.018995498     A.U. after    8 cycles
 SCF Done:  E(RB3LYP) =  -416.018995887     A.U. after    8 cycles
 Optimization completed.
    -- Stationary point found.
 Normal termination of Gaussian 09 at Sat Aug 21 01:33:45 2021.

 ----------------------------------------------------------------------
 #P Geom=AllCheck Guess=TCheck SCRF=Check GenChk RB3LYP/6-31G(d,p) Freq
 ----------------------------------------------------------------------

 Structure from the checkpoint file:  "/public/home/users/caep010/.cache/gau_scr/Gau-23942.chk"
 --------
 Frag_272
 --------
 Charge =  0 Multiplicity = 1

                         Standard orientation:
 ---------------------------------------------------------------------
 Center     Atomic      Atomic             Coordinates (Angstroms)
 Number     Number       Type             X           Y           Z
 ---------------------------------------------------------------------
      1          8           0        2.690920    0.014717   -0.127047
      2          6           0        1.473569    0.027557   -0.024009
      3          6           0        0.696353   -1.266990    0.200210
      4          7           0       -0.725770   -1.163162   -0.090712
      5          6           0       -1.473567   -0.027556   -0.024030
      6          8           0       -2.690921   -0.014721   -0.127034
      7          6           0       -0.696355    1.266992    0.200202
      8          7           0        0.725772    1.163163   -0.090700
      9          1           0        1.153702   -2.018319   -0.448150
     10          1           0        0.879658   -1.583100    1.237990
     11          1           0       -1.263665   -2.013938   -0.195679
     12          1           0       -1.153694    2.018318   -0.448168
     13          1           0       -0.879674    1.583106    1.237979
     14          1           0        1.263666    2.013938   -0.195679
 ---------------------------------------------------------------------

 SCF Done:  E(RB3LYP) =  -416.018995887     A.U. after    1 cycles

 The electronic state is 1-A.
 Alpha  occ. eigenvalues --  -19.12159 -19.12159 -14.37856 -14.37856 -10.30384
 Alpha  occ. eigenvalues --  -10.30384 -10.25084 -10.25083  -1.05018  -1.04004
 Alpha  occ. eigenvalues --   -0.95428  -0.92507  -0.76315  -0.72954  -0.64706
 Alpha  occ. eigenvalues --   -0.55762  -0.53649  -0.52359  -0.50668  -0.47382
 Alpha  occ. eigenvalues --   -0.45840  -0.42749  -0.41887  -0.40684  -0.40387
 Alpha  occ. eigenvalues --   -0.36162  -0.27731  -0.27128  -0.26207  -0.25096
 Alpha virt. eigenvalues --    0.01265   0.01564   0.06244   0.09045   0.11910
 Alpha virt. eigenvalues --    0.12027   0.14973   0.16068   0.17710   0.17896
 Alpha virt. eigenvalues --    0.19886   0.26973   0.28222   0.34184   0.36299

 Mulliken charges:
               1
     1  O   -0.504157
     2  C    0.571587
     3  C   -0.113902
     4  N   -0.530304
     5  C    0.571587
     6  O   -0.504157
     7  C   -0.113903
     8  N   -0.530304
     9  H    0.156177
    10  H    0.146896
    11  H    0.273703
    12  H    0.156177
    13  H    0.146897
    14  H    0.273703
 Sum of Mulliken charges =  -0.00000

 Dipole moment (field-independent basis, Debye):
    X=             -0.0000    Y=              0.0000    Z=              0.8490  Tot=              0.8490
 Quadrupole moment (field-independent basis, Debye-Ang):
   XX=            -67.5087   YY=            -34.5035   ZZ=            -44.6925
   XY=              1.2880   XZ=              0.0001   YZ=             -0.0000

  Exact polarizability:  73.609  -6.755  60.053  -0.000  -0.000  35.586
 Approx polarizability: 115.843 -15.495  83.668  -0.000   0.000  52.642

                      1                      2                      3
                      A                      A                      A
 Frequencies --     62.3960               112.4533               141.9478
 Red. masses --      3.5005                 4.0356                 3.4554
 Frc consts  --      0.0080                 0.0301                 0.0410
 IR Inten    --     10.5659                 0.3487                 2.2953

                      4                      5                      6
                      A                      A                      A
 Frequencies --    407.0173               432.3451               443.1471
 Red. masses --      9.2672                 3.5532                10.6538
 Frc consts  --      0.9045                 0.3913                 1.2327
 IR Inten    --     28.1008                 2.4120                 0.3138

                      7                      8                      9
                      A                      A                      A
 Frequencies --    508.8423               517.3982               598.4058
 Red. masses --      1.6239                 1.5641                 4.9182
 Frc consts  --      0.2477                 0.2467                 1.0376
 IR Inten    --     65.9428                 1.8585                 8.2907

                     10                     11                     12
                      A                      A                      A
 Frequencies --    628.4122               658.0387               781.5625
 Red. masses --      1.6831                 1.9620                 5.5331
 Frc consts  --      0.3916                 0.5005                 1.9913
 IR Inten    --      9.0226               163.3493                 0.0364

                     13                     14                     15
                      A                      A                      A
 Frequencies --    788.1443               905.9099              1014.7955
 Red. masses --      4.3138                 3.5894                 2.0338
 Frc consts  --      1.5788                 1.7356                 1.2340
 IR Inten    --      5.3538                 9.7435                 0.2205

                     16                     17                     18
                      A                      A                      A
 Frequencies --   1015.7339              1062.5720              1136.8140
 Red. masses --      2.0261                 2.3524                 1.8974
 Frc consts  --      1.2316                 1.5649                 1.4447
 IR Inten    --     16.0592                67.0921                 1.2805

                     19                     20                     21
                      A                      A                      A
 Frequencies --   1247.8514              1254.0319              1305.2690
 Red. masses --      1.0948                 1.1206                 1.9587
 Frc consts  --      1.0044                 1.0383                 1.9662
 IR Inten    --      1.5194                 1.3239                 0.4495

                     22                     23                     24
                      A                      A                      A
 Frequencies --   1336.6421              1385.8621              1422.5901
 Red. masses --      1.9835                 1.9028                 2.1479
 Frc consts  --      2.0880                 2.1532                 2.5611
 IR Inten    --    164.7912                 1.8140               125.0237

                     25                     26                     27
                      A                      A                      A
 Frequencies --   1477.8360              1485.0121              1510.0296
 Red. masses --      1.8503                 1.4950                 1.1991
 Frc consts  --      2.3809                 1.9425                 1.6110
 IR Inten    --     49.3079                 0.2024                50.8083

                     28                     29                     30
                      A                      A                      A
 Frequencies --   1535.5386              1809.7953              1813.8019
 Red. masses --      1.5823                 8.8017                 9.0547
 Frc consts  --      2.1981                16.9854                17.5511
 IR Inten    --      0.1578               736.6035                 5.5927

                     31                     32                     33
                      A                      A                      A
 Frequencies --   3014.7821              3015.9108              3113.8862
 Red. masses --      1.0716                 1.0721                 1.0919
 Frc consts  --      5.7386                 5.7454                 6.2379
 IR Inten    --     27.2143                36.6652                 9.9327

                     34                     35                     36
                      A                      A                      A
 Frequencies --   3114.6018              3609.1073              3610.3832
 Red. masses --      1.0920                 1.0763                 1.0766
 Frc consts  --      6.2411                 8.2604                 8.2679
 IR Inten    --      5.5760                55.2030                 0.5920

 - Thermochemistry -
 -------------------
 Temperature   298.150 Kelvin.  Pressure   1.00000 Atm.
 Atom     1 has atomic number  8 and mass  15.99491

 Molecular mass:   114.04293 amu.
 Principal axes and moments of inertia in atomic units:
                           1         2         3
     Eigenvalues --   368.309101153.137231483.72465
           X            0.99994  -0.01064   0.00000
           Y            0.01064   0.99994  -0.00000
           Z           -0.00000   0.00000   1.00000
 This molecule is an asymmetric top.
 Rotational symmetry number  1.
 Rotational temperatures (Kelvin)      0.23517     0.07511     0.05838
 Rotational constants (GHZ):           4.90007     1.56507     1.21636
 Zero-point vibrational energy     288771.8 (Joules/Mol)
                                   69.01811 (Kcal/Mol)
 Warning -- explicit consideration of   9 degrees of freedom as
           vibrations may cause significant error
 Vibrational temperatures:     89.77   161.79   204.23   585.61   622.05
          (Kelvin)            637.59   732.11   744.42   860.97   904.14
                              946.77  1124.49  1133.96  1303.40  1460.06
                             1461.41  1528.80  1635.62  1795.38  1804.27
                             1877.99  1923.13  1993.94  2046.79  2126.27
                             2136.60  2172.59  2209.29  2603.89  2609.65
                             4337.59  4339.22  4480.18  4481.21  5192.69
                             5194.53

 Zero-point correction=                           0.109987 (Hartree/Particle)
 Thermal correction to Energy=                    0.117138
 Thermal correction to Enthalpy=                  0.118082
 Thermal correction to Gibbs Free Energy=         0.077893
 Sum of electronic and zero-point Energies=           -415.909009
 Sum of electronic and thermal Energies=              -415.901858
 Sum of electronic and thermal Enthalpies=            -415.900914
 Sum of electronic and thermal Free Energies=         -415.941103

                     E (Thermal)             CV                S
                      KCal/Mol        Cal/Mol-Kelvin    Cal/Mol-Kelvin
 Total                   73.505             25.686             84.585
 Electronic               0.000              0.000              0.000
 Translational            0.889              2.981             40.110
 Rotational               0.889              2.981             27.935
 Vibrational             71.728             19.724             16.541
 Vibration     1          0.597              1.972              4.380
 Vibration     2          0.607              1.939              3.226
 Vibration     3          0.615              1.911              2.777
 Vibration     4          0.772              1.455              0.937
 Vibration     5          0.793              1.400              0.851
 Vibration     6          0.803              1.376              0.817
 Vibration     7          0.864              1.230              0.636
 Vibration     8          0.872              1.211              0.616
 Vibration     9          0.956              1.035              0.452

 Optimization completed.
    -- Stationary point found.
 Normal termination of Gaussian 09 at Sat Aug 21 01:34:00 2021.
