 Gaussian 09, Revision E.01,
 Gaussian 09:  ES64L-G09RevE.01 30-Nov-2015

 ----------------------------
 #P OPT Freq B3LYP/6-31G(d,p)
 ----------------------------

 ---------
 Frag_1096
 ---------
 Symbolic Z-matrix:
 Charge =  0 Multiplicity = 1

 SCF Done:  E(RB3LYP) =  -400.168257066     A.U. after   12 cycles
 SCF Done:  E(RB3LYP) =  -400.168317094     A.U. after   10 cycles
 SCF Done:  E(RB3LYP) =  -400.168303251     A.U. after   10 cycles
 SCF Done:  E(RB3LYP) =  -400.168346452     A.U. after    9 cycles
 SCF Done:  E(RB3LYP) =  -400.168349170     A.U. after    7 cycles
 SCF Done:  E(RB3LYP) =  -400.168350667     A.U. after    8 cycles
 SCF Done:  E(RB3LYP) =  -400.168350959     A.U. after    7 cycles
 SCF Done:  E(RB3LYP) =  -400.168351080     A.U. after    7 cycles
 Optimization completed.
    -- Stationary point found.
 Normal termination of Gaussian 09 at Thu Sep  8 14:53:53 2022.

 ----------------------------------------------------------------------
 #P Geom=AllCheck Guess=TCheck SCRF=Check GenChk RB3LYP/6-31G(d,p) Freq
 ----------------------------------------------------------------------

 Structure from the checkpoint file:  "B3LYP6-31Gdp.Frag_1096.chk"
 ---------
 Frag_1096
 ---------
 Charge =  0 Multiplicity = 1

                         Standard orientation:
 ---------------------------------------------------------------------
 Center     Atomic      Atomic             Coordinates (Angstroms)
 Number     Number       Type             X           Y           Z
 ---------------------------------------------------------------------
      1          6           0        1.700835   -1.114233   -0.006009
      2          6           0        0.823750    0.044474   -0.454145
      3          8           0        1.277866    1.308932    0.062980
      4          6           0       -0.646255   -0.060447    0.014342
      5          7           0       -0.699848   -0.223906    1.440342
      6          8           0       -1.278462   -1.175499   -0.553608
      7          8           0       -1.351037    1.081287   -0.482121
      8          1           0        1.282424   -2.056240   -0.369151
      9          1           0        1.749049   -1.158133    1.083776
     10          1           0        2.715237   -1.011154   -0.409836
     11          1           0        0.788610    0.086849   -1.553592
     12          1           0        2.192664    1.443488   -0.214660
     13          1           0       -1.674094   -0.198995    1.729601
     14          1           0       -0.212329    0.552257    1.880062
     15          1           0       -1.656672   -0.858028   -1.385231
     16          1           0       -0.742867    1.830781   -0.386498
 ---------------------------------------------------------------------

 SCF Done:  E(RB3LYP) =  -400.168351080     A.U. after    1 cycles

 The electronic state is 1-A.
 Alpha  occ. eigenvalues --  -19.16294 -19.14534 -19.14004 -14.30876 -10.30530
 Alpha  occ. eigenvalues --  -10.23928 -10.17409  -1.06874  -1.02884  -0.98335
 Alpha  occ. eigenvalues --   -0.86996  -0.75552  -0.65850  -0.59666  -0.53540
 Alpha  occ. eigenvalues --   -0.52578  -0.49620  -0.45821  -0.44296  -0.42456
 Alpha  occ. eigenvalues --   -0.39818  -0.38003  -0.37357  -0.35063  -0.34390
 Alpha  occ. eigenvalues --   -0.30659  -0.28603  -0.27110  -0.24014
 Alpha virt. eigenvalues --    0.05697   0.09171   0.12538   0.12649   0.14456
 Alpha virt. eigenvalues --    0.15100   0.16316   0.18243   0.18363   0.20835
 Alpha virt. eigenvalues --    0.22820   0.26424   0.27978   0.29410   0.31121

 Mulliken charges:
               1
     1  C   -0.317444
     2  C    0.135122
     3  O   -0.567505
     4  C    0.576825
     5  N   -0.571831
     6  O   -0.538601
     7  O   -0.575428
     8  H    0.130673
     9  H    0.131081
    10  H    0.082187
    11  H    0.077740
    12  H    0.313551
    13  H    0.247894
    14  H    0.246039
    15  H    0.315123
    16  H    0.314575
 Sum of Mulliken charges =   0.00000

 Dipole moment (field-independent basis, Debye):
    X=              1.9991    Y=              1.6250    Z=             -0.9718  Tot=              2.7534
 Quadrupole moment (field-independent basis, Debye-Ang):
   XX=            -38.2522   YY=            -44.0402   ZZ=            -39.1656
   XY=              1.4593   XZ=             -1.7949   YZ=              2.1643

  Exact polarizability:  53.459   1.350  48.478  -0.018   0.716  47.650
 Approx polarizability:  68.914   4.192  68.464   2.041   1.261  66.249

                      1                      2                      3
                      A                      A                      A
 Frequencies --    106.5198               219.1155               243.0457
 Red. masses --      3.7570                 1.2375                 2.4850
 Frc consts  --      0.0251                 0.0350                 0.0865
 IR Inten    --      0.5518                 0.7715                 6.6775

                      4                      5                      6
                      A                      A                      A
 Frequencies --    256.0363               280.0248               308.6775
 Red. masses --      1.6462                 1.2098                 1.2125
 Frc consts  --      0.0636                 0.0559                 0.0681
 IR Inten    --     40.6163                66.8331                64.3974

                      7                      8                      9
                      A                      A                      A
 Frequencies --    318.9569               361.2488               417.7557
 Red. masses --      1.5854                 3.4775                 3.1469
 Frc consts  --      0.0950                 0.2674                 0.3236
 IR Inten    --     50.6011                 8.1721                12.3494

                     10                     11                     12
                      A                      A                      A
 Frequencies --    469.0993               488.4016               509.7009
 Red. masses --      1.4260                 1.9381                 3.2512
 Frc consts  --      0.1849                 0.2724                 0.4976
 IR Inten    --     87.0284                39.6700                34.6640

                     13                     14                     15
                      A                      A                      A
 Frequencies --    560.0918               627.5980               778.8870
 Red. masses --      4.1145                 3.1110                 3.3708
 Frc consts  --      0.7605                 0.7220                 1.2048
 IR Inten    --      6.2836                48.9543                 2.5931

                     16                     17                     18
                      A                      A                      A
 Frequencies --    871.7805               904.9794               989.6618
 Red. masses --      1.6371                 2.3118                 2.7960
 Frc consts  --      0.7331                 1.1155                 1.6134
 IR Inten    --    120.7290                30.2936               114.5213

                     19                     20                     21
                      A                      A                      A
 Frequencies --   1003.2590              1063.8240              1125.5915
 Red. masses --      1.8291                 2.0230                 2.3982
 Frc consts  --      1.0847                 1.3489                 1.7902
 IR Inten    --     35.5907                66.1247                92.2896

                     22                     23                     24
                      A                      A                      A
 Frequencies --   1134.1295              1174.3994              1232.5351
 Red. masses --      2.1262                 1.7038                 1.1900
 Frc consts  --      1.6113                 1.3845                 1.0651
 IR Inten    --     27.5510               190.9851                41.8679

                     25                     26                     27
                      A                      A                      A
 Frequencies --   1262.4063              1375.8297              1391.1566
 Red. masses --      1.5246                 1.3274                 1.7809
 Frc consts  --      1.4315                 1.4804                 2.0307
 IR Inten    --     72.1887                29.0695                82.4113

                     28                     29                     30
                      A                      A                      A
 Frequencies --   1397.8794              1425.2735              1461.6761
 Red. masses --      1.3956                 1.3669                 1.8352
 Frc consts  --      1.6067                 1.6359                 2.3101
 IR Inten    --     39.0846                22.0569                76.8518

                     31                     32                     33
                      A                      A                      A
 Frequencies --   1495.9618              1516.0057              1648.6555
 Red. masses --      1.0530                 1.1130                 1.1170
 Frc consts  --      1.3885                 1.5071                 1.7888
 IR Inten    --      2.3184                15.0021                50.6266

                     34                     35                     36
                      A                      A                      A
 Frequencies --   3004.2118              3044.3444              3124.1842
 Red. masses --      1.0845                 1.0438                 1.0933
 Frc consts  --      5.7670                 5.6999                 6.2872
 IR Inten    --     54.3511                29.1712                17.7070

                     37                     38                     39
                      A                      A                      A
 Frequencies --   3157.1433              3509.2295              3603.7383
 Red. masses --      1.1027                 1.0486                 1.0935
 Frc consts  --      6.4761                 7.6083                 8.3670
 IR Inten    --     12.0856                 1.7104                 4.4335

                     40                     41                     42
                      A                      A                      A
 Frequencies --   3770.0925              3818.6952              3827.2788
 Red. masses --      1.0652                 1.0650                 1.0667
 Frc consts  --      8.9206                 9.1503                 9.2062
 IR Inten    --     46.1659                41.1734                19.7565

 - Thermochemistry -
 -------------------
 Temperature   298.150 Kelvin.  Pressure   1.00000 Atm.
 Atom     1 has atomic number  6 and mass  12.00000

 Molecular mass:   107.05824 amu.
 Principal axes and moments of inertia in atomic units:
                           1         2         3
     Eigenvalues --   534.36154 760.31567 917.64065
           X            0.99791  -0.06144  -0.01981
           Y            0.06176   0.99796   0.01622
           Z            0.01877  -0.01741   0.99967
 This molecule is an asymmetric top.
 Rotational symmetry number  1.
 Warning -- assumption of classical behavior for rotation
           may cause significant error
 Rotational temperatures (Kelvin)      0.16209     0.11392     0.09439
 Rotational constants (GHZ):           3.37738     2.37367     1.96672
 Zero-point vibrational energy     354567.6 (Joules/Mol)
                                   84.74370 (Kcal/Mol)
 Warning -- explicit consideration of  13 degrees of freedom as
           vibrations may cause significant error
 Vibrational temperatures:    153.26   315.26   349.69   368.38   402.89
          (Kelvin)            444.12   458.91   519.76   601.06   674.93
                              702.70   733.34   805.85   902.97  1120.64
                             1254.30  1302.06  1423.90  1443.46  1530.60
                             1619.47  1631.76  1689.70  1773.34  1816.32
                             1979.51  2001.56  2011.23  2050.65  2103.02
                             2152.35  2181.19  2372.04  4322.39  4380.13
                             4495.00  4542.42  5048.99  5184.97  5424.32
                             5494.24  5506.59

 Zero-point correction=                           0.135048 (Hartree/Particle)
 Thermal correction to Energy=                    0.143468
 Thermal correction to Enthalpy=                  0.144413
 Thermal correction to Gibbs Free Energy=         0.103339
 Sum of electronic and zero-point Energies=           -400.033303
 Sum of electronic and thermal Energies=              -400.024883
 Sum of electronic and thermal Enthalpies=            -400.023939
 Sum of electronic and thermal Free Energies=         -400.065012

                     E (Thermal)             CV                S
                      KCal/Mol        Cal/Mol-Kelvin    Cal/Mol-Kelvin
 Total                   90.028             31.731             86.447
 Electronic               0.000              0.000              0.000
 Translational            0.889              2.981             39.921
 Rotational               0.889              2.981             27.413
 Vibrational             88.250             25.770             19.113
 Vibration     1          0.605              1.944              3.331
 Vibration     2          0.647              1.812              1.966
 Vibration     3          0.659              1.774              1.780
 Vibration     4          0.666              1.753              1.689
 Vibration     5          0.680              1.711              1.534
 Vibration     6          0.698              1.657              1.369
 Vibration     7          0.705              1.637              1.315
 Vibration     8          0.735              1.552              1.117
 Vibration     9          0.781              1.432              0.900
 Vibration    10          0.826              1.319              0.740
 Vibration    11          0.844              1.276              0.688
 Vibration    12          0.865              1.229              0.634
 Vibration    13          0.916              1.118              0.524

 Optimization completed.
    -- Stationary point found.
 Normal termination of Gaussian 09 at Thu Sep  8 14:54:08 2022.
