 Gaussian 09, Revision E.01,
 Gaussian 09:  ES64L-G09RevE.01 30-Nov-2015

 ----------------------------
 #P OPT Freq B3LYP/6-31G(d,p)
 ----------------------------

 --------
 Frag_434
 --------
 Symbolic Z-matrix:
 Charge =  0 Multiplicity = 1

 SCF Done:  E(RB3LYP) =  -232.443880114     A.U. after   13 cycles
 SCF Done:  E(RB3LYP) =  -232.443926713     A.U. after    9 cycles
 SCF Done:  E(RB3LYP) =  -232.443932203     A.U. after    8 cycles
 SCF Done:  E(RB3LYP) =  -232.443935975     A.U. after    8 cycles
 SCF Done:  E(RB3LYP) =  -232.443938857     A.U. after    8 cycles
 SCF Done:  E(RB3LYP) =  -232.443941401     A.U. after    9 cycles
 SCF Done:  E(RB3LYP) =  -232.443941751     A.U. after    8 cycles
 Optimization completed.
    -- Stationary point found.
 Normal termination of Gaussian 09 at Thu Sep  8 15:08:15 2022.

 ----------------------------------------------------------------------
 #P Geom=AllCheck Guess=TCheck SCRF=Check GenChk RB3LYP/6-31G(d,p) Freq
 ----------------------------------------------------------------------

 Structure from the checkpoint file:  "B3LYP6-31Gdp.Frag_434.chk"
 --------
 Frag_434
 --------
 Charge =  0 Multiplicity = 1

                         Standard orientation:
 ---------------------------------------------------------------------
 Center     Atomic      Atomic             Coordinates (Angstroms)
 Number     Number       Type             X           Y           Z
 ---------------------------------------------------------------------
      1          6           0        1.956630   -0.053134   -0.250994
      2          6           0        0.876167   -0.635618    0.263753
      3          6           0       -0.470386    0.020088    0.422402
      4          6           0       -1.561546   -0.756679   -0.328788
      5          8           0       -0.382943    1.363233   -0.041445
      6          1           0        2.896624   -0.588888   -0.341104
      7          1           0        1.928500    0.975867   -0.591745
      8          1           0        0.919085   -1.668710    0.607465
      9          1           0       -0.722426    0.009483    1.499150
     10          1           0       -1.620592   -1.793812    0.017494
     11          1           0       -2.544956   -0.298166   -0.169723
     12          1           0       -1.346313   -0.758127   -1.401075
     13          1           0       -1.251565    1.768553    0.072861
 ---------------------------------------------------------------------

 SCF Done:  E(RB3LYP) =  -232.443941751     A.U. after    1 cycles

 The electronic state is 1-A.
 Alpha  occ. eigenvalues --  -19.14234 -10.23971 -10.18100 -10.18028 -10.16921
 Alpha  occ. eigenvalues --   -1.01736  -0.78228  -0.72401  -0.62852  -0.54734
 Alpha  occ. eigenvalues --   -0.50800  -0.44764  -0.43830  -0.42256  -0.38305
 Alpha  occ. eigenvalues --   -0.38039  -0.34368  -0.32326  -0.27308  -0.24657
 Alpha virt. eigenvalues --    0.02621   0.07211   0.12853   0.13636   0.15174
 Alpha virt. eigenvalues --    0.16445   0.17530   0.17976   0.20871   0.22769
 Alpha virt. eigenvalues --    0.23891   0.30945   0.36420   0.52173   0.53034

 Mulliken charges:
               1
     1  C   -0.231562
     2  C   -0.050863
     3  C    0.158021
     4  C   -0.328492
     5  O   -0.544132
     6  H    0.090282
     7  H    0.119940
     8  H    0.080272
     9  H    0.083593
    10  H    0.103155
    11  H    0.091333
    12  H    0.124726
    13  H    0.303727
 Sum of Mulliken charges =   0.00000

 Dipole moment (field-independent basis, Debye):
    X=             -1.5685    Y=             -0.5184    Z=              0.5103  Tot=              1.7289
 Quadrupole moment (field-independent basis, Debye-Ang):
   XX=            -28.3812   YY=            -30.4234   ZZ=            -32.4148
   XY=             -2.5820   XZ=             -1.0353   YZ=             -0.3092

  Exact polarizability:  59.483   1.640  45.113  -5.936  -4.286  34.196
 Approx polarizability:  78.585   5.905  63.408 -12.060  -8.812  49.099

                      1                      2                      3
                      A                      A                      A
 Frequencies --    100.4962               250.9580               263.6312
 Red. masses --      2.2150                 1.1043                 1.2421
 Frc consts  --      0.0132                 0.0410                 0.0509
 IR Inten    --     11.2343                97.5599                 5.6302

                      4                      5                      6
                      A                      A                      A
 Frequencies --    287.1819               352.8356               434.4598
 Red. masses --      2.1368                 1.9589                 2.4263
 Frc consts  --      0.1038                 0.1437                 0.2698
 IR Inten    --     12.4213                 4.1457                 3.2406

                      7                      8                      9
                      A                      A                      A
 Frequencies --    581.9381               680.1048               814.1322
 Red. masses --      2.4266                 1.8385                 2.2247
 Frc consts  --      0.4842                 0.5010                 0.8688
 IR Inten    --      7.9543                10.6747                 1.7677

                     10                     11                     12
                      A                      A                      A
 Frequencies --    938.4586               950.2623              1022.8916
 Red. masses --      1.9520                 1.3551                 1.5339
 Frc consts  --      1.0129                 0.7209                 0.9456
 IR Inten    --     21.0692                31.8641                23.6879

                     13                     14                     15
                      A                      A                      A
 Frequencies --   1033.7146              1049.6121              1108.4224
 Red. masses --      1.1418                 1.4755                 2.2169
 Frc consts  --      0.7189                 0.9577                 1.6047
 IR Inten    --     20.4701                 5.8925                10.7695

                     16                     17                     18
                      A                      A                      A
 Frequencies --   1188.4344              1239.4546              1323.4432
 Red. masses --      2.2075                 1.1381                 1.2549
 Frc consts  --      1.8370                 1.0301                 1.2950
 IR Inten    --     38.6884                63.8843                 2.5200

                     19                     20                     21
                      A                      A                      A
 Frequencies --   1362.7672              1415.3084              1416.6067
 Red. masses --      1.3169                 1.3055                 1.2849
 Frc consts  --      1.4410                 1.5407                 1.5192
 IR Inten    --     18.6572                 8.6532                 3.4303

                     22                     23                     24
                      A                      A                      A
 Frequencies --   1459.9450              1507.4387              1514.3598
 Red. masses --      1.2669                 1.0461                 1.1001
 Frc consts  --      1.5910                 1.4006                 1.4864
 IR Inten    --     13.0694                 2.7053                 4.0516

                     25                     26                     27
                      A                      A                      A
 Frequencies --   1732.1189              2940.7557              3036.7618
 Red. masses --      4.8825                 1.0819                 1.0373
 Frc consts  --      8.6307                 5.5128                 5.6358
 IR Inten    --      4.2534                66.1318                27.6793

                     28                     29                     30
                      A                      A                      A
 Frequencies --   3105.6442              3132.8832              3151.1041
 Red. masses --      1.1000                 1.1028                 1.0786
 Frc consts  --      6.2508                 6.3773                 6.3099
 IR Inten    --     31.9332                20.4399                16.7253

                     31                     32                     33
                      A                      A                      A
 Frequencies --   3170.5202              3259.3354              3825.9263
 Red. masses --      1.0719                 1.1156                 1.0665
 Frc consts  --      6.3483                 6.9829                 9.1974
 IR Inten    --     11.1384                 8.3335                13.7145

 - Thermochemistry -
 -------------------
 Temperature   298.150 Kelvin.  Pressure   1.00000 Atm.
 Atom     1 has atomic number  6 and mass  12.00000

 Molecular mass:    72.05751 amu.
 Principal axes and moments of inertia in atomic units:
                           1         2         3
     Eigenvalues --   224.04733 448.99156 600.38238
           X            0.99982   0.01829  -0.00426
           Y           -0.01830   0.99983  -0.00377
           Z            0.00419   0.00385   0.99998
 This molecule is an asymmetric top.
 Rotational symmetry number  1.
 Rotational temperatures (Kelvin)      0.38659     0.19291     0.14426
 Rotational constants (GHZ):           8.05518     4.01954     3.00599
 Zero-point vibrational energy     296984.4 (Joules/Mol)
                                   70.98096 (Kcal/Mol)
 Warning -- explicit consideration of   7 degrees of freedom as
           vibrations may cause significant error
 Vibrational temperatures:    144.59   361.07   379.31   413.19   507.65
          (Kelvin)            625.09   837.28   978.52  1171.35  1350.23
                             1367.21  1471.71  1487.28  1510.16  1594.77
                             1709.89  1783.30  1904.14  1960.72  2036.31
                             2038.18  2100.53  2168.87  2178.82  2492.13
                             4231.09  4369.22  4468.32  4507.51  4533.73
                             4561.67  4689.45  5504.65

 Zero-point correction=                           0.113115 (Hartree/Particle)
 Thermal correction to Energy=                    0.119365
 Thermal correction to Enthalpy=                  0.120309
 Thermal correction to Gibbs Free Energy=         0.084016
 Sum of electronic and zero-point Energies=           -232.330826
 Sum of electronic and thermal Energies=              -232.324576
 Sum of electronic and thermal Enthalpies=            -232.323632
 Sum of electronic and thermal Free Energies=         -232.359925

                     E (Thermal)             CV                S
                      KCal/Mol        Cal/Mol-Kelvin    Cal/Mol-Kelvin
 Total                   74.903             21.931             76.385
 Electronic               0.000              0.000              0.000
 Translational            0.889              2.981             38.741
 Rotational               0.889              2.981             25.605
 Vibrational             73.125             15.970             12.039
 Vibration     1          0.604              1.949              3.445
 Vibration     2          0.663              1.761              1.724
 Vibration     3          0.670              1.740              1.638
 Vibration     4          0.684              1.698              1.491
 Vibration     5          0.729              1.569              1.154
 Vibration     6          0.795              1.395              0.844
 Vibration     7          0.939              1.070              0.482

 Optimization completed.
    -- Stationary point found.
 Normal termination of Gaussian 09 at Thu Sep  8 15:08:24 2022.
