 Gaussian 09, Revision E.01,
 Gaussian 09:  ES64L-G09RevE.01 30-Nov-2015

 ----------------------------
 #P OPT Freq B3LYP/6-31G(d,p)
 ----------------------------

 --------
 Frag_730
 --------
 Symbolic Z-matrix:
 Charge =  0 Multiplicity = 1

 SCF Done:  E(RB3LYP) =  -211.319791363     A.U. after   13 cycles
 SCF Done:  E(RB3LYP) =  -211.319894837     A.U. after   10 cycles
 SCF Done:  E(RB3LYP) =  -211.319887557     A.U. after    9 cycles
 SCF Done:  E(RB3LYP) =  -211.319897311     A.U. after    9 cycles
 SCF Done:  E(RB3LYP) =  -211.319888704     A.U. after   10 cycles
 SCF Done:  E(RB3LYP) =  -211.319900231     A.U. after    9 cycles
 Optimization completed.
    -- Stationary point found.
 Normal termination of Gaussian 09 at Thu Sep  8 15:14:51 2022.

 ----------------------------------------------------------------------
 #P Geom=AllCheck Guess=TCheck SCRF=Check GenChk RB3LYP/6-31G(d,p) Freq
 ----------------------------------------------------------------------

 Structure from the checkpoint file:  "B3LYP6-31Gdp.Frag_730.chk"
 --------
 Frag_730
 --------
 Charge =  0 Multiplicity = 1

                         Standard orientation:
 ---------------------------------------------------------------------
 Center     Atomic      Atomic             Coordinates (Angstroms)
 Number     Number       Type             X           Y           Z
 ---------------------------------------------------------------------
      1          6           0       -2.222134    0.023677   -0.111317
      2          6           0       -1.040341   -0.024038    0.132143
      3          6           0        0.406274   -0.043240    0.395288
      4          6           0        1.072625    1.232870   -0.162860
      5          7           0        0.979624   -1.305194   -0.103883
      6          1           0       -3.267624    0.050360   -0.314555
      7          1           0        0.545859   -0.049406    1.485574
      8          1           0        0.950995    1.283373   -1.249715
      9          1           0        2.143767    1.226789    0.066989
     10          1           0        0.633094    2.136340    0.271284
     11          1           0        0.853444   -1.350842   -1.113554
     12          1           0        1.984557   -1.295876    0.061630
 ---------------------------------------------------------------------

 SCF Done:  E(RB3LYP) =  -211.319900231     A.U. after    1 cycles

 The electronic state is 1-A.
 Alpha  occ. eigenvalues --  -14.31779 -10.23937 -10.18410 -10.18149 -10.17576
 Alpha  occ. eigenvalues --   -0.89298  -0.76080  -0.71728  -0.63437  -0.53163
 Alpha  occ. eigenvalues --   -0.49945  -0.45404  -0.42668  -0.41923  -0.38342
 Alpha  occ. eigenvalues --   -0.36545  -0.26686  -0.26337  -0.23975
 Alpha virt. eigenvalues --    0.04445   0.05886   0.09630   0.12793   0.13155
 Alpha virt. eigenvalues --    0.14573   0.15837   0.17167   0.19177   0.23521
 Alpha virt. eigenvalues --    0.25317   0.27751   0.43682   0.47998   0.52633

 Mulliken charges:
               1
     1  C   -0.434181
     2  C    0.319333
     3  C   -0.082668
     4  C   -0.309191
     5  N   -0.575794
     6  H    0.152763
     7  H    0.129880
     8  H    0.110171
     9  H    0.097878
    10  H    0.115211
    11  H    0.240001
    12  H    0.236599
 Sum of Mulliken charges =  -0.00000

 Dipole moment (field-independent basis, Debye):
    X=              1.1464    Y=              1.0674    Z=             -0.6323  Tot=              1.6892
 Quadrupole moment (field-independent basis, Debye-Ang):
   XX=            -24.6730   YY=            -34.5063   ZZ=            -29.8484
   XY=             -0.7398   XZ=              0.6151   YZ=              1.6181

  Exact polarizability:  64.384  -1.429  37.685   4.082   1.389  35.004
 Approx polarizability:  96.076  -3.809  48.580  10.279   1.910  49.881

                      1                      2                      3
                      A                      A                      A
 Frequencies --    186.4474               216.5448               268.5366
 Red. masses --      3.2425                 1.8970                 1.0263
 Frc consts  --      0.0664                 0.0524                 0.0436
 IR Inten    --      1.4516                 9.9264                15.9274

                      4                      5                      6
                      A                      A                      A
 Frequencies --    307.6486               383.0316               540.9344
 Red. masses --      1.4704                 2.4744                 4.0601
 Frc consts  --      0.0820                 0.2139                 0.7000
 IR Inten    --     27.5541                 7.5610                 2.5175

                      7                      8                      9
                      A                      A                      A
 Frequencies --    562.7398               617.9436               645.5421
 Red. masses --      4.3463                 1.2074                 1.2255
 Frc consts  --      0.8109                 0.2716                 0.3009
 IR Inten    --      1.9121                46.5717                41.5812

                     10                     11                     12
                      A                      A                      A
 Frequencies --    792.3907               877.6720               944.2184
 Red. masses --      2.9694                 1.5534                 1.5403
 Frc consts  --      1.0985                 0.7050                 0.8091
 IR Inten    --      5.9995               160.8476                14.2617

                     13                     14                     15
                      A                      A                      A
 Frequencies --   1023.1016              1084.2068              1167.1467
 Red. masses --      1.6260                 2.7032                 1.4781
 Frc consts  --      1.0028                 1.8722                 1.1863
 IR Inten    --      5.6263                31.0550                10.7422

                     16                     17                     18
                      A                      A                      A
 Frequencies --   1223.2141              1342.7621              1411.7236
 Red. masses --      1.5977                 1.2717                 1.3805
 Frc consts  --      1.4084                 1.3509                 1.6210
 IR Inten    --      9.7972                10.9407                20.9669

                     19                     20                     21
                      A                      A                      A
 Frequencies --   1415.9771              1502.3828              1511.9064
 Red. masses --      1.2253                 1.0476                 1.0595
 Frc consts  --      1.4474                 1.3932                 1.4270
 IR Inten    --      1.9221                 2.0167                 2.7768

                     22                     23                     24
                      A                      A                      A
 Frequencies --   1660.1744              2239.2934              3023.8696
 Red. masses --      1.0880                 5.9508                 1.0835
 Frc consts  --      1.7669                17.5812                 5.8374
 IR Inten    --     22.5645                 0.2018                18.8149

                     25                     26                     27
                      A                      A                      A
 Frequencies --   3039.6127              3116.0403              3124.0330
 Red. masses --      1.0346                 1.1030                 1.1032
 Frc consts  --      5.6321                 6.3099                 6.3435
 IR Inten    --     22.0472                31.7096                28.2959

                     28                     29                     30
                      A                      A                      A
 Frequencies --   3474.6082              3489.8167              3565.9666
 Red. masses --      1.0489                 1.1608                 1.0929
 Frc consts  --      7.4607                 8.3294                 8.1879
 IR Inten    --      2.0815                56.2672                 0.1382

 - Thermochemistry -
 -------------------
 Temperature   298.150 Kelvin.  Pressure   1.00000 Atm.
 Atom     1 has atomic number  6 and mass  12.00000

 Molecular mass:    69.05785 amu.
 Principal axes and moments of inertia in atomic units:
                           1         2         3
     Eigenvalues --   218.84213 467.51495 629.78553
           X            0.99980   0.01996   0.00091
           Y           -0.01997   0.99977   0.00810
           Z           -0.00075  -0.00811   0.99997
 This molecule is an asymmetric top.
 Rotational symmetry number  1.
 Rotational temperatures (Kelvin)      0.39578     0.18526     0.13753
 Rotational constants (GHZ):           8.24677     3.86029     2.86564
 Zero-point vibrational energy     267721.2 (Joules/Mol)
                                   63.98690 (Kcal/Mol)
 Warning -- explicit consideration of   8 degrees of freedom as
           vibrations may cause significant error
 Vibrational temperatures:    268.26   311.56   386.36   442.64   551.10
          (Kelvin)            778.28   809.66   889.08   928.79  1140.07
                             1262.77  1358.52  1472.01  1559.93  1679.26
                             1759.93  1931.93  2031.15  2037.27  2161.59
                             2175.29  2388.62  3221.84  4350.67  4373.32
                             4483.28  4494.78  4999.18  5021.06  5130.62

 Zero-point correction=                           0.101970 (Hartree/Particle)
 Thermal correction to Energy=                    0.108097
 Thermal correction to Enthalpy=                  0.109041
 Thermal correction to Gibbs Free Energy=         0.073299
 Sum of electronic and zero-point Energies=           -211.217931
 Sum of electronic and thermal Energies=              -211.211803
 Sum of electronic and thermal Enthalpies=            -211.210859
 Sum of electronic and thermal Free Energies=         -211.246602

                     E (Thermal)             CV                S
                      KCal/Mol        Cal/Mol-Kelvin    Cal/Mol-Kelvin
 Total                   67.832             21.960             75.227
 Electronic               0.000              0.000              0.000
 Translational            0.889              2.981             38.614
 Rotational               0.889              2.981             25.669
 Vibrational             66.054             15.998             10.943
 Vibration     1          0.632              1.858              2.263
 Vibration     2          0.645              1.816              1.988
 Vibration     3          0.673              1.731              1.606
 Vibration     4          0.698              1.659              1.375
 Vibration     5          0.752              1.506              1.027
 Vibration     6          0.896              1.160              0.563
 Vibration     7          0.918              1.112              0.518
 Vibration     8          0.978              0.994              0.420

 Normal termination of Gaussian 09 at Thu Sep  8 15:15:00 2022.
