 Gaussian 09, Revision E.01,
 Gaussian 09:  ES64L-G09RevE.01 30-Nov-2015

 ----------------------------
 #P OPT Freq B3LYP/6-31G(d,p)
 ----------------------------

 --------
 Frag_931
 --------
 Symbolic Z-matrix:
 Charge =  0 Multiplicity = 1

 SCF Done:  E(RB3LYP) =  -242.368524258     A.U. after   13 cycles
 SCF Done:  E(RB3LYP) =  -242.368562127     A.U. after   10 cycles
 SCF Done:  E(RB3LYP) =  -242.368569092     A.U. after    9 cycles
 SCF Done:  E(RB3LYP) =  -242.368570841     A.U. after    8 cycles
 SCF Done:  E(RB3LYP) =  -242.368570442     A.U. after    8 cycles
 SCF Done:  E(RB3LYP) =  -242.368570024     A.U. after    8 cycles
 SCF Done:  E(RB3LYP) =  -242.368569695     A.U. after    8 cycles
 Optimization completed.
    -- Stationary point found.
 Normal termination of Gaussian 09 at Thu Sep  8 15:20:42 2022.

 ----------------------------------------------------------------------
 #P Geom=AllCheck Guess=TCheck SCRF=Check GenChk RB3LYP/6-31G(d,p) Freq
 ----------------------------------------------------------------------

 Structure from the checkpoint file:  "B3LYP6-31Gdp.Frag_931.chk"
 --------
 Frag_931
 --------
 Charge =  0 Multiplicity = 1

                         Standard orientation:
 ---------------------------------------------------------------------
 Center     Atomic      Atomic             Coordinates (Angstroms)
 Number     Number       Type             X           Y           Z
 ---------------------------------------------------------------------
      1          7           0        0.274826    1.292337    0.080137
      2          7           0        0.000079   -0.016853   -0.435387
      3          7           0       -1.189213   -0.613519    0.053927
      4          8           0        1.018797   -0.843108    0.149000
      5          1           0       -0.336289    1.933467   -0.421862
      6          1           0        0.038237    1.330422    1.079609
      7          1           0       -1.301794   -0.411400    1.054792
      8          1           0       -1.955583   -0.180909   -0.453680
      9          1           0        1.805209   -0.560470   -0.341597
 ---------------------------------------------------------------------

 SCF Done:  E(RB3LYP) =  -242.368569695     A.U. after    1 cycles

 The electronic state is 1-A.
 Alpha  occ. eigenvalues --  -19.16572 -14.43357 -14.35219 -14.35117  -1.08725
 Alpha  occ. eigenvalues --   -0.94049  -0.86484  -0.68665  -0.55072  -0.52488
 Alpha  occ. eigenvalues --   -0.47879  -0.46437  -0.41254  -0.31988  -0.31272
 Alpha  occ. eigenvalues --   -0.24300  -0.23272
 Alpha virt. eigenvalues --    0.05907   0.09856   0.11382   0.12134   0.14600
 Alpha virt. eigenvalues --    0.16820   0.17529   0.25756   0.60541   0.66257
 Alpha virt. eigenvalues --    0.67032   0.67580   0.68374   0.71055   0.73728

 Mulliken charges:
               1
     1  N   -0.412907
     2  N   -0.060065
     3  N   -0.388119
     4  O   -0.403221
     5  H    0.246761
     6  H    0.217476
     7  H    0.220132
     8  H    0.253401
     9  H    0.326543
 Sum of Mulliken charges =  -0.00000

 Dipole moment (field-independent basis, Debye):
    X=             -1.4131    Y=              2.3904    Z=              0.5892  Tot=              2.8387
 Quadrupole moment (field-independent basis, Debye-Ang):
   XX=            -19.2792   YY=            -26.5103   ZZ=            -23.2848
   XY=             -3.6467   XZ=             -1.5346   YZ=              0.4198

  Exact polarizability:  31.852  -1.038  28.794  -0.843  -0.468  24.649
 Approx polarizability:  42.014  -1.795  39.279  -0.696  -1.493  35.910

                      1                      2                      3
                      A                      A                      A
 Frequencies --    194.2379               232.3814               326.8057
 Red. masses --      1.0844                 1.0866                 1.2446
 Frc consts  --      0.0241                 0.0346                 0.0783
 IR Inten    --    116.6723                19.1165                78.1432

                      4                      5                      6
                      A                      A                      A
 Frequencies --    496.4762               536.8510               595.5724
 Red. masses --      2.5256                 3.8870                 2.7902
 Frc consts  --      0.3668                 0.6601                 0.5831
 IR Inten    --      3.5123                15.9624                16.8970

                      7                      8                      9
                      A                      A                      A
 Frequencies --    827.4208               841.4999               894.0286
 Red. masses --      5.0076                 1.8605                 3.5425
 Frc consts  --      2.0199                 0.7762                 1.6683
 IR Inten    --      4.9177               326.7889                26.1073

                     10                     11                     12
                      A                      A                      A
 Frequencies --   1059.5856              1161.6566              1258.9095
 Red. masses --      2.2445                 2.0822                 1.1122
 Frc consts  --      1.4847                 1.6555                 1.0385
 IR Inten    --      7.2612                81.5479                 2.4316

                     13                     14                     15
                      A                      A                      A
 Frequencies --   1364.1280              1426.8634              1624.6220
 Red. masses --      1.3093                 1.2883                 1.0860
 Frc consts  --      1.4355                 1.5454                 1.6889
 IR Inten    --     29.2133                30.2757                 1.6344

                     16                     17                     18
                      A                      A                      A
 Frequencies --   1662.1244              3352.7755              3364.7455
 Red. masses --      1.0904                 1.0532                 1.0570
 Frc consts  --      1.7749                 6.9756                 7.0510
 IR Inten    --     33.8663                27.8266                 8.2243

                     19                     20                     21
                      A                      A                      A
 Frequencies --   3547.9165              3574.6542              3792.0169
 Red. masses --      1.0860                 1.0846                 1.0667
 Frc consts  --      8.0546                 8.1652                 9.0374
 IR Inten    --      0.9222                 3.3522                36.0928

 - Thermochemistry -
 -------------------
 Temperature   298.150 Kelvin.  Pressure   1.00000 Atm.
 Atom     1 has atomic number  7 and mass  14.00307

 Molecular mass:    63.04326 amu.
 Principal axes and moments of inertia in atomic units:
                           1         2         3
     Eigenvalues --   183.29883 188.94268 330.10731
           X            0.78328  -0.62123  -0.02337
           Y            0.62158   0.78325   0.01256
           Z            0.01050  -0.02436   0.99965
 This molecule is an asymmetric top.
 Rotational symmetry number  1.
 Rotational temperatures (Kelvin)      0.47253     0.45841     0.26238
 Rotational constants (GHZ):           9.84590     9.55179     5.46713
 Zero-point vibrational energy     192211.6 (Joules/Mol)
                                   45.93968 (Kcal/Mol)
 Warning -- explicit consideration of   6 degrees of freedom as
           vibrations may cause significant error
 Vibrational temperatures:    279.46   334.34   470.20   714.32   772.41
          (Kelvin)            856.89  1190.47  1210.73  1286.31  1524.51
                             1671.36  1811.29  1962.67  2052.94  2337.47
                             2391.42  4823.89  4841.11  5104.65  5143.12
                             5455.86

 Zero-point correction=                           0.073210 (Hartree/Particle)
 Thermal correction to Energy=                    0.078375
 Thermal correction to Enthalpy=                  0.079319
 Thermal correction to Gibbs Free Energy=         0.046049
 Sum of electronic and zero-point Energies=           -242.295360
 Sum of electronic and thermal Energies=              -242.290195
 Sum of electronic and thermal Enthalpies=            -242.289251
 Sum of electronic and thermal Free Energies=         -242.322521

                     E (Thermal)             CV                S
                      KCal/Mol        Cal/Mol-Kelvin    Cal/Mol-Kelvin
 Total                   49.181             17.413             70.023
 Electronic               0.000              0.000              0.000
 Translational            0.889              2.981             38.343
 Rotational               0.889              2.981             23.951
 Vibrational             47.403             11.452              7.729
 Vibration     1          0.635              1.848              2.187
 Vibration     2          0.653              1.791              1.860
 Vibration     3          0.710              1.622              1.276
 Vibration     4          0.852              1.258              0.667
 Vibration     5          0.892              1.169              0.572
 Vibration     6          0.953              1.041              0.457

 Optimization completed.
    -- Stationary point found.
 Normal termination of Gaussian 09 at Thu Sep  8 15:20:48 2022.
