 Gaussian 09, Revision E.01,
 Gaussian 09:  ES64L-G09RevE.01 30-Nov-2015

 --------------------------------
 #P OPT=calcfc Freq B3LYP/6-31G**
 --------------------------------

 --------
 Frag_415
 --------
 Symbolic Z-matrix:
 Charge =  0 Multiplicity = 1

 SCF Done:  E(RB3LYP) =  -235.863741327     A.U. after   13 cycles
 SCF Done:  E(RB3LYP) =  -235.867336420     A.U. after   12 cycles
 SCF Done:  E(RB3LYP) =  -235.868972731     A.U. after   13 cycles
 SCF Done:  E(RB3LYP) =  -235.868558955     A.U. after   13 cycles
 SCF Done:  E(RB3LYP) =  -235.869232463     A.U. after    9 cycles
 SCF Done:  E(RB3LYP) =  -235.869479560     A.U. after   10 cycles
 SCF Done:  E(RB3LYP) =  -235.869510835     A.U. after    9 cycles
 SCF Done:  E(RB3LYP) =  -235.869551855     A.U. after   10 cycles
 SCF Done:  E(RB3LYP) =  -235.869563324     A.U. after    9 cycles
 SCF Done:  E(RB3LYP) =  -235.869577161     A.U. after    9 cycles
 SCF Done:  E(RB3LYP) =  -235.869581558     A.U. after    7 cycles
 SCF Done:  E(RB3LYP) =  -235.869584330     A.U. after    7 cycles
 SCF Done:  E(RB3LYP) =  -235.869584275     A.U. after    6 cycles
 SCF Done:  E(RB3LYP) =  -235.869584351     A.U. after    5 cycles
 Optimization completed.
    -- Stationary point found.
 Normal termination of Gaussian 09 at Sat Sep 25 22:29:44 2021.

 ----------------------------------------------------------------------
 #P Geom=AllCheck Guess=TCheck SCRF=Check GenChk RB3LYP/6-31G(d,p) Freq
 ----------------------------------------------------------------------

 Structure from the checkpoint file:  "/public/home/users/caep010/.cache/gau_scr/Gau-216402.chk"
 --------
 Frag_415
 --------
 Charge =  0 Multiplicity = 1

                         Standard orientation:
 ---------------------------------------------------------------------
 Center     Atomic      Atomic             Coordinates (Angstroms)
 Number     Number       Type             X           Y           Z
 ---------------------------------------------------------------------
      1          6           0        1.746951   -1.080067   -0.002618
      2          6           0        0.816049   -0.120222   -0.000325
      3          6           0        1.200531    1.340804    0.003245
      4          6           0       -0.666751   -0.471087   -0.001207
      5          6           0       -1.383514    0.035529   -1.267671
      6          6           0       -1.383454    0.028970    1.267900
      7          1           0        2.808647   -0.848089   -0.002014
      8          1           0        1.480222   -2.133668   -0.005188
      9          1           0        0.804238    1.861020    0.883435
     10          1           0        0.804489    1.865286   -0.874526
     11          1           0        2.286764    1.462320    0.003689
     12          1           0       -0.731641   -1.566829   -0.004027
     13          1           0       -2.422235   -0.311674   -1.284845
     14          1           0       -1.404239    1.130043   -1.309944
     15          1           0       -0.889431   -0.327834   -2.174244
     16          1           0       -1.404050    1.123246    1.315907
     17          1           0       -0.889411   -0.339193    2.172555
     18          1           0       -2.422218   -0.318192    1.283258
 ---------------------------------------------------------------------

 SCF Done:  E(RB3LYP) =  -235.869584351     A.U. after    1 cycles

 The electronic state is 1-A.
 Alpha  occ. eigenvalues --  -10.18905 -10.18732 -10.17695 -10.17278 -10.17277
 Alpha  occ. eigenvalues --  -10.16533  -0.81629  -0.74581  -0.67968  -0.67935
 Alpha  occ. eigenvalues --   -0.59545  -0.51340  -0.46145  -0.44694  -0.41930
 Alpha  occ. eigenvalues --   -0.41062  -0.39725  -0.38948  -0.37253  -0.35923
 Alpha  occ. eigenvalues --   -0.33708  -0.32391  -0.31385  -0.23912
 Alpha virt. eigenvalues --    0.03025   0.08605   0.12468   0.13436   0.13506
 Alpha virt. eigenvalues --    0.14701   0.16134   0.17619   0.18785   0.19022
 Alpha virt. eigenvalues --    0.19980   0.20950   0.22406   0.23543   0.24353

 Mulliken charges:
               1
     1  C   -0.295002
     2  C    0.188172
     3  C   -0.371331
     4  C   -0.108575
     5  C   -0.311122
     6  C   -0.311111
     7  H    0.084438
     8  H    0.085312
     9  H    0.114171
    10  H    0.114176
    11  H    0.107909
    12  H    0.087418
    13  H    0.100123
    14  H    0.101062
    15  H    0.106592
    16  H    0.101058
    17  H    0.106592
    18  H    0.100120
 Sum of Mulliken charges =  -0.00000

 Dipole moment (field-independent basis, Debye):
    X=             -0.3629    Y=              0.3230    Z=              0.0008  Tot=              0.4858
 Quadrupole moment (field-independent basis, Debye-Ang):
   XX=            -39.3645   YY=            -38.8662   ZZ=            -41.0167
   XY=              0.7039   XZ=              0.0018   YZ=              0.0052

  Exact polarizability:  74.038  -5.870  66.590  -0.014   0.034  52.108
 Approx polarizability:  98.782 -13.322  98.251  -0.032   0.069  69.652

                      1                      2                      3
                      A                      A                      A
 Frequencies --     47.5161               181.0331               213.5289
 Red. masses --      2.2583                 1.0996                 1.4364
 Frc consts  --      0.0030                 0.0212                 0.0386
 IR Inten    --      0.1219                 0.1984                 0.2739

                      4                      5                      6
                      A                      A                      A
 Frequencies --    252.7502               259.6116               279.2346
 Red. masses --      1.0353                 1.5298                 2.5408
 Frc consts  --      0.0390                 0.0607                 0.1167
 IR Inten    --      0.0923                 0.0222                 0.4398

                      7                      8                      9
                      A                      A                      A
 Frequencies --    331.3728               445.1790               526.7535
 Red. masses --      2.3069                 2.0962                 2.4475
 Frc consts  --      0.1492                 0.2448                 0.4001
 IR Inten    --      0.2415                 1.0416                 1.1036

                     10                     11                     12
                      A                      A                      A
 Frequencies --    555.9908               731.7483               744.9469
 Red. masses --      2.3254                 2.7290                 1.1018
 Frc consts  --      0.4235                 0.8609                 0.3603
 IR Inten    --      6.0480                 1.1941                 0.4334

                     13                     14                     15
                      A                      A                      A
 Frequencies --    900.3623               923.9973               933.5552
 Red. masses --      2.3310                 1.3075                 1.2114
 Frc consts  --      1.1134                 0.6577                 0.6221
 IR Inten    --      1.3985                28.9743                 8.2575

                     16                     17                     18
                      A                      A                      A
 Frequencies --    965.6654               968.4759              1016.4743
 Red. masses --      1.4654                 1.8099                 1.2662
 Frc consts  --      0.8051                 1.0002                 0.7708
 IR Inten    --      0.0116                 0.7741                 1.4864

                     19                     20                     21
                      A                      A                      A
 Frequencies --   1070.7390              1118.1211              1126.1451
 Red. masses --      1.5055                 1.4919                 2.2309
 Frc consts  --      1.0169                 1.0989                 1.6670
 IR Inten    --      1.1515                11.8186                 1.7574

                     22                     23                     24
                      A                      A                      A
 Frequencies --   1193.8859              1310.6545              1349.1534
 Red. masses --      1.9230                 2.7213                 1.3330
 Frc consts  --      1.6150                 2.7543                 1.4296
 IR Inten    --      2.6243                 0.6609                 3.2053

                     25                     26                     27
                      A                      A                      A
 Frequencies --   1351.9381              1408.1423              1425.1767
 Red. masses --      1.3703                 1.2331                 1.2746
 Frc consts  --      1.4756                 1.4406                 1.5253
 IR Inten    --      4.7897                 2.9061                 5.4592

                     28                     29                     30
                      A                      A                      A
 Frequencies --   1431.9644              1464.2990              1492.5438
 Red. masses --      1.2159                 1.1935                 1.0452
 Frc consts  --      1.4690                 1.5077                 1.3719
 IR Inten    --      1.6494                 0.6436                 6.8060

                     31                     32                     33
                      A                      A                      A
 Frequencies --   1503.0954              1508.7741              1512.5261
 Red. masses --      1.0431                 1.0527                 1.0490
 Frc consts  --      1.3885                 1.4119                 1.4140
 IR Inten    --      0.5658                 9.1835                 0.2032

                     34                     35                     36
                      A                      A                      A
 Frequencies --   1520.0779              1526.8563              1726.6015
 Red. masses --      1.0489                 1.0597                 5.0349
 Frc consts  --      1.4280                 1.4556                 8.8436
 IR Inten    --      6.1394                 5.2827                13.8595

                     37                     38                     39
                      A                      A                      A
 Frequencies --   3034.0668              3037.0421              3037.7250
 Red. masses --      1.0699                 1.0514                 1.0350
 Frc consts  --      5.8029                 5.7139                 5.6271
 IR Inten    --     24.6979                 1.2414                24.1813

                     40                     41                     42
                      A                      A                      A
 Frequencies --   3043.5679              3087.5568              3105.5268
 Red. masses --      1.0357                 1.0994                 1.1020
 Frc consts  --      5.6528                 6.1749                 6.2619
 IR Inten    --     32.2879                27.4004                 1.2512

                     43                     44                     45
                      A                      A                      A
 Frequencies --   3111.0352              3116.8182              3118.3834
 Red. masses --      1.1012                 1.1031                 1.1023
 Frc consts  --      6.2794                 6.3137                 6.3158
 IR Inten    --     79.2128                20.7421                30.0212

                     46                     47                     48
                      A                      A                      A
 Frequencies --   3126.9004              3145.3041              3226.6904
 Red. masses --      1.1008                 1.0607                 1.1156
 Frc consts  --      6.3412                 6.1827                 6.8436
 IR Inten    --     24.1186                11.5520                22.2936

 - Thermochemistry -
 -------------------
 Temperature   298.150 Kelvin.  Pressure   1.00000 Atm.
 Atom     1 has atomic number  6 and mass  12.00000

 Molecular mass:    84.09390 amu.
 Principal axes and moments of inertia in atomic units:
                           1         2         3
     Eigenvalues --   409.84715 729.42896 736.09192
           X            0.99995   0.00959   0.00004
           Y           -0.00959   0.99995   0.00172
           Z           -0.00002  -0.00172   1.00000
 This molecule is an asymmetric top.
 Rotational symmetry number  1.
 Rotational temperatures (Kelvin)      0.21133     0.11874     0.11767
 Rotational constants (GHZ):           4.40345     2.47418     2.45179
 Zero-point vibrational energy     433703.2 (Joules/Mol)
                                  103.65754 (Kcal/Mol)
 Warning -- explicit consideration of  10 degrees of freedom as
           vibrations may cause significant error
 Vibrational temperatures:     68.36   260.47   307.22   363.65   373.52
          (Kelvin)            401.76   476.77   640.51   757.88   799.95
                             1052.82  1071.81  1295.42  1329.42  1343.18
                             1389.38  1393.42  1462.48  1540.55  1608.72
                             1620.27  1717.73  1885.74  1941.13  1945.13
                             2026.00  2050.51  2060.27  2106.80  2147.43
                             2162.62  2170.79  2176.18  2187.05  2196.80
                             2484.19  4365.34  4369.62  4370.60  4379.01
                             4442.30  4468.15  4476.08  4484.40  4486.65
                             4498.91  4525.39  4642.48

 Zero-point correction=                           0.165189 (Hartree/Particle)
 Thermal correction to Energy=                    0.173078
 Thermal correction to Enthalpy=                  0.174022
 Thermal correction to Gibbs Free Energy=         0.133591
 Sum of electronic and zero-point Energies=           -235.704396
 Sum of electronic and thermal Energies=              -235.696507
 Sum of electronic and thermal Enthalpies=            -235.695563
 Sum of electronic and thermal Free Energies=         -235.735994

                     E (Thermal)             CV                S
                      KCal/Mol        Cal/Mol-Kelvin    Cal/Mol-Kelvin
 Total                  108.608             28.551             85.094
 Electronic               0.000              0.000              0.000
 Translational            0.889              2.981             39.202
 Rotational               0.889              2.981             26.889
 Vibrational            106.830             22.590             19.003
 Vibration     1          0.595              1.979              4.918
 Vibration     2          0.630              1.866              2.318
 Vibration     3          0.644              1.820              2.013
 Vibration     4          0.664              1.758              1.711
 Vibration     5          0.668              1.746              1.664
 Vibration     6          0.680              1.712              1.538
 Vibration     7          0.714              1.613              1.253
 Vibration     8          0.805              1.372              0.810
 Vibration     9          0.882              1.191              0.595
 Vibration    10          0.911              1.127              0.532

 Normal termination of Gaussian 09 at Sat Sep 25 22:29:59 2021.
