 Gaussian 09, Revision E.01,
 Gaussian 09:  ES64L-G09RevE.01 30-Nov-2015

 -------------------------
 #P OPT Freq B3LYP/6-31G**
 -------------------------

 --------
 Frag_131
 --------
 Symbolic Z-matrix:
 Charge =  0 Multiplicity = 1

 SCF Done:  E(RB3LYP) =  -94.6289386581     A.U. after   11 cycles
 SCF Done:  E(RB3LYP) =  -94.6332280462     A.U. after   11 cycles
 SCF Done:  E(RB3LYP) =  -94.6334550121     A.U. after   10 cycles
 SCF Done:  E(RB3LYP) =  -94.6334585154     A.U. after    7 cycles
 Optimization completed.
    -- Stationary point found.
 Normal termination of Gaussian 09 at Sat Aug 21 01:39:41 2021.

 ----------------------------------------------------------------------
 #P Geom=AllCheck Guess=TCheck SCRF=Check GenChk RB3LYP/6-31G(d,p) Freq
 ----------------------------------------------------------------------

 Structure from the checkpoint file:  "/public/home/users/caep010/.cache/gau_scr/Gau-61824.chk"
 --------
 Frag_131
 --------
 Charge =  0 Multiplicity = 1

                         Standard orientation:
 ---------------------------------------------------------------------
 Center     Atomic      Atomic             Coordinates (Angstroms)
 Number     Number       Type             X           Y           Z
 ---------------------------------------------------------------------
      1          6           0        0.586508    0.028568    0.000004
      2          7           0       -0.670500   -0.154038   -0.000000
      3          1           0        1.244391   -0.844843   -0.000011
      4          1           0        1.090623    1.004257   -0.000007
      5          1           0       -1.160564    0.747446   -0.000005
 ---------------------------------------------------------------------

 SCF Done:  E(RB3LYP) =  -94.6334585154     A.U. after    1 cycles

 The electronic state is 1-A.
 Alpha  occ. eigenvalues --  -14.33253 -10.23529  -0.90294  -0.62037  -0.49999
 Alpha  occ. eigenvalues --   -0.42585  -0.32986  -0.26757
 Alpha virt. eigenvalues --   -0.01058   0.09396   0.13178   0.18930   0.30452
 Alpha virt. eigenvalues --    0.53877   0.58538   0.62614   0.66433   0.72568
 Alpha virt. eigenvalues --    0.75946   0.80750   0.88541   0.90368   0.99386

 Mulliken charges:
               1
     1  C   -0.013958
     2  N   -0.425307
     3  H    0.113732
     4  H    0.091618
     5  H    0.233915
 Sum of Mulliken charges =  -0.00000

 Dipole moment (field-independent basis, Debye):
    X=              1.1434    Y=              1.5778    Z=             -0.0000  Tot=              1.9485
 Quadrupole moment (field-independent basis, Debye-Ang):
   XX=            -11.9576   YY=            -12.1010   ZZ=            -13.2425
   XY=             -2.0135   XZ=             -0.0000   YZ=             -0.0000

  Exact polarizability:  25.269  -0.817  17.276   0.000   0.000   8.103
 Approx polarizability:  39.749   0.755  22.067   0.000   0.000  10.907

                      1                      2                      3
                      A                      A                      A
 Frequencies --   1079.7160              1093.9591              1172.1068
 Red. masses --      1.0748                 1.3685                 1.0688
 Frc consts  --      0.7382                 0.9649                 0.8652
 IR Inten    --     36.3352                11.2257                48.1737

                      4                      5                      6
                      A                      A                      A
 Frequencies --   1380.1437              1507.5254              1731.5916
 Red. masses --      1.3958                 1.1939                 4.3089
 Frc consts  --      1.5665                 1.5987                 7.6122
 IR Inten    --     44.4724                 4.6860                23.9549

                      7                      8                      9
                      A                      A                      A
 Frequencies --   3029.9102              3132.8372              3424.2239
 Red. masses --      1.0616                 1.1090                 1.0758
 Frc consts  --      5.7422                 6.4128                 7.4318
 IR Inten    --     47.4937                41.5217                 5.4320

 - Thermochemistry -
 -------------------
 Temperature   298.150 Kelvin.  Pressure   1.00000 Atm.
 Atom     1 has atomic number  6 and mass  12.00000

 Molecular mass:    29.02655 amu.
 Principal axes and moments of inertia in atomic units:
                           1         2         3
     Eigenvalues --     9.14837  51.93862  61.08699
           X            0.99786  -0.06533  -0.00000
           Y            0.06533   0.99786  -0.00000
           Z            0.00000   0.00000   1.00000
 This molecule is an asymmetric top.
 Rotational symmetry number  1.
 Rotational temperatures (Kelvin)      9.46767     1.66762     1.41788
 Rotational constants (GHZ):         197.27453    34.74758    29.54379
 Zero-point vibrational energy     104984.4 (Joules/Mol)
                                   25.09186 (Kcal/Mol)
 Vibrational temperatures:   1553.47  1573.96  1686.40  1985.72  2168.99
          (Kelvin)           2491.37  4359.36  4507.45  4926.69

 Zero-point correction=                           0.039986 (Hartree/Particle)
 Thermal correction to Energy=                    0.042905
 Thermal correction to Enthalpy=                  0.043849
 Thermal correction to Gibbs Free Energy=         0.018070
 Sum of electronic and zero-point Energies=            -94.593472
 Sum of electronic and thermal Energies=               -94.590554
 Sum of electronic and thermal Enthalpies=             -94.589609
 Sum of electronic and thermal Free Energies=          -94.615389

                     E (Thermal)             CV                S
                      KCal/Mol        Cal/Mol-Kelvin    Cal/Mol-Kelvin
 Total                   26.923              6.988             54.257
 Electronic               0.000              0.000              0.000
 Translational            0.889              2.981             36.031
 Rotational               0.889              2.981             18.013
 Vibrational             25.146              1.026              0.213

 Optimization completed.
    -- Stationary point found.
 Normal termination of Gaussian 09 at Sat Aug 21 01:39:46 2021.
