 Gaussian 09, Revision E.01,
 Gaussian 09:  ES64L-G09RevE.01 30-Nov-2015

 -------------------------
 #P OPT Freq B3LYP/6-31G**
 -------------------------

 --------
 Frag_117
 --------
 Symbolic Z-matrix:
 Charge =  0 Multiplicity = 1

 SCF Done:  E(RB3LYP) =  -378.970365016     A.U. after   17 cycles
 SCF Done:  E(RB3LYP) =  -378.997772047     A.U. after   15 cycles
 SCF Done:  E(RB3LYP) =  -378.987242513     A.U. after   16 cycles
 SCF Done:  E(RB3LYP) =  -378.999679121     A.U. after   12 cycles
 SCF Done:  E(RB3LYP) =  -379.000524004     A.U. after   14 cycles
 SCF Done:  E(RB3LYP) =  -379.002499582     A.U. after   14 cycles
 SCF Done:  E(RB3LYP) =  -379.003620309     A.U. after   15 cycles
 SCF Done:  E(RB3LYP) =  -379.004357036     A.U. after   16 cycles
 SCF Done:  E(RB3LYP) =  -379.005069421     A.U. after   14 cycles
 SCF Done:  E(RB3LYP) =  -379.005380213     A.U. after   14 cycles
 SCF Done:  E(RB3LYP) =  -379.005617454     A.U. after   14 cycles
 SCF Done:  E(RB3LYP) =  -379.005677852     A.U. after   13 cycles
 SCF Done:  E(RB3LYP) =  -379.005748448     A.U. after   14 cycles
 SCF Done:  E(RB3LYP) =  -379.005763436     A.U. after   13 cycles
 SCF Done:  E(RB3LYP) =  -379.005769828     A.U. after   13 cycles
 SCF Done:  E(RB3LYP) =  -379.005770460     A.U. after    8 cycles
 SCF Done:  E(RB3LYP) =  -379.005770669     A.U. after    8 cycles
 SCF Done:  E(RB3LYP) =  -379.005770894     A.U. after    9 cycles
 SCF Done:  E(RB3LYP) =  -379.005771046     A.U. after    9 cycles
 Optimization completed.
    -- Stationary point found.
 Normal termination of Gaussian 09 at Sat Aug 21 01:35:54 2021.

 ----------------------------------------------------------------------
 #P Geom=AllCheck Guess=TCheck SCRF=Check GenChk RB3LYP/6-31G(d,p) Freq
 ----------------------------------------------------------------------

 Structure from the checkpoint file:  "/public/home/users/caep010/.cache/gau_scr/Gau-23378.chk"
 --------
 Frag_117
 --------
 Charge =  0 Multiplicity = 1

                         Standard orientation:
 ---------------------------------------------------------------------
 Center     Atomic      Atomic             Coordinates (Angstroms)
 Number     Number       Type             X           Y           Z
 ---------------------------------------------------------------------
      1          6           0       -0.916683   -0.506953   -1.398805
      2          6           0       -0.572751   -0.029889    0.023114
      3          6           0       -1.158551    1.340957    0.335683
      4          7           0       -0.893254   -0.963196    1.085962
      5          7           0        0.980252    0.062203    0.038879
      6          8           0        1.505979    1.163427   -0.063217
      7          8           0        1.580416   -1.007026    0.101760
      8          1           0       -2.002208   -0.612398   -1.486351
      9          1           0       -0.578688    0.207953   -2.155452
     10          1           0       -0.451352   -1.475832   -1.597011
     11          1           0       -0.848061    1.670143    1.328671
     12          1           0       -0.843751    2.081419   -0.399495
     13          1           0       -2.250992    1.270942    0.314699
     14          1           0       -1.901539   -1.023852    1.192347
     15          1           0       -0.535650   -1.887326    0.860413
 ---------------------------------------------------------------------

 SCF Done:  E(RB3LYP) =  -379.005771046     A.U. after    1 cycles

 The electronic state is 1-A.
 Alpha  occ. eigenvalues --  -19.18332 -19.18147 -14.56003 -14.33628 -10.28580
 Alpha  occ. eigenvalues --  -10.20227 -10.19521  -1.22133  -1.05179  -0.92580
 Alpha  occ. eigenvalues --   -0.79245  -0.71598  -0.69743  -0.57225  -0.54233
 Alpha  occ. eigenvalues --   -0.52921  -0.50986  -0.48229  -0.46746  -0.43276
 Alpha  occ. eigenvalues --   -0.41843  -0.40975  -0.39161  -0.37188  -0.30930
 Alpha  occ. eigenvalues --   -0.30044  -0.29139  -0.25909
 Alpha virt. eigenvalues --   -0.06066   0.06225   0.08919   0.12015   0.13559
 Alpha virt. eigenvalues --    0.14460   0.15234   0.16289   0.18126   0.19079
 Alpha virt. eigenvalues --    0.19613   0.22561   0.25660   0.29171   0.38036

 Mulliken charges:
               1
     1  C   -0.307165
     2  C    0.189379
     3  C   -0.301772
     4  N   -0.569661
     5  N    0.481688
     6  O   -0.376176
     7  O   -0.378360
     8  H    0.115480
     9  H    0.126418
    10  H    0.130355
    11  H    0.140338
    12  H    0.135265
    13  H    0.103578
    14  H    0.248660
    15  H    0.261972
 Sum of Mulliken charges =  -0.00000

 Dipole moment (field-independent basis, Debye):
    X=             -4.2194    Y=             -0.6438    Z=             -1.0412  Tot=              4.3934
 Quadrupole moment (field-independent basis, Debye-Ang):
   XX=            -43.4042   YY=            -41.3702   ZZ=            -42.4136
   XY=              0.9105   XZ=             -0.5001   YZ=              0.3773

  Exact polarizability:  54.420  -0.336  58.678  -0.877  -1.483  44.898
 Approx polarizability:  75.888  -1.039 105.525  -1.611  -5.623  61.427

                      1                      2                      3
                      A                      A                      A
 Frequencies --     36.4992               190.4767               233.4408
 Red. masses --      7.1812                 1.0470                 1.1227
 Frc consts  --      0.0056                 0.0224                 0.0360
 IR Inten    --      0.2508                31.0951                14.1471

                      4                      5                      6
                      A                      A                      A
 Frequencies --    259.7175               281.9169               306.5749
 Red. masses --      1.5313                 1.5923                 2.8923
 Frc consts  --      0.0609                 0.0746                 0.1602
 IR Inten    --      4.9629                 2.9924                 7.6762

                      7                      8                      9
                      A                      A                      A
 Frequencies --    364.5317               383.7819               419.6479
 Red. masses --      2.8893                 3.9818                 2.9430
 Frc consts  --      0.2262                 0.3455                 0.3054
 IR Inten    --      0.8162                 1.5685                 3.3479

                     10                     11                     12
                      A                      A                      A
 Frequencies --    538.1051               567.7245               743.6954
 Red. masses --      4.2147                 2.7839                 5.9418
 Frc consts  --      0.7190                 0.5287                 1.9362
 IR Inten    --      5.1757                15.4692                19.9887

                     13                     14                     15
                      A                      A                      A
 Frequencies --    797.5625               854.4692               890.2712
 Red. masses --      2.7677                 5.1024                 1.7449
 Frc consts  --      1.0373                 2.1949                 0.8148
 IR Inten    --     61.9245                61.0204                61.7522

                     16                     17                     18
                      A                      A                      A
 Frequencies --    942.6155               994.9803              1026.8213
 Red. masses --      1.4956                 1.6490                 1.3682
 Frc consts  --      0.7829                 0.9618                 0.8499
 IR Inten    --      0.1405                 1.3295                 4.3838

                     19                     20                     21
                      A                      A                      A
 Frequencies --   1101.5074              1202.0888              1282.3048
 Red. masses --      1.4643                 2.5096                 2.6991
 Frc consts  --      1.0467                 2.1366                 2.6149
 IR Inten    --      7.5136                33.6643                36.5050

                     22                     23                     24
                      A                      A                      A
 Frequencies --   1352.6947              1405.3044              1421.4985
 Red. masses --      1.9062                 1.6495                 1.8160
 Frc consts  --      2.0550                 1.9194                 2.1620
 IR Inten    --     15.6554                23.5127                26.8652

                     25                     26                     27
                      A                      A                      A
 Frequencies --   1446.3329              1490.2045              1494.5903
 Red. masses --      2.0136                 1.0536                 1.0486
 Frc consts  --      2.4818                 1.3785                 1.3801
 IR Inten    --     54.4172                 0.7495                 1.6452

                     28                     29                     30
                      A                      A                      A
 Frequencies --   1509.0796              1522.4969              1633.4660
 Red. masses --      1.0638                 1.0667                 1.4042
 Frc consts  --      1.4273                 1.4568                 2.2075
 IR Inten    --      5.1897                11.3101               171.1803

                     31                     32                     33
                      A                      A                      A
 Frequencies --   1673.7163              3051.6903              3065.7305
 Red. masses --      3.7607                 1.0348                 1.0412
 Frc consts  --      6.2071                 5.6777                 5.7656
 IR Inten    --    118.1931                 9.3012                13.1815

                     34                     35                     36
                      A                      A                      A
 Frequencies --   3128.0079              3143.0079              3143.8447
 Red. masses --      1.1030                 1.1035                 1.0967
 Frc consts  --      6.3587                 6.4225                 6.3864
 IR Inten    --     12.6449                10.7841                13.4236

                     37                     38                     39
                      A                      A                      A
 Frequencies --   3176.7430              3513.4578              3608.3998
 Red. masses --      1.1040                 1.0487                 1.0942
 Frc consts  --      6.5643                 7.6274                 8.3942
 IR Inten    --      7.6813                 2.6481                 4.4115

 - Thermochemistry -
 -------------------
 Temperature   298.150 Kelvin.  Pressure   1.00000 Atm.
 Atom     1 has atomic number  6 and mass  12.00000

 Molecular mass:   104.05858 amu.
 Principal axes and moments of inertia in atomic units:
                           1         2         3
     Eigenvalues --   524.51811 715.74357 846.19980
           X            0.99964  -0.02535   0.00916
           Y            0.02489   0.99856   0.04747
           Z           -0.01035  -0.04723   0.99883
 This molecule is an asymmetric top.
 Rotational symmetry number  1.
 Warning -- assumption of classical behavior for rotation
           may cause significant error
 Rotational temperatures (Kelvin)      0.16513     0.12101     0.10236
 Rotational constants (GHZ):           3.44076     2.52149     2.13276
 Zero-point vibrational energy     324182.0 (Joules/Mol)
                                   77.48136 (Kcal/Mol)
 Warning -- explicit consideration of  11 degrees of freedom as
           vibrations may cause significant error
 Vibrational temperatures:     52.51   274.05   335.87   373.68   405.61
          (Kelvin)            441.09   524.48   552.18   603.78   774.21
                              816.83  1070.01  1147.51  1229.39  1280.90
                             1356.21  1431.55  1477.36  1584.82  1729.54
                             1844.95  1946.22  2021.92  2045.22  2080.95
                             2144.07  2150.38  2171.23  2190.53  2350.19
                             2408.10  4390.70  4410.90  4500.50  4522.08
                             4523.29  4570.62  5055.08  5191.68

 Zero-point correction=                           0.123474 (Hartree/Particle)
 Thermal correction to Energy=                    0.131442
 Thermal correction to Enthalpy=                  0.132386
 Thermal correction to Gibbs Free Energy=         0.091235
 Sum of electronic and zero-point Energies=           -378.882297
 Sum of electronic and thermal Energies=              -378.874329
 Sum of electronic and thermal Enthalpies=            -378.873385
 Sum of electronic and thermal Free Energies=         -378.914536

                     E (Thermal)             CV                S
                      KCal/Mol        Cal/Mol-Kelvin    Cal/Mol-Kelvin
 Total                   82.481             28.542             86.610
 Electronic               0.000              0.000              0.000
 Translational            0.889              2.981             39.837
 Rotational               0.889              2.981             27.254
 Vibrational             80.704             22.580             19.520
 Vibration     1          0.594              1.982              5.441
 Vibration     2          0.634              1.853              2.223
 Vibration     3          0.654              1.790              1.852
 Vibration     4          0.668              1.746              1.664
 Vibration     5          0.681              1.707              1.522
 Vibration     6          0.697              1.661              1.381
 Vibration     7          0.738              1.545              1.103
 Vibration     8          0.753              1.505              1.024
 Vibration     9          0.782              1.428              0.893
 Vibration    10          0.893              1.166              0.569
 Vibration    11          0.924              1.101              0.509

 Optimization completed.
    -- Stationary point found.
 Normal termination of Gaussian 09 at Sat Aug 21 01:36:08 2021.
