 Gaussian 09, Revision E.01,
 Gaussian 09:  ES64L-G09RevE.01 30-Nov-2015

 --------------------------------
 #P OPT=calcfc Freq B3LYP/6-31G**
 --------------------------------

 --------
 Frag_406
 --------
 Symbolic Z-matrix:
 Charge =  0 Multiplicity = 1

 SCF Done:  E(RB3LYP) =  -260.596903580     A.U. after   15 cycles
 SCF Done:  E(RB3LYP) =  -260.613262185     A.U. after   14 cycles
 SCF Done:  E(RB3LYP) =  -260.615506104     A.U. after   15 cycles
 SCF Done:  E(RB3LYP) =  -260.616007207     A.U. after   13 cycles
 SCF Done:  E(RB3LYP) =  -260.616274139     A.U. after   14 cycles
 SCF Done:  E(RB3LYP) =  -260.601777229     A.U. after   14 cycles
 SCF Done:  E(RB3LYP) =  -260.616548147     A.U. after   10 cycles
 SCF Done:  E(RB3LYP) =  -260.617471976     A.U. after   12 cycles
 SCF Done:  E(RB3LYP) =  -260.617672729     A.U. after   12 cycles
 SCF Done:  E(RB3LYP) =  -260.617795695     A.U. after   12 cycles
 SCF Done:  E(RB3LYP) =  -260.617857225     A.U. after   11 cycles
 SCF Done:  E(RB3LYP) =  -260.617871148     A.U. after   10 cycles
 SCF Done:  E(RB3LYP) =  -260.617873825     A.U. after    9 cycles
 SCF Done:  E(RB3LYP) =  -260.617875616     A.U. after    8 cycles
 SCF Done:  E(RB3LYP) =  -260.617876589     A.U. after    9 cycles
 Optimization completed.
    -- Stationary point found.
 Normal termination of Gaussian 09 at Fri Sep 10 19:31:20 2021.

 ----------------------------------------------------------------------
 #P Geom=AllCheck Guess=TCheck SCRF=Check GenChk RB3LYP/6-31G(d,p) Freq
 ----------------------------------------------------------------------

 Structure from the checkpoint file:  "/public/home/users/caep010/.cache/gau_scr/Gau-2301.chk"
 --------
 Frag_406
 --------
 Charge =  0 Multiplicity = 1

                         Standard orientation:
 ---------------------------------------------------------------------
 Center     Atomic      Atomic             Coordinates (Angstroms)
 Number     Number       Type             X           Y           Z
 ---------------------------------------------------------------------
      1          6           0       -0.383146    1.384824   -0.026132
      2          7           0       -0.354079   -0.056690    0.217532
      3          7           0       -1.501071   -0.813216   -0.068339
      4          7           0        0.785235   -0.792942    0.038204
      5          7           0        1.893955   -0.225737   -0.069382
      6          1           0       -1.390469    1.736327    0.196616
      7          1           0       -0.133001    1.642417   -1.067334
      8          1           0        0.305391    1.912893    0.641077
      9          1           0       -1.851134   -0.601514   -1.003259
     10          1           0       -2.220400   -0.589565    0.612900
     11          1           0        1.820210    0.810593   -0.049314
 ---------------------------------------------------------------------

 SCF Done:  E(RB3LYP) =  -260.617876589     A.U. after    1 cycles

 The electronic state is 1-A.
 Alpha  occ. eigenvalues --  -14.41341 -14.40732 -14.36709 -14.34742 -10.24062
 Alpha  occ. eigenvalues --   -1.06935  -0.96370  -0.81213  -0.74514  -0.60259
 Alpha  occ. eigenvalues --   -0.55340  -0.52812  -0.51819  -0.45341  -0.43150
 Alpha  occ. eigenvalues --   -0.38927  -0.34458  -0.28057  -0.24817  -0.23937
 Alpha virt. eigenvalues --   -0.01139   0.05868   0.09401   0.11243   0.13379
 Alpha virt. eigenvalues --    0.13591   0.16224   0.18119   0.23154   0.26841
 Alpha virt. eigenvalues --    0.40084   0.49631   0.53324   0.57374   0.64230

 Mulliken charges:
               1
     1  C   -0.204390
     2  N   -0.190520
     3  N   -0.412138
     4  N    0.007666
     5  N   -0.306780
     6  H    0.126960
     7  H    0.126051
     8  H    0.138854
     9  H    0.250693
    10  H    0.262597
    11  H    0.201007
 Sum of Mulliken charges =   0.00000

 Dipole moment (field-independent basis, Debye):
    X=             -3.6224    Y=              3.9511    Z=             -0.3978  Tot=              5.3751
 Quadrupole moment (field-independent basis, Debye-Ang):
   XX=            -30.5122   YY=            -32.5537   ZZ=            -29.2764
   XY=              2.4101   XZ=              0.6535   YZ=              0.2532

  Exact polarizability:  55.842   1.511  38.653  -0.565   0.236  27.986
 Approx polarizability:  89.118   3.578  55.060  -3.696   0.152  40.420

                      1                      2                      3
                      A                      A                      A
 Frequencies --    147.5728               192.7520               261.3309
 Red. masses --      1.3044                 2.2708                 2.3854
 Frc consts  --      0.0167                 0.0497                 0.0960
 IR Inten    --     10.1212                12.3478                21.9307

                      4                      5                      6
                      A                      A                      A
 Frequencies --    354.2436               392.9294               469.8933
 Red. masses --      1.2680                 2.6919                 2.6811
 Frc consts  --      0.0937                 0.2449                 0.3488
 IR Inten    --     15.9601                 1.6279                 4.5298

                      7                      8                      9
                      A                      A                      A
 Frequencies --    658.6147               792.4139               829.4532
 Red. masses --      3.7480                 4.8573                 1.6842
 Frc consts  --      0.9579                 1.7970                 0.6827
 IR Inten    --      6.9130                22.1782               117.5799

                     10                     11                     12
                      A                      A                      A
 Frequencies --    949.5886              1045.4913              1107.8741
 Red. masses --      1.4674                 1.6254                 1.4369
 Frc consts  --      0.7796                 1.0468                 1.0391
 IR Inten    --     61.8326                50.5364                17.1935

                     13                     14                     15
                      A                      A                      A
 Frequencies --   1190.2271              1305.8041              1322.9789
 Red. masses --      3.8241                 2.9037                 1.1983
 Frc consts  --      3.1918                 2.9171                 1.2357
 IR Inten    --     16.5688                 8.7280                18.2031

                     16                     17                     18
                      A                      A                      A
 Frequencies --   1436.4084              1446.9885              1495.1822
 Red. masses --      1.2161                 1.3059                 1.0469
 Frc consts  --      1.4784                 1.6110                 1.3789
 IR Inten    --     22.6502                90.8268                 6.5480

                     19                     20                     21
                      A                      A                      A
 Frequencies --   1519.2257              1607.7241              1692.4047
 Red. masses --      1.0618                 8.1637                 1.0852
 Frc consts  --      1.4439                12.4325                 1.8314
 IR Inten    --     11.4688                93.6229                16.2738

                     22                     23                     24
                      A                      A                      A
 Frequencies --   2998.4903              3090.2716              3158.0594
 Red. masses --      1.0496                 1.0904                 1.0983
 Frc consts  --      5.5603                 6.1350                 6.4538
 IR Inten    --     31.1345                19.8528                 6.8848

                     25                     26                     27
                      A                      A                      A
 Frequencies --   3213.8151              3443.2733              3568.3892
 Red. masses --      1.0685                 1.0505                 1.0925
 Frc consts  --      6.5026                 7.3384                 8.1964
 IR Inten    --     46.0538                 8.2831                 1.2006

 - Thermochemistry -
 -------------------
 Temperature   298.150 Kelvin.  Pressure   1.00000 Atm.
 Atom     1 has atomic number  6 and mass  12.00000

 Molecular mass:    74.05925 amu.
 Principal axes and moments of inertia in atomic units:
                           1         2         3
     Eigenvalues --   200.34666 398.01762 571.13550
           X            0.99957   0.02906   0.00480
           Y           -0.02905   0.99958  -0.00040
           Z           -0.00480   0.00026   0.99999
 This molecule is an asymmetric top.
 Rotational symmetry number  1.
 Rotational temperatures (Kelvin)      0.43232     0.21761     0.15165
 Rotational constants (GHZ):           9.00809     4.53432     3.15992
 Zero-point vibrational energy     237407.3 (Joules/Mol)
                                   56.74171 (Kcal/Mol)
 Warning -- explicit consideration of   6 degrees of freedom as
           vibrations may cause significant error
 Vibrational temperatures:    212.32   277.33   376.00   509.68   565.34
          (Kelvin)            676.07   947.60  1140.11  1193.40  1366.24
                             1504.23  1593.98  1712.47  1878.76  1903.47
                             2066.67  2081.89  2151.23  2185.82  2313.15
                             2434.99  4314.15  4446.21  4543.74  4623.96
                             4954.10  5134.11

 Zero-point correction=                           0.090424 (Hartree/Particle)
 Thermal correction to Energy=                    0.096314
 Thermal correction to Enthalpy=                  0.097258
 Thermal correction to Gibbs Free Energy=         0.061743
 Sum of electronic and zero-point Energies=           -260.527453
 Sum of electronic and thermal Energies=              -260.521562
 Sum of electronic and thermal Enthalpies=            -260.520618
 Sum of electronic and thermal Free Energies=         -260.556134

                     E (Thermal)             CV                S
                      KCal/Mol        Cal/Mol-Kelvin    Cal/Mol-Kelvin
 Total                   60.438             19.958             74.749
 Electronic               0.000              0.000              0.000
 Translational            0.889              2.981             38.823
 Rotational               0.889              2.981             25.324
 Vibrational             58.661             13.997             10.602
 Vibration     1          0.617              1.905              2.703
 Vibration     2          0.635              1.850              2.201
 Vibration     3          0.669              1.744              1.653
 Vibration     4          0.730              1.567              1.147
 Vibration     5          0.760              1.485              0.989
 Vibration     6          0.827              1.317              0.738

 Optimization completed.
    -- Stationary point found.
 Normal termination of Gaussian 09 at Fri Sep 10 19:31:28 2021.
