 Gaussian 09, Revision E.01,
 Gaussian 09:  ES64L-G09RevE.01 30-Nov-2015

 ----------------------------
 #P OPT Freq B3LYP/6-31G(d,p)
 ----------------------------

 --------
 Frag_843
 --------
 Symbolic Z-matrix:
 Charge =  0 Multiplicity = 1

 SCF Done:  E(RB3LYP) =  -248.438799126     A.U. after   14 cycles
 SCF Done:  E(RB3LYP) =  -248.438866128     A.U. after    9 cycles
 SCF Done:  E(RB3LYP) =  -248.438874250     A.U. after    8 cycles
 SCF Done:  E(RB3LYP) =  -248.438876454     A.U. after    8 cycles
 SCF Done:  E(RB3LYP) =  -248.438876807     A.U. after    8 cycles
 SCF Done:  E(RB3LYP) =  -248.438876928     A.U. after    7 cycles
 SCF Done:  E(RB3LYP) =  -248.438876977     A.U. after    6 cycles
 Optimization completed.
    -- Stationary point found.
 Normal termination of Gaussian 09 at Thu Sep  8 14:56:10 2022.

 ----------------------------------------------------------------------
 #P Geom=AllCheck Guess=TCheck SCRF=Check GenChk RB3LYP/6-31G(d,p) Freq
 ----------------------------------------------------------------------

 Structure from the checkpoint file:  "B3LYP6-31Gdp.Frag_843.chk"
 --------
 Frag_843
 --------
 Charge =  0 Multiplicity = 1

                         Standard orientation:
 ---------------------------------------------------------------------
 Center     Atomic      Atomic             Coordinates (Angstroms)
 Number     Number       Type             X           Y           Z
 ---------------------------------------------------------------------
      1          6           0       -0.371043    1.472717   -0.005606
      2          6           0       -0.464227    0.138905    0.014266
      3          6           0       -1.765177   -0.620964   -0.007154
      4          7           0        0.646578   -0.730894    0.146225
      5          8           0        1.892359   -0.098217   -0.145284
      6          1           0       -1.267226    2.080624   -0.026465
      7          1           0        0.589517    1.970485   -0.002521
      8          1           0       -1.830718   -1.275151   -0.887099
      9          1           0       -2.610660    0.068066   -0.038092
     10          1           0       -1.865903   -1.258532    0.878512
     11          1           0        0.579172   -1.512025   -0.505321
     12          1           0        2.343586   -0.115418    0.710644
 ---------------------------------------------------------------------

 SCF Done:  E(RB3LYP) =  -248.438876977     A.U. after    1 cycles

 The electronic state is 1-A.
 Alpha  occ. eigenvalues --  -19.17816 -14.38418 -10.21532 -10.18754 -10.15431
 Alpha  occ. eigenvalues --   -1.06504  -0.85940  -0.74117  -0.68491  -0.55849
 Alpha  occ. eigenvalues --   -0.51498  -0.47471  -0.45250  -0.41691  -0.40291
 Alpha  occ. eigenvalues --   -0.39024  -0.35411  -0.30452  -0.28790  -0.20804
 Alpha virt. eigenvalues --    0.04163   0.07440   0.08821   0.13486   0.13806
 Alpha virt. eigenvalues --    0.15114   0.18153   0.18889   0.20922   0.24807
 Alpha virt. eigenvalues --    0.32708   0.37272   0.52376   0.53347   0.56137

 Mulliken charges:
               1
     1  C   -0.297287
     2  C    0.302266
     3  C   -0.377636
     4  N   -0.328100
     5  O   -0.439137
     6  H    0.081612
     7  H    0.097507
     8  H    0.110851
     9  H    0.123941
    10  H    0.127895
    11  H    0.264175
    12  H    0.333912
 Sum of Mulliken charges =  -0.00000

 Dipole moment (field-independent basis, Debye):
    X=             -0.2669    Y=             -1.1904    Z=              0.4598  Tot=              1.3037
 Quadrupole moment (field-independent basis, Debye-Ang):
   XX=            -27.5365   YY=            -29.4204   ZZ=            -31.6499
   XY=              0.0370   XZ=              3.0911   YZ=              1.5332

  Exact polarizability:  49.107   0.722  54.546   1.741   0.698  27.096
 Approx polarizability:  62.126   0.757  85.031   1.997   0.058  38.552

                      1                      2                      3
                      A                      A                      A
 Frequencies --    144.6518               172.8651               296.8336
 Red. masses --      1.6864                 1.4764                 3.9329
 Frc consts  --      0.0208                 0.0260                 0.2042
 IR Inten    --      0.2010                 0.2836                 2.0458

                      4                      5                      6
                      A                      A                      A
 Frequencies --    316.5769               399.6242               499.0119
 Red. masses --      1.1325                 2.3680                 2.2060
 Frc consts  --      0.0669                 0.2228                 0.3236
 IR Inten    --     76.7691                 0.8753                21.8440

                      7                      8                      9
                      A                      A                      A
 Frequencies --    555.8157               706.2726               787.8811
 Red. masses --      3.2802                 1.1954                 1.7881
 Frc consts  --      0.5971                 0.3513                 0.6540
 IR Inten    --      5.6291                97.1544                64.2965

                     10                     11                     12
                      A                      A                      A
 Frequencies --    851.0225               902.7115               997.3327
 Red. masses --      1.3724                 2.0954                 1.5174
 Frc consts  --      0.5856                 1.0061                 0.8893
 IR Inten    --     56.5397                14.0777                20.3228

                     13                     14                     15
                      A                      A                      A
 Frequencies --   1017.5798              1061.9085              1082.7199
 Red. masses --      2.0655                 2.2921                 1.6624
 Frc consts  --      1.2601                 1.5229                 1.1482
 IR Inten    --      8.9114                18.7306                15.7502

                     16                     17                     18
                      A                      A                      A
 Frequencies --   1296.7368              1379.8554              1419.5506
 Red. masses --      2.3122                 1.2729                 1.2783
 Frc consts  --      2.2908                 1.4279                 1.5177
 IR Inten    --     10.7642                72.1320                 9.5717

                     19                     20                     21
                      A                      A                      A
 Frequencies --   1443.2041              1481.2606              1496.3369
 Red. masses --      1.2213                 1.1001                 1.0709
 Frc consts  --      1.4987                 1.4221                 1.4128
 IR Inten    --      0.1095                10.0134                14.7135

                     22                     23                     24
                      A                      A                      A
 Frequencies --   1509.4761              1744.1351              3029.2228
 Red. masses --      1.0670                 5.3741                 1.0435
 Frc consts  --      1.4324                 9.6319                 5.6419
 IR Inten    --      1.9690                53.4630                30.9885

                     25                     26                     27
                      A                      A                      A
 Frequencies --   3085.7882              3150.3774              3189.3177
 Red. masses --      1.0957                 1.0988                 1.0596
 Frc consts  --      6.1472                 6.4251                 6.3503
 IR Inten    --     22.0893                12.4538                 1.9284

                     28                     29                     30
                      A                      A                      A
 Frequencies --   3282.9365              3482.3045              3790.8932
 Red. masses --      1.1165                 1.0755                 1.0683
 Frc consts  --      7.0897                 7.6843                 9.0457
 IR Inten    --      6.6117                 1.7321                34.7505

 - Thermochemistry -
 -------------------
 Temperature   298.150 Kelvin.  Pressure   1.00000 Atm.
 Atom     1 has atomic number  6 and mass  12.00000

 Molecular mass:    73.05276 amu.
 Principal axes and moments of inertia in atomic units:
                           1         2         3
     Eigenvalues --   197.36777 461.21930 637.49462
           X            0.99961   0.02507   0.01213
           Y           -0.02523   0.99959   0.01342
           Z           -0.01178  -0.01372   0.99984
 This molecule is an asymmetric top.
 Rotational symmetry number  1.
 Rotational temperatures (Kelvin)      0.43884     0.18779     0.13587
 Rotational constants (GHZ):           9.14405     3.91298     2.83099
 Zero-point vibrational energy     266612.9 (Joules/Mol)
                                   63.72202 (Kcal/Mol)
 Warning -- explicit consideration of   7 degrees of freedom as
           vibrations may cause significant error
 Vibrational temperatures:    208.12   248.71   427.08   455.48   574.97
          (Kelvin)            717.97   799.69  1016.17  1133.58  1224.43
                             1298.80  1434.94  1464.07  1527.85  1557.79
                             1865.71  1985.30  2042.41  2076.45  2131.20
                             2152.89  2171.80  2509.42  4358.37  4439.76
                             4532.68  4588.71  4723.41  5010.25  5454.24

 Zero-point correction=                           0.101548 (Hartree/Particle)
 Thermal correction to Energy=                    0.107669
 Thermal correction to Enthalpy=                  0.108613
 Thermal correction to Gibbs Free Energy=         0.072657
 Sum of electronic and zero-point Energies=           -248.337329
 Sum of electronic and thermal Energies=              -248.331208
 Sum of electronic and thermal Enthalpies=            -248.330264
 Sum of electronic and thermal Free Energies=         -248.366220

                     E (Thermal)             CV                S
                      KCal/Mol        Cal/Mol-Kelvin    Cal/Mol-Kelvin
 Total                   67.563             21.534             75.676
 Electronic               0.000              0.000              0.000
 Translational            0.889              2.981             38.782
 Rotational               0.889              2.981             25.565
 Vibrational             65.786             15.572             11.329
 Vibration     1          0.616              1.908              2.741
 Vibration     2          0.626              1.876              2.404
 Vibration     3          0.690              1.680              1.435
 Vibration     4          0.703              1.642              1.328
 Vibration     5          0.766              1.471              0.964
 Vibration     6          0.854              1.252              0.661
 Vibration     7          0.911              1.127              0.532

 Normal termination of Gaussian 09 at Thu Sep  8 14:56:18 2022.
