 Gaussian 09, Revision E.01,
 Gaussian 09:  ES64L-G09RevE.01 30-Nov-2015

 ----------------------------
 #P OPT Freq B3LYP/6-31G(d,p)
 ----------------------------

 --------
 Frag_690
 --------
 Symbolic Z-matrix:
 Charge =  0 Multiplicity = 1

 SCF Done:  E(RB3LYP) =  -190.431525295     A.U. after   13 cycles
 SCF Done:  E(RB3LYP) =  -190.431558682     A.U. after    9 cycles
 SCF Done:  E(RB3LYP) =  -190.431560656     A.U. after    8 cycles
 Optimization completed.
    -- Stationary point found.
 Normal termination of Gaussian 09 at Thu Sep  8 15:14:21 2022.

 ----------------------------------------------------------------------
 #P Geom=AllCheck Guess=TCheck SCRF=Check GenChk RB3LYP/6-31G(d,p) Freq
 ----------------------------------------------------------------------

 Structure from the checkpoint file:  "B3LYP6-31Gdp.Frag_690.chk"
 --------
 Frag_690
 --------
 Charge =  0 Multiplicity = 1

                         Standard orientation:
 ---------------------------------------------------------------------
 Center     Atomic      Atomic             Coordinates (Angstroms)
 Number     Number       Type             X           Y           Z
 ---------------------------------------------------------------------
      1          6           0        1.895858   -0.130465    0.000000
      2          6           0        0.485876    0.454549   -0.000000
      3          7           0       -0.470698   -0.615474   -0.000000
      4          7           0       -1.740665    0.041762    0.000000
      5          1           0        2.655247    0.657961   -0.000000
      6          1           0        2.043430   -0.757892    0.884185
      7          1           0        2.043430   -0.757892   -0.884184
      8          1           0        0.385176    1.140676    0.884690
      9          1           0        0.385176    1.140675   -0.884691
     10          1           0       -2.463254   -0.679043   -0.000001
     11          1           0       -1.930035    0.663499    0.825137
     12          1           0       -1.930035    0.663500   -0.825137
 ---------------------------------------------------------------------

 SCF Done:  E(RB3LYP) =  -190.431560656     A.U. after    1 cycles

 The electronic state is 1-A.
 Alpha  occ. eigenvalues --  -14.45633 -14.25197 -10.17477 -10.14668  -0.99668
 Alpha  occ. eigenvalues --   -0.78546  -0.68097  -0.58552  -0.54734  -0.53631
 Alpha  occ. eigenvalues --   -0.45260  -0.41042  -0.34782  -0.33138  -0.31788
 Alpha  occ. eigenvalues --   -0.23180  -0.14272
 Alpha virt. eigenvalues --    0.02751   0.09583   0.10201   0.12784   0.17301
 Alpha virt. eigenvalues --    0.18418   0.19594   0.22169   0.22480   0.26110
 Alpha virt. eigenvalues --    0.29564   0.53402   0.57793   0.59217   0.61331

 Mulliken charges:
               1
     1  C   -0.310471
     2  C    0.008807
     3  N   -0.492826
     4  N   -0.365218
     5  H    0.081798
     6  H    0.107098
     7  H    0.107098
     8  H    0.018406
     9  H    0.018406
    10  H    0.318574
    11  H    0.254163
    12  H    0.254163
 Sum of Mulliken charges =  -0.00000

 Dipole moment (field-independent basis, Debye):
    X=             -4.1711    Y=              1.9729    Z=              0.0000  Tot=              4.6142
 Quadrupole moment (field-independent basis, Debye-Ang):
   XX=            -15.8037   YY=            -28.8970   ZZ=            -27.1053
   XY=             -1.0737   XZ=              0.0000   YZ=              0.0000

  Exact polarizability:  53.920  -2.686  38.920  -0.000  -0.000  36.757
 Approx polarizability:  65.767  -5.602  59.164  -0.000   0.000  50.679

                      1                      2                      3
                      A                      A                      A
 Frequencies --    147.6066               236.4826               285.9924
 Red. masses --      2.7142                 1.0501                 2.4504
 Frc consts  --      0.0348                 0.0346                 0.1181
 IR Inten    --     28.3797                 0.0259                25.8678

                      4                      5                      6
                      A                      A                      A
 Frequencies --    340.6186               473.3000               789.3526
 Red. masses --      1.1331                 2.7721                 5.5658
 Frc consts  --      0.0775                 0.3659                 2.0432
 IR Inten    --      3.1480                 2.0172                57.1190

                      7                      8                      9
                      A                      A                      A
 Frequencies --    834.5625               921.6971              1074.4367
 Red. masses --      1.0779                 2.0824                 2.1871
 Frc consts  --      0.4423                 1.0423                 1.4876
 IR Inten    --      0.0081                16.1901                 2.7953

                     10                     11                     12
                      A                      A                      A
 Frequencies --   1093.8470              1096.3621              1180.4401
 Red. masses --      1.5860                 1.2113                 1.5439
 Frc consts  --      1.1181                 0.8579                 1.2675
 IR Inten    --     31.3810                28.3261                 7.4209

                     13                     14                     15
                      A                      A                      A
 Frequencies --   1234.3076              1269.0194              1388.5898
 Red. masses --      2.5016                 1.1605                 1.3435
 Frc consts  --      2.2456                 1.1011                 1.5263
 IR Inten    --     19.0913                 3.6780                39.5538

                     16                     17                     18
                      A                      A                      A
 Frequencies --   1421.2298              1495.3527              1498.9889
 Red. masses --      1.3699                 1.1269                 1.0422
 Frc consts  --      1.6303                 1.4846                 1.3798
 IR Inten    --     22.6511                 7.6982                 2.9520

                     19                     20                     21
                      A                      A                      A
 Frequencies --   1517.4452              1548.3185              1602.4969
 Red. masses --      1.0453                 1.1178                 1.0586
 Frc consts  --      1.4182                 1.5788                 1.6017
 IR Inten    --      7.1490                23.4547                22.0334

                     22                     23                     24
                      A                      A                      A
 Frequencies --   1678.9460              2707.3066              2746.4156
 Red. masses --      1.0499                 1.0986                 1.0507
 Frc consts  --      1.7437                 4.7442                 4.6692
 IR Inten    --     42.0507               316.4387               160.8737

                     25                     26                     27
                      A                      A                      A
 Frequencies --   2923.0339              3020.7387              3048.3865
 Red. masses --      1.0953                 1.0350                 1.0347
 Frc consts  --      5.5140                 5.5646                 5.6650
 IR Inten    --     97.7049               290.2667                24.0574

                     28                     29                     30
                      A                      A                      A
 Frequencies --   3121.4210              3125.1361              3506.1963
 Red. masses --      1.1026                 1.1027                 1.0770
 Frc consts  --      6.3297                 6.3453                 7.8009
 IR Inten    --     37.8113                35.0891                28.3091

 - Thermochemistry -
 -------------------
 Temperature   298.150 Kelvin.  Pressure   1.00000 Atm.
 Atom     1 has atomic number  6 and mass  12.00000

 Molecular mass:    60.06875 amu.
 Principal axes and moments of inertia in atomic units:
                           1         2         3
     Eigenvalues --    64.35305 448.01755 480.04704
           X            0.99993  -0.01219  -0.00000
           Y            0.01219   0.99993  -0.00000
           Z            0.00000   0.00000   1.00000
 This molecule is an asymmetric top.
 Rotational symmetry number  1.
 Rotational temperatures (Kelvin)      1.34592     0.19333     0.18043
 Rotational constants (GHZ):          28.04438     4.02828     3.75951
 Zero-point vibrational energy     283084.5 (Joules/Mol)
                                   67.65881 (Kcal/Mol)
 Warning -- explicit consideration of   5 degrees of freedom as
           vibrations may cause significant error
 Vibrational temperatures:    212.37   340.25   411.48   490.07   680.97
          (Kelvin)           1135.70  1200.75  1326.11  1545.87  1573.80
                             1577.42  1698.39  1775.89  1825.83  1997.87
                             2044.83  2151.48  2156.71  2183.26  2227.68
                             2305.63  2415.63  3895.21  3951.47  4205.59
                             4346.16  4385.94  4491.02  4496.37  5044.63

 Zero-point correction=                           0.107821 (Hartree/Particle)
 Thermal correction to Energy=                    0.113224
 Thermal correction to Enthalpy=                  0.114168
 Thermal correction to Gibbs Free Energy=         0.080323
 Sum of electronic and zero-point Energies=           -190.323739
 Sum of electronic and thermal Energies=              -190.318336
 Sum of electronic and thermal Enthalpies=            -190.317392
 Sum of electronic and thermal Free Energies=         -190.351237

                     E (Thermal)             CV                S
                      KCal/Mol        Cal/Mol-Kelvin    Cal/Mol-Kelvin
 Total                   71.049             18.014             71.233
 Electronic               0.000              0.000              0.000
 Translational            0.889              2.981             38.199
 Rotational               0.889              2.981             24.141
 Vibrational             69.272             12.052              8.893
 Vibration     1          0.617              1.905              2.703
 Vibration     2          0.655              1.785              1.829
 Vibration     3          0.684              1.700              1.498
 Vibration     4          0.720              1.594              1.209
 Vibration     5          0.830              1.309              0.728

 Optimization completed.
    -- Stationary point found.
 Normal termination of Gaussian 09 at Thu Sep  8 15:14:28 2022.
