 Gaussian 09, Revision E.01,
 Gaussian 09:  ES64L-G09RevE.01 30-Nov-2015

 ----------------------------
 #P OPT Freq B3LYP/6-31G(d,p)
 ----------------------------

 ---------
 Frag_1002
 ---------
 Symbolic Z-matrix:
 Charge =  0 Multiplicity = 1

 SCF Done:  E(RB3LYP) =  -380.247761329     A.U. after   14 cycles
 SCF Done:  E(RB3LYP) =  -380.247786738     A.U. after   11 cycles
 SCF Done:  E(RB3LYP) =  -380.247693882     A.U. after   11 cycles
 SCF Done:  E(RB3LYP) =  -380.247844791     A.U. after   11 cycles
 SCF Done:  E(RB3LYP) =  -380.247846766     A.U. after    8 cycles
 SCF Done:  E(RB3LYP) =  -380.247847005     A.U. after    7 cycles
 Optimization completed.
    -- Stationary point found.
 Normal termination of Gaussian 09 at Thu Sep  8 14:47:16 2022.

 ----------------------------------------------------------------------
 #P Geom=AllCheck Guess=TCheck SCRF=Check GenChk RB3LYP/6-31G(d,p) Freq
 ----------------------------------------------------------------------

 Structure from the checkpoint file:  "B3LYP6-31Gdp.Frag_1002.chk"
 ---------
 Frag_1002
 ---------
 Charge =  0 Multiplicity = 1

                         Standard orientation:
 ---------------------------------------------------------------------
 Center     Atomic      Atomic             Coordinates (Angstroms)
 Number     Number       Type             X           Y           Z
 ---------------------------------------------------------------------
      1          6           0        1.652523    1.071464   -0.064571
      2          7           0        0.771836    0.012020   -0.548008
      3          8           0        1.374072   -1.209369   -0.018582
      4          6           0       -0.595040    0.031610    0.027785
      5          6           0       -1.301845    1.350993   -0.276414
      6          7           0       -1.236798   -1.145683   -0.580167
      7          8           0       -0.597072   -0.143027    1.423457
      8          1           0        1.672518    1.143916    1.031703
      9          1           0        2.658304    0.858544   -0.430097
     10          1           0        1.324868    2.023133   -0.487532
     11          1           0        0.807098   -1.878248   -0.443842
     12          1           0       -0.858555    2.179171    0.280237
     13          1           0       -2.349444    1.267727    0.024457
     14          1           0       -1.257016    1.570598   -1.346754
     15          1           0       -1.438402   -0.965241   -1.561133
     16          1           0       -2.114432   -1.321900   -0.098966
     17          1           0        0.059971   -0.847289    1.569357
 ---------------------------------------------------------------------

 SCF Done:  E(RB3LYP) =  -380.247847005     A.U. after    1 cycles

 The electronic state is 1-A.
 Alpha  occ. eigenvalues --  -19.16463 -19.14173 -14.37160 -14.32533 -10.29200
 Alpha  occ. eigenvalues --  -10.20069 -10.18320  -1.06736  -1.01541  -0.88504
 Alpha  occ. eigenvalues --   -0.83475  -0.73072  -0.66941  -0.57884  -0.54371
 Alpha  occ. eigenvalues --   -0.49700  -0.47744  -0.46745  -0.44362  -0.40542
 Alpha  occ. eigenvalues --   -0.40353  -0.39305  -0.38610  -0.37943  -0.34385
 Alpha  occ. eigenvalues --   -0.31341  -0.29029  -0.26053  -0.21961
 Alpha virt. eigenvalues --    0.07105   0.08977   0.11694   0.12674   0.13656
 Alpha virt. eigenvalues --    0.15426   0.15967   0.17075   0.17731   0.18850
 Alpha virt. eigenvalues --    0.19619   0.20191   0.24133   0.25127   0.27551

 Mulliken charges:
               1
     1  C   -0.151833
     2  N   -0.225652
     3  O   -0.457561
     4  C    0.484277
     5  C   -0.324293
     6  N   -0.617388
     7  O   -0.544558
     8  H    0.105842
     9  H    0.126250
    10  H    0.112955
    11  H    0.332491
    12  H    0.123803
    13  H    0.113888
    14  H    0.110092
    15  H    0.247253
    16  H    0.251053
    17  H    0.313381
 Sum of Mulliken charges =  -0.00000

 Dipole moment (field-independent basis, Debye):
    X=             -1.4728    Y=              0.4156    Z=             -1.0999  Tot=              1.8846
 Quadrupole moment (field-independent basis, Debye-Ang):
   XX=            -41.1548   YY=            -40.5196   ZZ=            -44.4017
   XY=              2.5305   XZ=              3.1190   YZ=             -0.7289

  Exact polarizability:  58.987   0.825  57.134   1.546   0.070  48.370
 Approx polarizability:  76.692  -1.339  78.595   1.042  -0.062  72.235

                      1                      2                      3
                      A                      A                      A
 Frequencies --    141.3913               226.6124               239.3508
 Red. masses --      3.2615                 1.0930                 1.6360
 Frc consts  --      0.0384                 0.0331                 0.0552
 IR Inten    --     14.5866                 0.3145                 0.7460

                      4                      5                      6
                      A                      A                      A
 Frequencies --    286.6724               290.8138               310.9358
 Red. masses --      2.3281                 1.4613                 1.5627
 Frc consts  --      0.1127                 0.0728                 0.0890
 IR Inten    --      4.7796                 3.8042                 8.9971

                      7                      8                      9
                      A                      A                      A
 Frequencies --    373.7599               390.3598               428.2960
 Red. masses --      1.7893                 2.4623                 2.7329
 Frc consts  --      0.1473                 0.2211                 0.2954
 IR Inten    --     10.1925                15.8262                 5.7023

                     10                     11                     12
                      A                      A                      A
 Frequencies --    483.7015               501.0756               561.9340
 Red. masses --      1.5437                 2.3876                 3.7198
 Frc consts  --      0.2128                 0.3532                 0.6921
 IR Inten    --     57.0994                 8.4174                10.8366

                     13                     14                     15
                      A                      A                      A
 Frequencies --    601.0177               668.8634               739.3370
 Red. masses --      2.2191                 1.5346                 4.0887
 Frc consts  --      0.4723                 0.4045                 1.3168
 IR Inten    --     49.6966               167.4236                 6.3674

                     16                     17                     18
                      A                      A                      A
 Frequencies --    854.6272               901.6909               928.4711
 Red. masses --      3.0099                 2.1907                 1.7401
 Frc consts  --      1.2953                 1.0494                 0.8838
 IR Inten    --     38.1809               109.9442                51.0131

                     19                     20                     21
                      A                      A                      A
 Frequencies --    967.3639              1065.2436              1094.2024
 Red. masses --      1.8669                 1.6989                 2.3600
 Frc consts  --      1.0293                 1.1358                 1.6648
 IR Inten    --     34.5375                16.4530                80.7052

                     22                     23                     24
                      A                      A                      A
 Frequencies --   1129.9350              1158.8280              1202.2883
 Red. masses --      2.2978                 1.4556                 1.7291
 Frc consts  --      1.7285                 1.1517                 1.4726
 IR Inten    --     24.4902                 4.0701                19.7007

                     25                     26                     27
                      A                      A                      A
 Frequencies --   1238.1850              1318.0390              1395.1377
 Red. masses --      3.0628                 1.8849                 1.2777
 Frc consts  --      2.7665                 1.9292                 1.4653
 IR Inten    --    113.9004                65.5755                39.0400

                     28                     29                     30
                      A                      A                      A
 Frequencies --   1434.7619              1439.1176              1450.2413
 Red. masses --      1.3298                 1.5012                 1.2229
 Frc consts  --      1.6129                 1.8318                 1.5154
 IR Inten    --    111.6367                26.2176                12.3388

                     31                     32                     33
                      A                      A                      A
 Frequencies --   1494.4441              1499.5334              1517.7635
 Red. masses --      1.0520                 1.0549                 1.0482
 Frc consts  --      1.3843                 1.3976                 1.4227
 IR Inten    --      6.2379                 3.9399                 1.7845

                     34                     35                     36
                      A                      A                      A
 Frequencies --   1521.0553              1631.1711              3022.9059
 Red. masses --      1.0543                 1.1192                 1.0468
 Frc consts  --      1.4372                 1.7546                 5.6361
 IR Inten    --      0.4682                37.7367                38.7120

                     37                     38                     39
                      A                      A                      A
 Frequencies --   3062.3995              3122.0314              3139.8412
 Red. masses --      1.0355                 1.0877                 1.1033
 Frc consts  --      5.7219                 6.2464                 6.4083
 IR Inten    --      8.6858                19.5717                19.7209

                     40                     41                     42
                      A                      A                      A
 Frequencies --   3148.1746              3159.1031              3499.7761
 Red. masses --      1.1032                 1.1037                 1.0493
 Frc consts  --      6.4420                 6.4898                 7.5721
 IR Inten    --     18.4674                14.2530                 0.8409

                     43                     44                     45
                      A                      A                      A
 Frequencies --   3598.9757              3694.6351              3705.1737
 Red. masses --      1.0934                 1.0642                 1.0649
 Frc consts  --      8.3446                 8.5588                 8.6132
 IR Inten    --      2.8577                49.4666                66.5048

 - Thermochemistry -
 -------------------
 Temperature   298.150 Kelvin.  Pressure   1.00000 Atm.
 Atom     1 has atomic number  6 and mass  12.00000

 Molecular mass:   106.07423 amu.
 Principal axes and moments of inertia in atomic units:
                           1         2         3
     Eigenvalues --   536.68111 717.18405 891.65492
           X            0.99804   0.05178   0.03512
           Y           -0.05147   0.99863  -0.00959
           Z           -0.03557   0.00776   0.99934
 This molecule is an asymmetric top.
 Rotational symmetry number  1.
 Warning -- assumption of classical behavior for rotation
           may cause significant error
 Rotational temperatures (Kelvin)      0.16139     0.12077     0.09714
 Rotational constants (GHZ):           3.36278     2.51643     2.02404
 Zero-point vibrational energy     386628.5 (Joules/Mol)
                                   92.40643 (Kcal/Mol)
 Warning -- explicit consideration of  13 degrees of freedom as
           vibrations may cause significant error
 Vibrational temperatures:    203.43   326.04   344.37   412.46   418.42
          (Kelvin)            447.37   537.76   561.64   616.22   695.94
                              720.94   808.50   864.73   962.34  1063.74
                             1229.62  1297.33  1335.86  1391.82  1532.65
                             1574.31  1625.72  1667.29  1729.82  1781.47
                             1896.36  2007.29  2064.30  2070.57  2086.57
                             2150.17  2157.49  2183.72  2188.46  2346.89
                             4349.28  4406.10  4491.90  4517.53  4529.52
                             4545.24  5035.39  5178.12  5315.75  5330.91

 Zero-point correction=                           0.147259 (Hartree/Particle)
 Thermal correction to Energy=                    0.155403
 Thermal correction to Enthalpy=                  0.156347
 Thermal correction to Gibbs Free Energy=         0.116010
 Sum of electronic and zero-point Energies=           -380.100588
 Sum of electronic and thermal Energies=              -380.092444
 Sum of electronic and thermal Enthalpies=            -380.091500
 Sum of electronic and thermal Free Energies=         -380.131837

                     E (Thermal)             CV                S
                      KCal/Mol        Cal/Mol-Kelvin    Cal/Mol-Kelvin
 Total                   97.517             31.515             84.897
 Electronic               0.000              0.000              0.000
 Translational            0.889              2.981             39.894
 Rotational               0.889              2.981             27.331
 Vibrational             95.740             25.554             17.672
 Vibration     1          0.615              1.912              2.785
 Vibration     2          0.650              1.800              1.906
 Vibration     3          0.657              1.780              1.808
 Vibration     4          0.684              1.698              1.494
 Vibration     5          0.687              1.691              1.469
 Vibration     6          0.700              1.653              1.357
 Vibration     7          0.745              1.526              1.064
 Vibration     8          0.758              1.491              0.999
 Vibration     9          0.790              1.409              0.864
 Vibration    10          0.840              1.286              0.700
 Vibration    11          0.856              1.248              0.655
 Vibration    12          0.918              1.114              0.520
 Vibration    13          0.959              1.030              0.448

 Optimization completed.
    -- Stationary point found.
 Normal termination of Gaussian 09 at Thu Sep  8 14:47:34 2022.
