 Gaussian 09, Revision E.01,
 Gaussian 09:  ES64L-G09RevE.01 30-Nov-2015

 ----------------------------
 #P OPT Freq B3LYP/6-31G(d,p)
 ----------------------------

 --------
 Frag_465
 --------
 Symbolic Z-matrix:
 Charge =  0 Multiplicity = 1

 SCF Done:  E(RB3LYP) =  -266.644033515     A.U. after   15 cycles
 SCF Done:  E(RB3LYP) =  -266.644141277     A.U. after   11 cycles
 SCF Done:  E(RB3LYP) =  -266.644153863     A.U. after    9 cycles
 SCF Done:  E(RB3LYP) =  -266.644161713     A.U. after   11 cycles
 SCF Done:  E(RB3LYP) =  -266.644163741     A.U. after    9 cycles
 SCF Done:  E(RB3LYP) =  -266.644164568     A.U. after    8 cycles
 SCF Done:  E(RB3LYP) =  -266.644164639     A.U. after    7 cycles
 SCF Done:  E(RB3LYP) =  -266.644164669     A.U. after    7 cycles
 SCF Done:  E(RB3LYP) =  -266.644164689     A.U. after    7 cycles
 Optimization completed.
    -- Stationary point found.
 Normal termination of Gaussian 09 at Thu Sep  8 14:55:03 2022.

 ----------------------------------------------------------------------
 #P Geom=AllCheck Guess=TCheck SCRF=Check GenChk RB3LYP/6-31G(d,p) Freq
 ----------------------------------------------------------------------

 Structure from the checkpoint file:  "B3LYP6-31Gdp.Frag_465.chk"
 --------
 Frag_465
 --------
 Charge =  0 Multiplicity = 1

                         Standard orientation:
 ---------------------------------------------------------------------
 Center     Atomic      Atomic             Coordinates (Angstroms)
 Number     Number       Type             X           Y           Z
 ---------------------------------------------------------------------
      1          6           0        1.159511    1.283279   -0.557887
      2          6           0        0.672456    0.158097   -0.038696
      3          6           0        1.469659   -0.971114    0.547865
      4          7           0       -0.779108   -0.054125   -0.033691
      5          6           0       -1.508799    0.795600    0.668068
      6          7           0       -1.278907   -1.093933   -0.675488
      7          1           0        0.506872    2.044994   -0.968406
      8          1           0        2.229409    1.459295   -0.586743
      9          1           0        1.170776   -1.148715    1.586983
     10          1           0        1.308552   -1.907194    0.005190
     11          1           0        2.535085   -0.734098    0.522817
     12          1           0       -2.578854    0.647947    0.673727
     13          1           0       -1.008990    1.545292    1.257884
     14          1           0       -0.513700   -1.466289   -1.243298
 ---------------------------------------------------------------------

 SCF Done:  E(RB3LYP) =  -266.644164689     A.U. after    1 cycles

 The electronic state is 1-A.
 Alpha  occ. eigenvalues --  -14.44819 -14.30278 -10.24948 -10.20463 -10.20292
 Alpha  occ. eigenvalues --  -10.19781  -1.02880  -0.82257  -0.78271  -0.71203
 Alpha  occ. eigenvalues --   -0.64294  -0.55500  -0.51227  -0.47859  -0.46732
 Alpha  occ. eigenvalues --   -0.43701  -0.42667  -0.40299  -0.39483  -0.37631
 Alpha  occ. eigenvalues --   -0.28507  -0.25764  -0.18088
 Alpha virt. eigenvalues --   -0.02028   0.01062   0.08509   0.11578   0.12227
 Alpha virt. eigenvalues --    0.14576   0.14943   0.16739   0.17650   0.20293
 Alpha virt. eigenvalues --    0.20993   0.24672   0.30123   0.34839   0.35730

 Mulliken charges:
               1
     1  C   -0.246451
     2  C    0.212212
     3  C   -0.342013
     4  N   -0.129985
     5  C   -0.134177
     6  N   -0.445178
     7  H    0.124766
     8  H    0.110579
     9  H    0.139354
    10  H    0.134689
    11  H    0.121147
    12  H    0.123824
    13  H    0.114675
    14  H    0.216557
 Sum of Mulliken charges =   0.00000

 Dipole moment (field-independent basis, Debye):
    X=              3.1000    Y=              1.2853    Z=              0.6996  Tot=              3.4280
 Quadrupole moment (field-independent basis, Debye-Ang):
   XX=            -38.3379   YY=            -36.6289   ZZ=            -37.1955
   XY=             -3.8177   XZ=             -2.1367   YZ=             -0.2334

  Exact polarizability:  62.894   0.674  68.003  -6.122   6.420  45.552
 Approx polarizability:  83.641   2.614 129.796 -11.789  26.700  77.271

                      1                      2                      3
                      A                      A                      A
 Frequencies --     66.7795               160.2737               284.6718
 Red. masses --      3.1107                 1.0759                 3.0773
 Frc consts  --      0.0082                 0.0163                 0.1469
 IR Inten    --      1.1487                 0.2580                 8.5256

                      4                      5                      6
                      A                      A                      A
 Frequencies --    294.9857               373.1481               454.6844
 Red. masses --      2.9640                 2.4568                 1.1772
 Frc consts  --      0.1520                 0.2015                 0.1434
 IR Inten    --      1.0348                 0.8588                11.2006

                      7                      8                      9
                      A                      A                      A
 Frequencies --    530.4189               564.3359               619.3720
 Red. masses --      2.4023                 2.1661                 2.3331
 Frc consts  --      0.3982                 0.4064                 0.5273
 IR Inten    --     11.2983                 4.4511                 0.9396

                     10                     11                     12
                      A                      A                      A
 Frequencies --    660.9275               754.9000               769.6518
 Red. masses --      1.1530                 1.9078                 1.5970
 Frc consts  --      0.2968                 0.6406                 0.5574
 IR Inten    --    128.3954                 1.9825                 4.5916

                     13                     14                     15
                      A                      A                      A
 Frequencies --    792.2799               931.9120               946.9852
 Red. masses --      1.6155                 1.4038                 1.6979
 Frc consts  --      0.5975                 0.7183                 0.8971
 IR Inten    --      2.7168                27.7000                 5.0190

                     16                     17                     18
                      A                      A                      A
 Frequencies --   1029.6740              1076.2060              1089.2163
 Red. masses --      1.4477                 1.4869                 1.9768
 Frc consts  --      0.9044                 1.0147                 1.3818
 IR Inten    --      6.1645                 2.7061                51.6404

                     19                     20                     21
                      A                      A                      A
 Frequencies --   1237.8496              1314.4630              1393.8012
 Red. masses --      2.3365                 2.1757                 2.2389
 Frc consts  --      2.1093                 2.2149                 2.5626
 IR Inten    --      5.8274                31.7182               191.3279

                     22                     23                     24
                      A                      A                      A
 Frequencies --   1420.0799              1446.9627              1472.1287
 Red. masses --      1.1835                 1.2526                 1.1608
 Frc consts  --      1.4062                 1.5451                 1.4822
 IR Inten    --      6.4138                 2.3418                 9.4625

                     25                     26                     27
                      A                      A                      A
 Frequencies --   1486.1618              1501.5406              1647.5834
 Red. masses --      1.0466                 1.0536                 3.1539
 Frc consts  --      1.3619                 1.3996                 5.0442
 IR Inten    --     14.1900                14.1495                58.8703

                     28                     29                     30
                      A                      A                      A
 Frequencies --   1739.7978              3052.6069              3113.3634
 Red. masses --      5.6101                 1.0374                 1.0998
 Frc consts  --     10.0050                 5.6957                 6.2809
 IR Inten    --     22.5320                 9.8418                 7.3720

                     31                     32                     33
                      A                      A                      A
 Frequencies --   3148.8825              3176.2676              3215.3767
 Red. masses --      1.1024                 1.0611                 1.0502
 Frc consts  --      6.4401                 6.3070                 6.3973
 IR Inten    --     11.9667                 2.0446                 3.5262

                     34                     35                     36
                      A                      A                      A
 Frequencies --   3269.3507              3349.0379              3445.1675
 Red. masses --      1.1175                 1.1249                 1.0747
 Frc consts  --      7.0375                 7.4339                 7.5155
 IR Inten    --      4.2523                 0.5403                 2.7967

 - Thermochemistry -
 -------------------
 Temperature   298.150 Kelvin.  Pressure   1.00000 Atm.
 Atom     1 has atomic number  6 and mass  12.00000

 Molecular mass:    84.06875 amu.
 Principal axes and moments of inertia in atomic units:
                           1         2         3
     Eigenvalues --   354.28171 556.91382 719.85178
           X            0.99764  -0.06817  -0.00833
           Y            0.06801   0.99753  -0.01759
           Z            0.00951   0.01698   0.99981
 This molecule is an asymmetric top.
 Rotational symmetry number  1.
 Rotational temperatures (Kelvin)      0.24448     0.15552     0.12032
 Rotational constants (GHZ):           5.09409     3.24061     2.50710
 Zero-point vibrational energy     310017.3 (Joules/Mol)
                                   74.09591 (Kcal/Mol)
 Warning -- explicit consideration of   9 degrees of freedom as
           vibrations may cause significant error
 Vibrational temperatures:     96.08   230.60   409.58   424.42   536.88
          (Kelvin)            654.19   763.15   811.95   891.14   950.93
                             1086.13  1107.36  1139.91  1340.81  1362.50
                             1481.47  1548.42  1567.14  1780.99  1891.22
                             2005.37  2043.18  2081.85  2118.06  2138.25
                             2160.38  2370.50  2503.18  4392.02  4479.43
                             4530.53  4569.93  4626.20  4703.86  4818.51
                             4956.82

 Zero-point correction=                           0.118079 (Hartree/Particle)
 Thermal correction to Energy=                    0.124968
 Thermal correction to Enthalpy=                  0.125912
 Thermal correction to Gibbs Free Energy=         0.087697
 Sum of electronic and zero-point Energies=           -266.526085
 Sum of electronic and thermal Energies=              -266.519197
 Sum of electronic and thermal Enthalpies=            -266.518252
 Sum of electronic and thermal Free Energies=         -266.556468

                     E (Thermal)             CV                S
                      KCal/Mol        Cal/Mol-Kelvin    Cal/Mol-Kelvin
 Total                   78.419             25.132             80.431
 Electronic               0.000              0.000              0.000
 Translational            0.889              2.981             39.201
 Rotational               0.889              2.981             26.454
 Vibrational             76.641             19.170             14.775
 Vibration     1          0.598              1.970              4.246
 Vibration     2          0.622              1.891              2.547
 Vibration     3          0.683              1.702              1.505
 Vibration     4          0.689              1.683              1.445
 Vibration     5          0.745              1.527              1.067
 Vibration     6          0.813              1.351              0.782
 Vibration     7          0.885              1.183              0.586
 Vibration     8          0.920              1.108              0.515
 Vibration     9          0.979              0.991              0.418

 Optimization completed.
    -- Stationary point found.
 Normal termination of Gaussian 09 at Thu Sep  8 14:55:14 2022.
