 Gaussian 09, Revision D.01,
 Gaussian 09:  ES64L-G09RevD.01 24-Apr-2013

 -------------------------
 #P OPT Freq B3LYP/6-31G**
 -------------------------

 -------
 Frag_41
 -------
 Symbolic Z-matrix:
 Charge =  0 Multiplicity = 1

 SCF Done:  E(RB3LYP) =  -153.812773683     A.U. after   12 cycles
 Optimization completed.
    -- Stationary point found.
 Normal termination of Gaussian 09 at Fri Jul 23 14:58:13 2021.

 ----------------------------------------------------------------------
 #P Geom=AllCheck Guess=TCheck SCRF=Check GenChk RB3LYP/6-31G(d,p) Freq
 ----------------------------------------------------------------------

 Structure from the checkpoint file:  "/vol2/users/liuj201281/HOFBenchmark/IsodesmicSplit/Sample60/Ring26/Running/Gau-349149.chk"
 -------
 Frag_41
 -------
 Charge =  0 Multiplicity = 1

                         Standard orientation:
 ---------------------------------------------------------------------
 Center     Atomic      Atomic             Coordinates (Angstroms)
 Number     Number       Type             X           Y           Z
 ---------------------------------------------------------------------
      1          6           0        1.238700   -0.074004    0.000000
      2          6           0        0.000000    0.413796    0.000000
      3          8           0       -1.106400   -0.392504    0.000000
      4          1           0        1.425100   -1.142104    0.000000
      5          1           0        2.085200    0.600796    0.000000
      6          1           0       -0.192900    1.485996    0.000000
      7          1           0       -1.898400    0.156596    0.000000
 ---------------------------------------------------------------------

 SCF Done:  E(RB3LYP) =  -153.812773683     A.U. after    1 cycles

 The electronic state is 1-A'.
 Alpha  occ. eigenvalues --  -19.17390 -10.23883 -10.16228  -1.05068  -0.74544
 Alpha  occ. eigenvalues --   -0.58061  -0.54093  -0.43462  -0.39745  -0.37982
 Alpha  occ. eigenvalues --   -0.34800  -0.22328
 Alpha virt. eigenvalues --    0.04252   0.06168   0.14182   0.15750   0.18128
 Alpha virt. eigenvalues --    0.29420   0.34320   0.51121   0.55076   0.60150
 Alpha virt. eigenvalues --    0.61899   0.63834   0.69100   0.76547   0.84460

 Mulliken charges:
               1
     1  C   -0.273866
     2  C    0.168705
     3  O   -0.500266
     4  H    0.101965
     5  H    0.095978
     6  H    0.086924
     7  H    0.320561
 Sum of Mulliken charges =   0.00000

 Dipole moment (field-independent basis, Debye):
    X=             -1.0896    Y=              1.6093    Z=              0.0000  Tot=              1.9435
 Quadrupole moment (field-independent basis, Debye-Ang):
   XX=            -14.1255   YY=            -17.4696   ZZ=            -20.1518
   XY=             -2.1180   XZ=              0.0000   YZ=              0.0000

  Exact polarizability:  38.072  -3.167  24.009   0.000   0.000  10.990
 Approx polarizability:  57.569  -5.901  32.130   0.000   0.000  14.727

                      1                      2                      3
                     A"                     A'                     A"
 Frequencies --    241.4693               481.1538               717.5668
 Red. masses --      1.1032                 2.2278                 1.4381
 Frc consts  --      0.0379                 0.3039                 0.4363
 IR Inten    --    107.1893                 3.4275                13.5171

                      4                      5                      6
                     A"                     A'                     A"
 Frequencies --    837.1531               960.0255               980.9790
 Red. masses --      1.4219                 1.8613                 1.1110
 Frc consts  --      0.5871                 1.0107                 0.6299
 IR Inten    --     53.6234                45.6588                16.9677

                      7                      8                      9
                     A'                     A'                     A'
 Frequencies --   1155.5135              1294.0134              1358.3186
 Red. masses --      1.8241                 1.6274                 1.1644
 Frc consts  --      1.4350                 1.6056                 1.2658
 IR Inten    --     10.5143               224.4543                 3.1972

                     10                     11                     12
                     A'                     A'                     A'
 Frequencies --   1449.8668              1755.5322              3152.1734
 Red. masses --      1.1908                 4.2188                 1.0864
 Frc consts  --      1.4749                 7.6604                 6.3603
 IR Inten    --      0.0027                93.2037                24.5200

                     13                     14                     15
                     A'                     A'                     A'
 Frequencies --   3185.8563              3278.5139              3857.1040
 Red. masses --      1.0665                 1.1175                 1.0670
 Frc consts  --      6.3775                 7.0771                 9.3529
 IR Inten    --      0.2725                 7.7459                62.0739

 - Thermochemistry -
 -------------------
 Temperature   298.150 Kelvin.  Pressure   1.00000 Atm.
 Atom     1 has atomic number  6 and mass  12.00000

 Molecular mass:    44.02621 amu.
 Principal axes and moments of inertia in atomic units:
                           1         2         3
     Eigenvalues --    28.21647 173.66385 201.88032
           X            0.99280  -0.11982   0.00000
           Y            0.11982   0.99280   0.00000
           Z            0.00000   0.00000   1.00000
 This molecule is an asymmetric top.
 Rotational symmetry number  1.
 Rotational temperatures (Kelvin)      3.06962     0.49874     0.42904
 Rotational constants (GHZ):          63.96055    10.39215     8.93966
 Zero-point vibrational energy     147770.1 (Joules/Mol)
                                   35.31791 (Kcal/Mol)
 Warning -- explicit consideration of   2 degrees of freedom as
           vibrations may cause significant error
 Vibrational temperatures:    347.42   692.27  1032.42  1204.48  1381.26
          (Kelvin)           1411.41  1662.52  1861.79  1954.32  2086.03
                             2525.82  4535.27  4583.73  4717.04  5549.51

 Zero-point correction=                           0.056283 (Hartree/Particle)
 Thermal correction to Energy=                    0.060157
 Thermal correction to Enthalpy=                  0.061101
 Thermal correction to Gibbs Free Energy=         0.031603
 Sum of electronic and zero-point Energies=           -153.756491
 Sum of electronic and thermal Energies=              -153.752617
 Sum of electronic and thermal Enthalpies=            -153.751672
 Sum of electronic and thermal Free Energies=         -153.781171

                     E (Thermal)             CV                S
                      KCal/Mol        Cal/Mol-Kelvin    Cal/Mol-Kelvin
 Total                   37.749             11.867             62.084
 Electronic               0.000              0.000              0.000
 Translational            0.889              2.981             37.273
 Rotational               0.889              2.981             21.519
 Vibrational             35.972              5.906              3.292
 Vibration     1          0.658              1.777              1.792
 Vibration     2          0.837              1.292              0.707

 Optimization completed.
    -- Stationary point found.
 Normal termination of Gaussian 09 at Fri Jul 23 14:58:19 2021.
