 Gaussian 09, Revision E.01,
 Gaussian 09:  ES64L-G09RevE.01 30-Nov-2015

 ----------------------------
 #P OPT Freq B3LYP/6-31G(d,p)
 ----------------------------

 --------
 Frag_589
 --------
 Symbolic Z-matrix:
 Charge =  0 Multiplicity = 1

 SCF Done:  E(RB3LYP) =  -302.634404474     A.U. after   14 cycles
 SCF Done:  E(RB3LYP) =  -302.634482950     A.U. after   11 cycles
 SCF Done:  E(RB3LYP) =  -302.634486718     A.U. after   11 cycles
 SCF Done:  E(RB3LYP) =  -302.634503656     A.U. after   10 cycles
 SCF Done:  E(RB3LYP) =  -302.634504347     A.U. after    8 cycles
 SCF Done:  E(RB3LYP) =  -302.634504575     A.U. after    8 cycles
 Optimization completed.
    -- Stationary point found.
 Normal termination of Gaussian 09 at Thu Sep  8 15:04:23 2022.

 ----------------------------------------------------------------------
 #P Geom=AllCheck Guess=TCheck SCRF=Check GenChk RB3LYP/6-31G(d,p) Freq
 ----------------------------------------------------------------------

 Structure from the checkpoint file:  "B3LYP6-31Gdp.Frag_589.chk"
 --------
 Frag_589
 --------
 Charge =  0 Multiplicity = 1

                         Standard orientation:
 ---------------------------------------------------------------------
 Center     Atomic      Atomic             Coordinates (Angstroms)
 Number     Number       Type             X           Y           Z
 ---------------------------------------------------------------------
      1          6           0       -1.395840    1.228092   -0.291443
      2          6           0       -0.703760    0.123876    0.021890
      3          7           0       -1.279192   -1.145918    0.245226
      4          6           0        0.800622    0.096472    0.014924
      5          7           0        1.590004    1.043838    0.321995
      6          8           0        1.325872   -1.099396   -0.357849
      7          1           0       -2.480936    1.246509   -0.273489
      8          1           0       -0.886134    2.125915   -0.617740
      9          1           0       -0.961815   -1.591062    1.101619
     10          1           0       -2.291967   -1.142897    0.206378
     11          1           0        1.045569    1.847158    0.636859
     12          1           0        0.586495   -1.666544   -0.633615
 ---------------------------------------------------------------------

 SCF Done:  E(RB3LYP) =  -302.634504575     A.U. after    1 cycles

 The electronic state is 1-A.
 Alpha  occ. eigenvalues --  -19.17418 -14.36789 -14.29952 -10.27989 -10.24699
 Alpha  occ. eigenvalues --  -10.19218  -1.06661  -0.93322  -0.88360  -0.75707
 Alpha  occ. eigenvalues --   -0.64209  -0.59345  -0.54434  -0.50361  -0.46923
 Alpha  occ. eigenvalues --   -0.45629  -0.42023  -0.40950  -0.37145  -0.34316
 Alpha  occ. eigenvalues --   -0.26761  -0.26386  -0.23931
 Alpha virt. eigenvalues --   -0.02349   0.05169   0.08456   0.11122   0.11754
 Alpha virt. eigenvalues --    0.12965   0.15364   0.17438   0.24590   0.27628
 Alpha virt. eigenvalues --    0.34720   0.36029   0.43625   0.53077   0.54894

 Mulliken charges:
               1
     1  C   -0.295692
     2  C    0.237390
     3  N   -0.667990
     4  C    0.455123
     5  N   -0.534704
     6  O   -0.497996
     7  H    0.094990
     8  H    0.114656
     9  H    0.275535
    10  H    0.266061
    11  H    0.224805
    12  H    0.327823
 Sum of Mulliken charges =  -0.00000

 Dipole moment (field-independent basis, Debye):
    X=             -4.8292    Y=             -1.0816    Z=              0.7995  Tot=              5.0130
 Quadrupole moment (field-independent basis, Debye-Ang):
   XX=            -39.9315   YY=            -31.3199   ZZ=            -35.0740
   XY=              0.6020   XZ=             -1.3816   YZ=             -1.4433

  Exact polarizability:  55.332  -0.797  60.127   3.413  -1.782  26.641
 Approx polarizability:  80.179  -2.622  98.966   7.642  -1.595  38.987

                      1                      2                      3
                      A                      A                      A
 Frequencies --    106.6383               282.4720               295.5519
 Red. masses --      4.6271                 3.7927                 1.5008
 Frc consts  --      0.0310                 0.1783                 0.0772
 IR Inten    --      0.8851                11.4053                46.9087

                      4                      5                      6
                      A                      A                      A
 Frequencies --    379.3358               411.4066               554.4698
 Red. masses --      1.9702                 2.7490                 3.0036
 Frc consts  --      0.1670                 0.2741                 0.5441
 IR Inten    --     11.3176                11.8319                11.9159

                      7                      8                      9
                      A                      A                      A
 Frequencies --    599.7598               621.2334               696.1617
 Red. masses --      3.8421                 1.1964                 1.1622
 Frc consts  --      0.8143                 0.2720                 0.3319
 IR Inten    --     29.5648                84.6910                63.0635

                     10                     11                     12
                      A                      A                      A
 Frequencies --    760.2746               793.9488               824.0337
 Red. masses --      3.0851                 3.8791                 1.6745
 Frc consts  --      1.0507                 1.4407                 0.6699
 IR Inten    --      5.7228                 4.9383               141.1978

                     13                     14                     15
                      A                      A                      A
 Frequencies --    862.6026               876.0157               980.1960
 Red. masses --      1.3242                 1.1273                 1.6507
 Frc consts  --      0.5805                 0.5097                 0.9344
 IR Inten    --     68.0627                54.4803                 4.1363

                     16                     17                     18
                      A                      A                      A
 Frequencies --   1094.0059              1141.5805              1272.6107
 Red. masses --      1.7969                 1.4161                 1.6988
 Frc consts  --      1.2671                 1.0874                 1.6210
 IR Inten    --    160.1310                11.7289                99.7176

                     19                     20                     21
                      A                      A                      A
 Frequencies --   1342.5381              1420.8049              1455.1811
 Red. masses --      1.8348                 2.0944                 1.2937
 Frc consts  --      1.9485                 2.4911                 1.6140
 IR Inten    --     56.7455               218.8254                72.1930

                     22                     23                     24
                      A                      A                      A
 Frequencies --   1652.7216              1720.5608              1758.0229
 Red. masses --      1.1647                 4.6558                 7.1520
 Frc consts  --      1.8743                 8.1205                13.0235
 IR Inten    --     35.3804                75.2466                98.4502

                     25                     26                     27
                      A                      A                      A
 Frequencies --   3173.5422              3267.8313              3512.0076
 Red. masses --      1.0615                 1.1153                 1.0745
 Frc consts  --      6.2991                 7.0172                 7.8085
 IR Inten    --      3.2540                 5.1372                 0.8295

                     28                     29                     30
                      A                      A                      A
 Frequencies --   3518.8615              3626.2578              3724.8282
 Red. masses --      1.0495                 1.0955                 1.0653
 Frc consts  --      7.6564                 8.4875                 8.7081
 IR Inten    --      9.0079                 8.9195                95.0681

 - Thermochemistry -
 -------------------
 Temperature   298.150 Kelvin.  Pressure   1.00000 Atm.
 Atom     1 has atomic number  6 and mass  12.00000

 Molecular mass:    86.04801 amu.
 Principal axes and moments of inertia in atomic units:
                           1         2         3
     Eigenvalues --   341.03091 520.36572 805.09642
           X            1.00000   0.00124  -0.00031
           Y           -0.00124   0.99985  -0.01748
           Z            0.00029   0.01748   0.99985
 This molecule is an asymmetric top.
 Rotational symmetry number  1.
 Rotational temperatures (Kelvin)      0.25398     0.16645     0.10758
 Rotational constants (GHZ):           5.29202     3.46822     2.24165
 Zero-point vibrational energy     255555.0 (Joules/Mol)
                                   61.07911 (Kcal/Mol)
 Warning -- explicit consideration of   7 degrees of freedom as
           vibrations may cause significant error
 Vibrational temperatures:    153.43   406.41   425.23   545.78   591.92
          (Kelvin)            797.76   862.92   893.82  1001.62  1093.86
                             1142.31  1185.60  1241.09  1260.39  1410.28
                             1574.03  1642.48  1831.00  1931.61  2044.22
                             2093.68  2377.89  2475.50  2529.40  4566.01
                             4701.67  5052.99  5062.85  5217.37  5359.19

 Zero-point correction=                           0.097336 (Hartree/Particle)
 Thermal correction to Energy=                    0.103488
 Thermal correction to Enthalpy=                  0.104432
 Thermal correction to Gibbs Free Energy=         0.067862
 Sum of electronic and zero-point Energies=           -302.537169
 Sum of electronic and thermal Energies=              -302.531017
 Sum of electronic and thermal Enthalpies=            -302.530072
 Sum of electronic and thermal Free Energies=         -302.566643

                     E (Thermal)             CV                S
                      KCal/Mol        Cal/Mol-Kelvin    Cal/Mol-Kelvin
 Total                   64.940             22.832             76.969
 Electronic               0.000              0.000              0.000
 Translational            0.889              2.981             39.270
 Rotational               0.889              2.981             26.460
 Vibrational             63.162             16.870             11.239
 Vibration     1          0.606              1.944              3.329
 Vibration     2          0.682              1.706              1.519
 Vibration     3          0.690              1.682              1.442
 Vibration     4          0.749              1.514              1.042
 Vibration     5          0.775              1.445              0.922
 Vibration     6          0.910              1.130              0.535
 Vibration     7          0.958              1.032              0.450

 Optimization completed.
    -- Stationary point found.
 Normal termination of Gaussian 09 at Thu Sep  8 15:04:33 2022.
