 Gaussian 09, Revision E.01,
 Gaussian 09:  ES64L-G09RevE.01 30-Nov-2015

 ----------------------------
 #P OPT Freq B3LYP/6-31G(d,p)
 ----------------------------

 --------
 Frag_906
 --------
 Symbolic Z-matrix:
 Charge =  0 Multiplicity = 1

 SCF Done:  E(RB3LYP) =  -383.702353825     A.U. after   13 cycles
 SCF Done:  E(RB3LYP) =  -383.702407849     A.U. after   10 cycles
 SCF Done:  E(RB3LYP) =  -383.702389019     A.U. after   10 cycles
 SCF Done:  E(RB3LYP) =  -383.702419556     A.U. after    9 cycles
 SCF Done:  E(RB3LYP) =  -383.702420324     A.U. after    7 cycles
 SCF Done:  E(RB3LYP) =  -383.702421110     A.U. after    7 cycles
 SCF Done:  E(RB3LYP) =  -383.702421680     A.U. after    7 cycles
 SCF Done:  E(RB3LYP) =  -383.702422093     A.U. after    7 cycles
 SCF Done:  E(RB3LYP) =  -383.702422475     A.U. after    7 cycles
 SCF Done:  E(RB3LYP) =  -383.702422603     A.U. after    6 cycles
 Optimization completed.
    -- Stationary point found.
 Normal termination of Gaussian 09 at Thu Sep  8 15:26:33 2022.

 ----------------------------------------------------------------------
 #P Geom=AllCheck Guess=TCheck SCRF=Check GenChk RB3LYP/6-31G(d,p) Freq
 ----------------------------------------------------------------------

 Structure from the checkpoint file:  "B3LYP6-31Gdp.Frag_906.chk"
 --------
 Frag_906
 --------
 Charge =  0 Multiplicity = 1

                         Standard orientation:
 ---------------------------------------------------------------------
 Center     Atomic      Atomic             Coordinates (Angstroms)
 Number     Number       Type             X           Y           Z
 ---------------------------------------------------------------------
      1          6           0       -1.433317   -1.156954   -0.657646
      2          6           0       -0.779421    0.043326    0.060500
      3          6           0       -1.277899    1.334816   -0.620013
      4          7           0       -1.181712   -0.050661    1.478005
      5          6           0        0.794898   -0.051800   -0.021587
      6          6           0        1.513049    1.277749    0.245030
      7          7           0        1.270272   -1.016484    0.952608
      8          8           0        1.184556   -0.376753   -1.371913
      9          1           0       -1.289402   -1.108060   -1.740672
     10          1           0       -1.053119   -2.114117   -0.285834
     11          1           0       -2.511244   -1.150751   -0.466956
     12          1           0       -0.888045    1.424126   -1.638675
     13          1           0       -2.372615    1.325438   -0.676642
     14          1           0       -0.982841    2.224923   -0.057507
     15          1           0       -0.605810    0.558655    2.053149
     16          1           0       -2.142542    0.272410    1.575269
     17          1           0        1.203162    1.710520    1.199496
     18          1           0        2.589111    1.089650    0.296284
     19          1           0        1.332916    1.997391   -0.555339
     20          1           0        0.638537   -1.799855    1.075574
     21          1           0        2.192491   -1.347984    0.686816
     22          1           0        0.889170   -1.281124   -1.541658
 ---------------------------------------------------------------------

 SCF Done:  E(RB3LYP) =  -383.702422603     A.U. after    1 cycles

 The electronic state is 1-A.
 Alpha  occ. eigenvalues --  -19.13521 -14.30640 -14.30606 -10.26026 -10.22018
 Alpha  occ. eigenvalues --  -10.17544 -10.16948 -10.16653  -1.01646  -0.89204
 Alpha  occ. eigenvalues --   -0.85542  -0.75168  -0.72340  -0.68018  -0.61603
 Alpha  occ. eigenvalues --   -0.54782  -0.51264  -0.49288  -0.46386  -0.44911
 Alpha  occ. eigenvalues --   -0.42671  -0.42228  -0.39738  -0.38442  -0.38099
 Alpha  occ. eigenvalues --   -0.36873  -0.36317  -0.34865  -0.33864  -0.32146
 Alpha  occ. eigenvalues --   -0.27876  -0.23634  -0.22420
 Alpha virt. eigenvalues --    0.06311   0.10245   0.10972   0.12033   0.13380
 Alpha virt. eigenvalues --    0.14195   0.15033   0.16474   0.17422   0.18007
 Alpha virt. eigenvalues --    0.19755   0.20012   0.20399   0.21385   0.22364

 Mulliken charges:
               1
     1  C   -0.311963
     2  C    0.141839
     3  C   -0.316244
     4  N   -0.594018
     5  C    0.351281
     6  C   -0.283615
     7  N   -0.595621
     8  O   -0.549988
     9  H    0.104879
    10  H    0.090737
    11  H    0.101021
    12  H    0.118369
    13  H    0.086353
    14  H    0.098518
    15  H    0.244086
    16  H    0.228864
    17  H    0.095625
    18  H    0.103269
    19  H    0.112112
    20  H    0.248438
    21  H    0.236052
    22  H    0.290006
 Sum of Mulliken charges =  -0.00000

 Dipole moment (field-independent basis, Debye):
    X=             -0.9145    Y=             -0.4019    Z=             -0.1561  Tot=              1.0110
 Quadrupole moment (field-independent basis, Debye-Ang):
   XX=            -49.5703   YY=            -47.0268   ZZ=            -55.0713
   XY=             -2.9559   XZ=              0.6352   YZ=              4.0857

  Exact polarizability:  75.837   0.654  70.222   1.119   0.730  67.494
 Approx polarizability: 100.847   0.995  95.426  -1.022   0.139  99.680

                      1                      2                      3
                      A                      A                      A
 Frequencies --     94.7267               162.2175               251.8864
 Red. masses --      3.3784                 1.0377                 1.6084
 Frc consts  --      0.0179                 0.0161                 0.0601
 IR Inten    --      1.9858                69.0239                 6.3151

                      4                      5                      6
                      A                      A                      A
 Frequencies --    255.1387               277.1112               285.5518
 Red. masses --      1.2894                 1.1811                 1.7082
 Frc consts  --      0.0495                 0.0534                 0.0821
 IR Inten    --      5.4768                 7.6754                 6.6974

                      7                      8                      9
                      A                      A                      A
 Frequencies --    316.7742               332.4863               346.1124
 Red. masses --      1.2547                 1.8223                 1.8426
 Frc consts  --      0.0742                 0.1187                 0.1301
 IR Inten    --     11.0632                 9.1761                 3.7106

                     10                     11                     12
                      A                      A                      A
 Frequencies --    364.5138               379.3028               400.0579
 Red. masses --      2.3271                 1.7415                 2.0469
 Frc consts  --      0.1822                 0.1476                 0.1930
 IR Inten    --     15.2805                50.4722                19.3683

                     13                     14                     15
                      A                      A                      A
 Frequencies --    418.3191               446.0432               511.5173
 Red. masses --      1.7101                 2.5561                 2.9772
 Frc consts  --      0.1763                 0.2996                 0.4590
 IR Inten    --     33.0987                11.5830                 6.8088

                     16                     17                     18
                      A                      A                      A
 Frequencies --    525.9424               537.7875               675.4099
 Red. masses --      2.5900                 2.7867                 2.9044
 Frc consts  --      0.4221                 0.4749                 0.7806
 IR Inten    --     19.4972                 9.3931                 9.6596

                     19                     20                     21
                      A                      A                      A
 Frequencies --    758.7377               838.7361               867.1484
 Red. masses --      1.6117                 2.6807                 1.5334
 Frc consts  --      0.5466                 1.1111                 0.6793
 IR Inten    --    123.4825                40.7236                96.1434

                     22                     23                     24
                      A                      A                      A
 Frequencies --    912.8729               933.6838               966.3638
 Red. masses --      2.1176                 1.5323                 1.8370
 Frc consts  --      1.0397                 0.7870                 1.0107
 IR Inten    --     83.6153                 1.8846                17.8196

                     25                     26                     27
                      A                      A                      A
 Frequencies --    981.2943              1017.3000              1040.3615
 Red. masses --      1.6936                 1.3728                 1.4508
 Frc consts  --      0.9608                 0.8371                 0.9252
 IR Inten    --      1.3587                 8.3654                17.5545

                     28                     29                     30
                      A                      A                      A
 Frequencies --   1108.0567              1125.1004              1164.3160
 Red. masses --      1.4114                 1.8735                 2.2124
 Frc consts  --      1.0210                 1.3973                 1.7671
 IR Inten    --      7.0767                85.0975                39.3093

                     31                     32                     33
                      A                      A                      A
 Frequencies --   1214.0314              1244.3715              1296.9527
 Red. masses --      2.5405                 2.7947                 1.7565
 Frc consts  --      2.2061                 2.5497                 1.7408
 IR Inten    --     23.9308                 8.9363                19.0564

                     34                     35                     36
                      A                      A                      A
 Frequencies --   1350.6495              1381.6107              1409.9912
 Red. masses --      1.8956                 1.6884                 1.2694
 Frc consts  --      2.0374                 1.8989                 1.4869
 IR Inten    --     22.4094                20.2211                10.4683

                     37                     38                     39
                      A                      A                      A
 Frequencies --   1426.4538              1432.8913              1492.2688
 Red. masses --      1.2736                 1.4088                 1.0536
 Frc consts  --      1.5268                 1.7042                 1.3824
 IR Inten    --     15.5804                15.8414                 1.1869

                     40                     41                     42
                      A                      A                      A
 Frequencies --   1498.1977              1510.0413              1512.8052
 Red. masses --      1.0455                 1.0500                 1.0501
 Frc consts  --      1.3827                 1.4106                 1.4159
 IR Inten    --      0.4316                 3.1191                 0.4694

                     43                     44                     45
                      A                      A                      A
 Frequencies --   1523.4111              1533.8520              1645.5520
 Red. masses --      1.0520                 1.0716                 1.1054
 Frc consts  --      1.4385                 1.4854                 1.7636
 IR Inten    --      2.1973                 5.7330                32.3241

                     46                     47                     48
                      A                      A                      A
 Frequencies --   1659.3522              3039.2329              3047.2292
 Red. masses --      1.0962                 1.0368                 1.0361
 Frc consts  --      1.7783                 5.6427                 5.6686
 IR Inten    --     44.8042                24.2272                17.2411

                     49                     50                     51
                      A                      A                      A
 Frequencies --   3064.9274              3106.8449              3113.2759
 Red. masses --      1.0360                 1.1002                 1.1008
 Frc consts  --      5.7337                 6.2567                 6.2860
 IR Inten    --     11.7074                16.3916                43.9743

                     52                     53                     54
                      A                      A                      A
 Frequencies --   3126.5509              3130.9136              3135.4971
 Red. masses --      1.1032                 1.1027                 1.1016
 Frc consts  --      6.3535                 6.3686                 6.3813
 IR Inten    --     13.2292                25.6906                36.2794

                     55                     56                     57
                      A                      A                      A
 Frequencies --   3154.7925              3484.3687              3521.4946
 Red. masses --      1.1032                 1.0500                 1.0477
 Frc consts  --      6.4693                 7.5110                 7.6552
 IR Inten    --     21.3377                 2.1696                 0.2231

                     58                     59                     60
                      A                      A                      A
 Frequencies --   3579.1549              3628.8114              3813.2942
 Red. masses --      1.0918                 1.0953                 1.0656
 Frc consts  --      8.2408                 8.4978                 9.1294
 IR Inten    --      0.1893                 2.2617                 7.3578

 - Thermochemistry -
 -------------------
 Temperature   298.150 Kelvin.  Pressure   1.00000 Atm.
 Atom     1 has atomic number  6 and mass  12.00000

 Molecular mass:   118.11061 amu.
 Principal axes and moments of inertia in atomic units:
                           1         2         3
     Eigenvalues --   742.462441038.979031053.38764
           X            0.99856  -0.01303   0.05197
           Y           -0.01409   0.87201   0.48929
           Z           -0.05169  -0.48932   0.87057
 This molecule is an asymmetric top.
 Rotational symmetry number  1.
 Warning -- assumption of classical behavior for rotation
           may cause significant error
 Rotational temperatures (Kelvin)      0.11666     0.08336     0.08222
 Rotational constants (GHZ):           2.43075     1.73703     1.71327
 Zero-point vibrational energy     522610.7 (Joules/Mol)
                                  124.90696 (Kcal/Mol)
 Warning -- explicit consideration of  17 degrees of freedom as
           vibrations may cause significant error
 Vibrational temperatures:    136.29   233.39   362.41   367.09   398.70
          (Kelvin)            410.84   455.77   478.37   497.98   524.45
                              545.73   575.59   601.87   641.76   735.96
                              756.71   773.76   971.76  1091.65  1206.75
                             1247.63  1313.42  1343.36  1390.38  1411.86
                             1463.67  1496.85  1594.24  1618.77  1675.19
                             1746.72  1790.37  1866.02  1943.28  1987.83
                             2028.66  2052.35  2061.61  2147.04  2155.57
                             2172.61  2176.59  2191.85  2206.87  2367.58
                             2387.43  4372.77  4384.28  4409.74  4470.05
                             4479.30  4498.40  4504.68  4511.28  4539.04
                             5013.22  5066.64  5149.60  5221.04  5486.47

 Zero-point correction=                           0.199052 (Hartree/Particle)
 Thermal correction to Energy=                    0.209180
 Thermal correction to Enthalpy=                  0.210124
 Thermal correction to Gibbs Free Energy=         0.165794
 Sum of electronic and zero-point Energies=           -383.503371
 Sum of electronic and thermal Energies=              -383.493243
 Sum of electronic and thermal Enthalpies=            -383.492299
 Sum of electronic and thermal Free Energies=         -383.536628

                     E (Thermal)             CV                S
                      KCal/Mol        Cal/Mol-Kelvin    Cal/Mol-Kelvin
 Total                  131.262             39.997             93.299
 Electronic               0.000              0.000              0.000
 Translational            0.889              2.981             40.214
 Rotational               0.889              2.981             28.187
 Vibrational            129.485             34.036             24.898
 Vibration     1          0.603              1.953              3.560
 Vibration     2          0.622              1.889              2.524
 Vibration     3          0.664              1.760              1.717
 Vibration     4          0.666              1.754              1.695
 Vibration     5          0.678              1.716              1.551
 Vibration     6          0.683              1.701              1.500
 Vibration     7          0.704              1.642              1.327
 Vibration     8          0.714              1.611              1.248
 Vibration     9          0.724              1.583              1.184
 Vibration    10          0.738              1.545              1.103
 Vibration    11          0.749              1.514              1.042
 Vibration    12          0.766              1.470              0.962
 Vibration    13          0.781              1.430              0.898
 Vibration    14          0.805              1.370              0.808
 Vibration    15          0.867              1.224              0.630
 Vibration    16          0.881              1.193              0.596
 Vibration    17          0.893              1.166              0.570

 Optimization completed.
    -- Stationary point found.
 Normal termination of Gaussian 09 at Thu Sep  8 15:26:59 2022.
