 Gaussian 09, Revision E.01,
 Gaussian 09:  ES64L-G09RevE.01 30-Nov-2015

 ----------------------------
 #P OPT Freq B3LYP/6-31G(d,p)
 ----------------------------

 --------
 Frag_480
 --------
 Symbolic Z-matrix:
 Charge =  0 Multiplicity = 1

 SCF Done:  E(RB3LYP) =  -248.500118164     A.U. after   13 cycles
 SCF Done:  E(RB3LYP) =  -248.500173829     A.U. after    9 cycles
 SCF Done:  E(RB3LYP) =  -248.500178073     A.U. after    7 cycles
 SCF Done:  E(RB3LYP) =  -248.500178723     A.U. after    7 cycles
 Optimization completed.
    -- Stationary point found.
 Normal termination of Gaussian 09 at Thu Sep  8 15:24:39 2022.

 ----------------------------------------------------------------------
 #P Geom=AllCheck Guess=TCheck SCRF=Check GenChk RB3LYP/6-31G(d,p) Freq
 ----------------------------------------------------------------------

 Structure from the checkpoint file:  "B3LYP6-31Gdp.Frag_480.chk"
 --------
 Frag_480
 --------
 Charge =  0 Multiplicity = 1

                         Standard orientation:
 ---------------------------------------------------------------------
 Center     Atomic      Atomic             Coordinates (Angstroms)
 Number     Number       Type             X           Y           Z
 ---------------------------------------------------------------------
      1          6           0       -1.968936    0.016088   -0.000052
      2          7           0       -0.720470   -0.708145    0.000005
      3          6           0        0.405020   -0.133351    0.000146
      4          6           0        0.755784    1.341051    0.000020
      5          8           0        1.501542   -0.959339    0.000045
      6          1           0       -2.555206   -0.278673    0.878543
      7          1           0       -1.896972    1.114421   -0.000061
      8          1           0       -2.555177   -0.278701   -0.878656
      9          1           0        1.354085    1.585894   -0.885430
     10          1           0        1.354176    1.585975    0.885373
     11          1           0       -0.125093    1.981975   -0.000001
     12          1           0        2.303935   -0.421888   -0.000851
 ---------------------------------------------------------------------

 SCF Done:  E(RB3LYP) =  -248.500178723     A.U. after    1 cycles

 The electronic state is 1-A.
 Alpha  occ. eigenvalues --  -19.17137 -14.30304 -10.27599 -10.20427 -10.20154
 Alpha  occ. eigenvalues --   -1.05826  -0.89694  -0.74563  -0.69508  -0.57161
 Alpha  occ. eigenvalues --   -0.49646  -0.47780  -0.45493  -0.42354  -0.41386
 Alpha  occ. eigenvalues --   -0.38847  -0.36382  -0.35981  -0.24669  -0.24006
 Alpha virt. eigenvalues --    0.03208   0.06267   0.10878   0.12766   0.14885
 Alpha virt. eigenvalues --    0.15648   0.18864   0.20431   0.21371   0.24181
 Alpha virt. eigenvalues --    0.29963   0.43110   0.48491   0.53673   0.57018

 Mulliken charges:
               1
     1  C   -0.183629
     2  N   -0.412622
     3  C    0.473425
     4  C   -0.408137
     5  O   -0.490492
     6  H    0.119250
     7  H    0.074725
     8  H    0.119250
     9  H    0.131625
    10  H    0.131657
    11  H    0.133371
    12  H    0.311577
 Sum of Mulliken charges =  -0.00000

 Dipole moment (field-independent basis, Debye):
    X=              1.2390    Y=              3.3189    Z=             -0.0013  Tot=              3.5427
 Quadrupole moment (field-independent basis, Debye-Ang):
   XX=            -24.3509   YY=            -34.4023   ZZ=            -30.8088
   XY=              1.2483   XZ=             -0.0036   YZ=              0.0005

  Exact polarizability:  60.734   3.859  39.747  -0.002  -0.001  30.124
 Approx polarizability:  85.203   7.289  56.485  -0.000  -0.001  41.631

                      1                      2                      3
                      A                      A                      A
 Frequencies --    102.7751               139.7955               242.9876
 Red. masses --      1.0422                 1.0574                 3.4526
 Frc consts  --      0.0065                 0.0122                 0.1201
 IR Inten    --      1.3272                 0.2035                 1.9276

                      4                      5                      6
                      A                      A                      A
 Frequencies --    331.0371               334.3973               452.3252
 Red. masses --      2.8689                 1.1230                 2.6931
 Frc consts  --      0.1852                 0.0740                 0.3246
 IR Inten    --      2.5237               104.4149                 3.2966

                      7                      8                      9
                      A                      A                      A
 Frequencies --    546.4754               574.7323               798.7870
 Red. masses --      2.6911                 4.6099                 4.4345
 Frc consts  --      0.4735                 0.8972                 1.6671
 IR Inten    --      0.1245                18.7142                17.5615

                     10                     11                     12
                      A                      A                      A
 Frequencies --    998.6953              1055.0199              1070.8562
 Red. masses --      1.5601                 1.6089                 2.9802
 Frc consts  --      0.9168                 1.0551                 2.0135
 IR Inten    --      6.2787                 1.9367                24.1452

                     13                     14                     15
                      A                      A                      A
 Frequencies --   1136.7087              1151.7545              1280.3113
 Red. masses --      1.3500                 1.4414                 2.4607
 Frc consts  --      1.0277                 1.1266                 2.3765
 IR Inten    --      0.2260                 2.6864                12.7739

                     16                     17                     18
                      A                      A                      A
 Frequencies --   1323.9417              1409.2387              1464.1693
 Red. masses --      1.8899                 1.3117                 1.1799
 Frc consts  --      1.9518                 1.5348                 1.4903
 IR Inten    --    351.7825                37.8253                14.5350

                     19                     20                     21
                      A                      A                      A
 Frequencies --   1496.4489              1497.6920              1500.3901
 Red. masses --      1.0494                 1.0405                 1.0440
 Frc consts  --      1.3846                 1.3751                 1.3848
 IR Inten    --      2.0786                 0.0342                 8.5411

                     22                     23                     24
                      A                      A                      A
 Frequencies --   1524.9357              1813.7604              2992.8229
 Red. masses --      1.0652                 8.1793                 1.0440
 Frc consts  --      1.4595                15.8535                 5.5097
 IR Inten    --     10.0137               221.1529                73.5372

                     25                     26                     27
                      A                      A                      A
 Frequencies --   3043.4877              3064.8167              3081.8737
 Red. masses --      1.0410                 1.0893                 1.1019
 Frc consts  --      5.6811                 6.0282                 6.1661
 IR Inten    --     11.8378                54.7539                28.3956

                     28                     29                     30
                      A                      A                      A
 Frequencies --   3099.6927              3166.1686              3827.0983
 Red. masses --      1.1011                 1.0963                 1.0661
 Frc consts  --      6.2333                 6.4754                 9.2002
 IR Inten    --     14.0039                11.4190                36.7029

 - Thermochemistry -
 -------------------
 Temperature   298.150 Kelvin.  Pressure   1.00000 Atm.
 Atom     1 has atomic number  6 and mass  12.00000

 Molecular mass:    73.05276 amu.
 Principal axes and moments of inertia in atomic units:
                           1         2         3
     Eigenvalues --   203.00501 455.91093 636.51754
           X            0.99951   0.03119  -0.00001
           Y           -0.03119   0.99951   0.00000
           Z            0.00001  -0.00000   1.00000
 This molecule is an asymmetric top.
 Rotational symmetry number  1.
 Rotational temperatures (Kelvin)      0.42666     0.18998     0.13607
 Rotational constants (GHZ):           8.89013     3.95854     2.83534
 Zero-point vibrational energy     266307.8 (Joules/Mol)
                                   63.64910 (Kcal/Mol)
 Warning -- explicit consideration of   8 degrees of freedom as
           vibrations may cause significant error
 Vibrational temperatures:    147.87   201.13   349.60   476.29   481.12
          (Kelvin)            650.79   786.26   826.91  1149.27  1436.90
                             1517.94  1540.72  1635.47  1657.12  1842.08
                             1904.85  2027.58  2106.61  2153.05  2154.84
                             2158.72  2194.04  2609.59  4306.00  4378.89
                             4409.58  4434.12  4459.76  4555.40  5506.33

 Zero-point correction=                           0.101431 (Hartree/Particle)
 Thermal correction to Energy=                    0.107812
 Thermal correction to Enthalpy=                  0.108756
 Thermal correction to Gibbs Free Energy=         0.071997
 Sum of electronic and zero-point Energies=           -248.398747
 Sum of electronic and thermal Energies=              -248.392367
 Sum of electronic and thermal Enthalpies=            -248.391423
 Sum of electronic and thermal Free Energies=         -248.428182

                     E (Thermal)             CV                S
                      KCal/Mol        Cal/Mol-Kelvin    Cal/Mol-Kelvin
 Total                   67.653             21.354             77.366
 Electronic               0.000              0.000              0.000
 Translational            0.889              2.981             38.782
 Rotational               0.889              2.981             25.580
 Vibrational             65.875             15.393             13.004
 Vibration     1          0.605              1.947              3.401
 Vibration     2          0.615              1.914              2.807
 Vibration     3          0.659              1.774              1.781
 Vibration     4          0.713              1.614              1.255
 Vibration     5          0.716              1.607              1.239
 Vibration     6          0.811              1.356              0.789
 Vibration     7          0.902              1.147              0.552
 Vibration     8          0.931              1.086              0.495

 Optimization completed.
    -- Stationary point found.
 Normal termination of Gaussian 09 at Thu Sep  8 15:24:48 2022.
