 Gaussian 09, Revision E.01,
 Gaussian 09:  ES64L-G09RevE.01 30-Nov-2015

 ----------------------------
 #P OPT Freq B3LYP/6-31G(d,p)
 ----------------------------

 ---------
 Frag_1022
 ---------
 Symbolic Z-matrix:
 Charge =  0 Multiplicity = 1

 SCF Done:  E(RB3LYP) =  -379.075586272     A.U. after   14 cycles
 SCF Done:  E(RB3LYP) =  -379.075662376     A.U. after   11 cycles
 SCF Done:  E(RB3LYP) =  -379.075663626     A.U. after   10 cycles
 SCF Done:  E(RB3LYP) =  -379.075672943     A.U. after    9 cycles
 SCF Done:  E(RB3LYP) =  -379.075673752     A.U. after    8 cycles
 SCF Done:  E(RB3LYP) =  -379.075674109     A.U. after    7 cycles
 SCF Done:  E(RB3LYP) =  -379.075674363     A.U. after    7 cycles
 SCF Done:  E(RB3LYP) =  -379.075674601     A.U. after    8 cycles
 SCF Done:  E(RB3LYP) =  -379.075674686     A.U. after    7 cycles
 SCF Done:  E(RB3LYP) =  -379.075674706     A.U. after    7 cycles
 Optimization completed.
    -- Stationary point found.
 Normal termination of Gaussian 09 at Thu Sep  8 14:50:06 2022.

 ----------------------------------------------------------------------
 #P Geom=AllCheck Guess=TCheck SCRF=Check GenChk RB3LYP/6-31G(d,p) Freq
 ----------------------------------------------------------------------

 Structure from the checkpoint file:  "B3LYP6-31Gdp.Frag_1022.chk"
 ---------
 Frag_1022
 ---------
 Charge =  0 Multiplicity = 1

                         Standard orientation:
 ---------------------------------------------------------------------
 Center     Atomic      Atomic             Coordinates (Angstroms)
 Number     Number       Type             X           Y           Z
 ---------------------------------------------------------------------
      1          6           0        1.624637    1.251014    0.016666
      2          6           0        0.941337    0.098775   -0.010308
      3          7           0        1.507125   -1.179858    0.086085
      4          6           0       -0.590290    0.037154   -0.012424
      5          7           0       -1.173026   -0.381048    1.251098
      6          8           0       -1.024621   -0.951922   -0.945920
      7          8           0       -1.090232    1.296604   -0.348796
      8          1           0        2.710360    1.262256    0.053713
      9          1           0        1.104302    2.197928    0.017229
     10          1           0        1.014375   -1.860290   -0.481354
     11          1           0        2.504999   -1.201504   -0.079897
     12          1           0       -1.012943   -1.376723    1.379679
     13          1           0       -0.686399    0.098870    2.004682
     14          1           0       -0.898485   -0.552312   -1.818177
     15          1           0       -2.010179    1.278995   -0.042037
 ---------------------------------------------------------------------

 SCF Done:  E(RB3LYP) =  -379.075674706     A.U. after    1 cycles

 The electronic state is 1-A.
 Alpha  occ. eigenvalues --  -19.15528 -19.15360 -14.33139 -14.32222 -10.31713
 Alpha  occ. eigenvalues --  -10.21423 -10.15509  -1.07646  -0.99980  -0.90538
 Alpha  occ. eigenvalues --   -0.87299  -0.73297  -0.64772  -0.56724  -0.55457
 Alpha  occ. eigenvalues --   -0.51417  -0.49505  -0.45198  -0.44343  -0.42198
 Alpha  occ. eigenvalues --   -0.41208  -0.38127  -0.35011  -0.33987  -0.30233
 Alpha  occ. eigenvalues --   -0.28529  -0.25641  -0.20457
 Alpha virt. eigenvalues --    0.03867   0.07122   0.10211   0.11373   0.12439
 Alpha virt. eigenvalues --    0.14400   0.16001   0.17269   0.18876   0.24773
 Alpha virt. eigenvalues --    0.26475   0.28358   0.29324   0.34586   0.37539

 Mulliken charges:
               1
     1  C   -0.314291
     2  C    0.265424
     3  N   -0.642019
     4  C    0.526145
     5  N   -0.587618
     6  O   -0.544724
     7  O   -0.537808
     8  H    0.072263
     9  H    0.111708
    10  H    0.260863
    11  H    0.252001
    12  H    0.258830
    13  H    0.253668
    14  H    0.311768
    15  H    0.313790
 Sum of Mulliken charges =   0.00000

 Dipole moment (field-independent basis, Debye):
    X=              0.8295    Y=             -0.8982    Z=             -0.4707  Tot=              1.3101
 Quadrupole moment (field-independent basis, Debye-Ang):
   XX=            -39.4715   YY=            -41.9470   ZZ=            -38.4661
   XY=             -4.0051   XZ=             -0.6261   YZ=              1.7270

  Exact polarizability:  56.279   4.572  61.720  -0.607   0.044  39.040
 Approx polarizability:  73.766  11.333  98.094  -0.487  -0.744  54.327

                      1                      2                      3
                      A                      A                      A
 Frequencies --     79.1858               177.4278               249.8880
 Red. masses --      4.2386                 1.0641                 2.8665
 Frc consts  --      0.0157                 0.0197                 0.1055
 IR Inten    --      2.7386                26.6361                 2.1835

                      4                      5                      6
                      A                      A                      A
 Frequencies --    289.8175               337.8776               379.1474
 Red. masses --      4.5274                 1.2525                 2.6179
 Frc consts  --      0.2241                 0.0842                 0.2217
 IR Inten    --     12.1954                63.4899                 3.7782

                      7                      8                      9
                      A                      A                      A
 Frequencies --    412.9036               423.2951               450.0076
 Red. masses --      1.9612                 1.2688                 2.1834
 Frc consts  --      0.1970                 0.1339                 0.2605
 IR Inten    --     31.1979                57.6190                26.9382

                     10                     11                     12
                      A                      A                      A
 Frequencies --    546.8086               552.6923               573.4346
 Red. masses --      2.0123                 3.0997                 2.5637
 Frc consts  --      0.3545                 0.5579                 0.4967
 IR Inten    --     36.4489                15.4307               108.1668

                     13                     14                     15
                      A                      A                      A
 Frequencies --    657.5208               719.5408               754.7823
 Red. masses --      2.0965                 1.2449                 4.1868
 Frc consts  --      0.5340                 0.3797                 1.4053
 IR Inten    --    107.3785                40.9628                 5.5829

                     16                     17                     18
                      A                      A                      A
 Frequencies --    776.6522               835.6687               918.3437
 Red. masses --      1.5451                 1.4369                 1.5124
 Frc consts  --      0.5491                 0.5912                 0.7515
 IR Inten    --     96.4851                66.8381               192.5522

                     19                     20                     21
                      A                      A                      A
 Frequencies --    975.6907               997.6112              1030.3079
 Red. masses --      2.3532                 1.6937                 2.6164
 Frc consts  --      1.3199                 0.9931                 1.6364
 IR Inten    --     41.9935                52.1710               175.4033

                     22                     23                     24
                      A                      A                      A
 Frequencies --   1114.3147              1161.0781              1299.0287
 Red. masses --      1.8731                 1.6775                 1.6845
 Frc consts  --      1.3703                 1.3324                 1.6748
 IR Inten    --     70.1585               152.0773                22.9318

                     25                     26                     27
                      A                      A                      A
 Frequencies --   1338.4616              1377.6182              1409.6537
 Red. masses --      1.8119                 2.0694                 1.9021
 Frc consts  --      1.9125                 2.3139                 2.2269
 IR Inten    --     30.1923                57.5281               128.7356

                     28                     29                     30
                      A                      A                      A
 Frequencies --   1455.7828              1639.6300              1657.0571
 Red. masses --      1.2730                 1.1469                 1.1244
 Frc consts  --      1.5896                 1.8166                 1.8191
 IR Inten    --     28.6395                52.5028                48.1653

                     31                     32                     33
                      A                      A                      A
 Frequencies --   1731.2106              3166.4577              3283.4996
 Red. masses --      5.4137                 1.0649                 1.1104
 Frc consts  --      9.5597                 6.2907                 7.0536
 IR Inten    --     69.1126                14.1778                 3.6210

                     34                     35                     36
                      A                      A                      A
 Frequencies --   3510.4748              3541.8309              3599.0185
 Red. masses --      1.0500                 1.0476                 1.0922
 Frc consts  --      7.6240                 7.7430                 8.3351
 IR Inten    --      4.5831                13.0066                 5.1123

                     37                     38                     39
                      A                      A                      A
 Frequencies --   3652.3799              3774.5922              3810.8590
 Red. masses --      1.0969                 1.0645                 1.0656
 Frc consts  --      8.6215                 8.9360                 9.1182
 IR Inten    --     14.0095                38.5840                36.1342

 - Thermochemistry -
 -------------------
 Temperature   298.150 Kelvin.  Pressure   1.00000 Atm.
 Atom     1 has atomic number  6 and mass  12.00000

 Molecular mass:   104.05858 amu.
 Principal axes and moments of inertia in atomic units:
                           1         2         3
     Eigenvalues --   517.50698 726.73153 902.86411
           X            0.99989   0.00359  -0.01416
           Y           -0.00350   0.99997   0.00696
           Z            0.01419  -0.00691   0.99988
 This molecule is an asymmetric top.
 Rotational symmetry number  1.
 Warning -- assumption of classical behavior for rotation
           may cause significant error
 Rotational temperatures (Kelvin)      0.16737     0.11918     0.09593
 Rotational constants (GHZ):           3.48738     2.48337     1.99891
 Zero-point vibrational energy     326948.7 (Joules/Mol)
                                   78.14261 (Kcal/Mol)
 Warning -- explicit consideration of  12 degrees of freedom as
           vibrations may cause significant error
 Vibrational temperatures:    113.93   255.28   359.53   416.98   486.13
          (Kelvin)            545.51   594.08   609.03   647.46   786.73
                              795.20   825.04   946.02  1035.26  1085.96
                             1117.43  1202.34  1321.29  1403.80  1435.34
                             1482.38  1603.25  1670.53  1869.01  1925.75
                             1982.08  2028.17  2094.54  2359.06  2384.13
                             2490.82  4555.82  4724.22  5050.78  5095.90
                             5178.18  5254.95  5430.79  5482.97

 Zero-point correction=                           0.124528 (Hartree/Particle)
 Thermal correction to Energy=                    0.132496
 Thermal correction to Enthalpy=                  0.133441
 Thermal correction to Gibbs Free Energy=         0.093050
 Sum of electronic and zero-point Energies=           -378.951147
 Sum of electronic and thermal Energies=              -378.943178
 Sum of electronic and thermal Enthalpies=            -378.942234
 Sum of electronic and thermal Free Energies=         -378.982625

                     E (Thermal)             CV                S
                      KCal/Mol        Cal/Mol-Kelvin    Cal/Mol-Kelvin
 Total                   83.143             30.483             85.010
 Electronic               0.000              0.000              0.000
 Translational            0.889              2.981             39.837
 Rotational               0.889              2.981             27.320
 Vibrational             81.365             24.521             17.853
 Vibration     1          0.600              1.963              3.911
 Vibration     2          0.628              1.870              2.355
 Vibration     3          0.663              1.763              1.731
 Vibration     4          0.686              1.693              1.475
 Vibration     5          0.718              1.600              1.222
 Vibration     6          0.749              1.515              1.043
 Vibration     7          0.777              1.442              0.916
 Vibration     8          0.785              1.420              0.881
 Vibration     9          0.809              1.361              0.796
 Vibration    10          0.902              1.147              0.551
 Vibration    11          0.908              1.134              0.539
 Vibration    12          0.930              1.089              0.498

 Optimization completed.
    -- Stationary point found.
 Normal termination of Gaussian 09 at Thu Sep  8 14:50:20 2022.
