 Gaussian 09, Revision E.01,
 Gaussian 09:  ES64L-G09RevE.01 30-Nov-2015

 ----------------------------
 #P OPT Freq B3LYP/6-31G(d,p)
 ----------------------------

 ---------
 Frag_1076
 ---------
 Symbolic Z-matrix:
 Charge =  0 Multiplicity = 1

 SCF Done:  E(RB3LYP) =  -188.096006020     A.U. after   14 cycles
 SCF Done:  E(RB3LYP) =  -188.096101187     A.U. after   11 cycles
 SCF Done:  E(RB3LYP) =  -188.095569336     A.U. after   11 cycles
 SCF Done:  E(RB3LYP) =  -188.096109581     A.U. after    8 cycles
 SCF Done:  E(RB3LYP) =  -188.096112027     A.U. after    9 cycles
 SCF Done:  E(RB3LYP) =  -188.096118413     A.U. after    9 cycles
 SCF Done:  E(RB3LYP) =  -188.096119995     A.U. after    9 cycles
 Optimization completed.
    -- Stationary point found.
 Normal termination of Gaussian 09 at Thu Sep  8 14:53:09 2022.

 ----------------------------------------------------------------------
 #P Geom=AllCheck Guess=TCheck SCRF=Check GenChk RB3LYP/6-31G(d,p) Freq
 ----------------------------------------------------------------------

 Structure from the checkpoint file:  "B3LYP6-31Gdp.Frag_1076.chk"
 ---------
 Frag_1076
 ---------
 Charge =  0 Multiplicity = 1

                         Standard orientation:
 ---------------------------------------------------------------------
 Center     Atomic      Atomic             Coordinates (Angstroms)
 Number     Number       Type             X           Y           Z
 ---------------------------------------------------------------------
      1          6           0       -1.703546    0.241760    0.000759
      2          7           0       -0.466909   -0.519784    0.016706
      3          6           0        0.681375   -0.110308    0.017838
      4          7           0        1.872406    0.178263   -0.132124
      5          1           0       -1.545093    1.324192   -0.059624
      6          1           0       -2.277756    0.018504    0.905217
      7          1           0       -2.304386   -0.073439   -0.857430
      8          1           0        2.421782    0.332677    0.708178
 ---------------------------------------------------------------------

 SCF Done:  E(RB3LYP) =  -188.096119995     A.U. after    1 cycles

 The electronic state is 1-A.
 Alpha  occ. eigenvalues --  -14.34648 -14.33703 -10.28043 -10.23189  -0.95720
 Alpha  occ. eigenvalues --   -0.89566  -0.72235  -0.55966  -0.50538  -0.45221
 Alpha  occ. eigenvalues --   -0.44981  -0.38073  -0.36844  -0.26510  -0.26079
 Alpha virt. eigenvalues --    0.03253   0.03593   0.09870   0.12141   0.15579
 Alpha virt. eigenvalues --    0.16373   0.18792   0.29735   0.45891   0.50050
 Alpha virt. eigenvalues --    0.51123   0.55799   0.58193   0.59948   0.63481

 Mulliken charges:
               1
     1  C   -0.186729
     2  N   -0.475033
     3  C    0.607394
     4  N   -0.603973
     5  H    0.117201
     6  H    0.132710
     7  H    0.136352
     8  H    0.272078
 Sum of Mulliken charges =   0.00000

 Dipole moment (field-independent basis, Debye):
    X=             -1.1273    Y=              1.1901    Z=              1.4900  Tot=              2.2153
 Quadrupole moment (field-independent basis, Debye-Ang):
   XX=            -20.8424   YY=            -24.9481   ZZ=            -23.1177
   XY=             -0.6105   XZ=              3.9204   YZ=              0.5814

  Exact polarizability:  57.355   4.872  22.505   0.522   0.108  22.344
 Approx polarizability:  95.220  16.435  33.378  -2.435  -0.616  30.029

                      1                      2                      3
                      A                      A                      A
 Frequencies --     83.9441               194.9063               461.1101
 Red. masses --      1.2500                 3.7542                 2.2316
 Frc consts  --      0.0052                 0.0840                 0.2796
 IR Inten    --      4.7141                13.3187                56.7842

                      4                      5                      6
                      A                      A                      A
 Frequencies --    569.0318               629.7218               899.0466
 Red. masses --      1.6957                 5.0627                 4.5646
 Frc consts  --      0.3235                 1.1828                 2.1738
 IR Inten    --     79.7562                14.9671                20.4005

                      7                      8                      9
                      A                      A                      A
 Frequencies --    961.2433              1145.0143              1145.9832
 Red. masses --      1.4708                 1.3196                 1.2963
 Frc consts  --      0.8007                 1.0194                 1.0030
 IR Inten    --    260.0559                 7.0547                 1.5972

                     10                     11                     12
                      A                      A                      A
 Frequencies --   1409.7484              1469.4916              1504.6682
 Red. masses --      6.5593                 1.1699                 1.0418
 Frc consts  --      7.6805                 1.4885                 1.3897
 IR Inten    --     11.4567                28.1280                 4.3837

                     13                     14                     15
                      A                      A                      A
 Frequencies --   1518.7367              2260.2305              3035.4417
 Red. masses --      1.0798                10.3972                 1.0335
 Frc consts  --      1.4675                31.2949                 5.6107
 IR Inten    --     14.5762               764.4580                58.1376

                     16                     17                     18
                      A                      A                      A
 Frequencies --   3110.0466              3115.6614              3575.3992
 Red. masses --      1.1044                 1.1038                 1.0785
 Frc consts  --      6.2937                 6.3128                 8.1230
 IR Inten    --     25.3779                20.2733                38.2597

 - Thermochemistry -
 -------------------
 Temperature   298.150 Kelvin.  Pressure   1.00000 Atm.
 Atom     1 has atomic number  6 and mass  12.00000

 Molecular mass:    56.03745 amu.
 Principal axes and moments of inertia in atomic units:
                           1         2         3
     Eigenvalues --    32.83583 405.38529 421.92262
           X            0.99982  -0.01240   0.01468
           Y            0.01164   0.99863   0.05096
           Z           -0.01529  -0.05078   0.99859
 This molecule is an asymmetric top.
 Rotational symmetry number  1.
 Rotational temperatures (Kelvin)      2.63778     0.21366     0.20528
 Rotational constants (GHZ):          54.96256     4.45192     4.27742
 Zero-point vibrational energy     162030.7 (Joules/Mol)
                                   38.72628 (Kcal/Mol)
 Warning -- explicit consideration of   4 degrees of freedom as
           vibrations may cause significant error
 Vibrational temperatures:    120.78   280.43   663.43   818.71   906.03
          (Kelvin)           1293.53  1383.01  1647.42  1648.81  2028.31
                             2114.27  2164.88  2185.12  3251.96  4367.32
                             4474.66  4482.74  5144.20

 Zero-point correction=                           0.061714 (Hartree/Particle)
 Thermal correction to Energy=                    0.066619
 Thermal correction to Enthalpy=                  0.067563
 Thermal correction to Gibbs Free Energy=         0.034641
 Sum of electronic and zero-point Energies=           -188.034406
 Sum of electronic and thermal Energies=              -188.029501
 Sum of electronic and thermal Enthalpies=            -188.028557
 Sum of electronic and thermal Free Energies=         -188.061479

                     E (Thermal)             CV                S
                      KCal/Mol        Cal/Mol-Kelvin    Cal/Mol-Kelvin
 Total                   41.804             14.917             69.290
 Electronic               0.000              0.000              0.000
 Translational            0.889              2.981             37.992
 Rotational               0.889              2.981             23.245
 Vibrational             40.027              8.955              8.054
 Vibration     1          0.601              1.960              3.796
 Vibration     2          0.636              1.847              2.181
 Vibration     3          0.819              1.336              0.763
 Vibration     4          0.925              1.098              0.506

 Normal termination of Gaussian 09 at Thu Sep  8 14:53:15 2022.
