 Gaussian 09, Revision E.01,
 Gaussian 09:  ES64L-G09RevE.01 30-Nov-2015

 ----------------------------
 #P OPT Freq B3LYP/6-31G(d,p)
 ----------------------------

 --------
 Frag_796
 --------
 Symbolic Z-matrix:
 Charge =  0 Multiplicity = 1

 SCF Done:  E(RB3LYP) =  -301.240053606     A.U. after   12 cycles
 SCF Done:  E(RB3LYP) =  -301.240072799     A.U. after    8 cycles
 SCF Done:  E(RB3LYP) =  -301.240073810     A.U. after    7 cycles
 SCF Done:  E(RB3LYP) =  -301.240073584     A.U. after    7 cycles
 SCF Done:  E(RB3LYP) =  -301.240073701     A.U. after    7 cycles
 SCF Done:  E(RB3LYP) =  -301.240073695     A.U. after    6 cycles
 Optimization completed.
    -- Stationary point found.
 Normal termination of Gaussian 09 at Thu Sep  8 15:12:35 2022.

 ----------------------------------------------------------------------
 #P Geom=AllCheck Guess=TCheck SCRF=Check GenChk RB3LYP/6-31G(d,p) Freq
 ----------------------------------------------------------------------

 Structure from the checkpoint file:  "B3LYP6-31Gdp.Frag_796.chk"
 --------
 Frag_796
 --------
 Charge =  0 Multiplicity = 1

                         Standard orientation:
 ---------------------------------------------------------------------
 Center     Atomic      Atomic             Coordinates (Angstroms)
 Number     Number       Type             X           Y           Z
 ---------------------------------------------------------------------
      1          7           0       -2.040843    0.002785    0.046867
      2          6           0       -0.848934   -0.545683   -0.615704
      3          6           0        0.453517    0.011380    0.017311
      4          7           0        1.649243   -0.516691   -0.635351
      5          7           0        0.473238    1.457578   -0.211319
      6          7           0        0.540407   -0.305796    1.450196
      7          1           0       -2.287532    0.894252   -0.375678
      8          1           0       -2.841292   -0.606369   -0.095044
      9          1           0       -0.820152   -0.356059   -1.700225
     10          1           0       -0.848547   -1.632717   -0.469326
     11          1           0        1.680577   -0.144361   -1.581306
     12          1           0        1.590728   -1.530319   -0.713018
     13          1           0       -0.283524    1.863978    0.337419
     14          1           0        1.326857    1.797044    0.231913
     15          1           0       -0.409592   -0.299736    1.822333
     16          1           0        0.910664   -1.245029    1.580547
 ---------------------------------------------------------------------

 SCF Done:  E(RB3LYP) =  -301.240073695     A.U. after    1 cycles

 The electronic state is 1-A.
 Alpha  occ. eigenvalues --  -14.32279 -14.30860 -14.29940 -14.29386 -10.25541
 Alpha  occ. eigenvalues --  -10.20472  -0.93924  -0.87680  -0.82977  -0.82351
 Alpha  occ. eigenvalues --   -0.67759  -0.56936  -0.51442  -0.49575  -0.48259
 Alpha  occ. eigenvalues --   -0.44822  -0.42985  -0.41220  -0.40566  -0.37798
 Alpha  occ. eigenvalues --   -0.35556  -0.26016  -0.24960  -0.23412  -0.21763
 Alpha virt. eigenvalues --    0.06382   0.08762   0.12137   0.13293   0.14246
 Alpha virt. eigenvalues --    0.15840   0.16325   0.18392   0.19392   0.21119
 Alpha virt. eigenvalues --    0.23470   0.25555   0.27712   0.29087   0.29936

 Mulliken charges:
               1
     1  N   -0.618810
     2  C   -0.054055
     3  C    0.348943
     4  N   -0.587698
     5  N   -0.588753
     6  N   -0.581483
     7  H    0.248257
     8  H    0.243907
     9  H    0.083336
    10  H    0.080131
    11  H    0.247600
    12  H    0.227528
    13  H    0.235133
    14  H    0.249570
    15  H    0.243791
    16  H    0.222602
 Sum of Mulliken charges =   0.00000

 Dipole moment (field-independent basis, Debye):
    X=             -2.3417    Y=             -1.6347    Z=             -1.2284  Tot=              3.1088
 Quadrupole moment (field-independent basis, Debye-Ang):
   XX=            -37.2598   YY=            -33.5269   ZZ=            -39.2993
   XY=             -1.1836   XZ=             -0.4102   YZ=              1.0873

  Exact polarizability:  54.131  -1.825  51.253  -2.177  -0.825  46.626
 Approx polarizability:  70.549  -3.487  71.759  -4.061  -2.417  64.485

                      1                      2                      3
                      A                      A                      A
 Frequencies --    120.2686               175.6635               216.5920
 Red. masses --      2.7754                 1.0569                 1.1064
 Frc consts  --      0.0237                 0.0192                 0.0306
 IR Inten    --      1.8079                73.5383                10.2792

                      4                      5                      6
                      A                      A                      A
 Frequencies --    255.9412               300.5713               343.9709
 Red. masses --      3.2428                 1.1514                 1.1267
 Frc consts  --      0.1252                 0.0613                 0.0785
 IR Inten    --      3.4844                43.1487                30.2617

                      7                      8                      9
                      A                      A                      A
 Frequencies --    387.0080               407.2477               485.1653
 Red. masses --      2.3124                 2.4643                 2.5554
 Frc consts  --      0.2041                 0.2408                 0.3544
 IR Inten    --      1.8508                17.4273                34.3649

                     10                     11                     12
                      A                      A                      A
 Frequencies --    486.7792               585.8682               774.8639
 Red. masses --      2.7462                 3.3153                 3.3067
 Frc consts  --      0.3834                 0.6705                 1.1698
 IR Inten    --      2.8026                15.0142                31.8647

                     13                     14                     15
                      A                      A                      A
 Frequencies --    857.0786               863.5611               909.5719
 Red. masses --      1.4745                 1.5053                 1.4117
 Frc consts  --      0.6382                 0.6614                 0.6881
 IR Inten    --     16.4879               162.3518               215.4898

                     16                     17                     18
                      A                      A                      A
 Frequencies --    929.7523               973.2552               995.9330
 Red. masses --      1.7509                 1.7656                 1.7709
 Frc consts  --      0.8918                 0.9854                 1.0349
 IR Inten    --     52.8809               133.0649                50.8338

                     19                     20                     21
                      A                      A                      A
 Frequencies --   1059.6870              1078.8982              1124.5095
 Red. masses --      1.4818                 2.7230                 1.1951
 Frc consts  --      0.9804                 1.8675                 0.8904
 IR Inten    --     24.3152                12.3001                22.2508

                     22                     23                     24
                      A                      A                      A
 Frequencies --   1202.2598              1248.5314              1322.0055
 Red. masses --      1.2875                 2.2723                 1.3062
 Frc consts  --      1.0964                 2.0870                 1.3450
 IR Inten    --     22.8616                49.3100                29.7752

                     25                     26                     27
                      A                      A                      A
 Frequencies --   1378.5370              1386.1801              1432.9092
 Red. masses --      1.6827                 1.6257                 1.6550
 Frc consts  --      1.8841                 1.8405                 2.0022
 IR Inten    --     25.7813                23.3286                 1.8116

                     28                     29                     30
                      A                      A                      A
 Frequencies --   1496.3850              1629.4865              1652.0946
 Red. masses --      1.0862                 1.0968                 1.0969
 Frc consts  --      1.4330                 1.7158                 1.7639
 IR Inten    --      3.3140                40.9174                43.8478

                     31                     32                     33
                      A                      A                      A
 Frequencies --   1665.6578              1682.6977              2990.3040
 Red. masses --      1.1140                 1.0896                 1.0665
 Frc consts  --      1.8211                 1.8178                 5.6187
 IR Inten    --     14.8042                32.2402                67.7032

                     34                     35                     36
                      A                      A                      A
 Frequencies --   3066.7070              3462.5359              3475.8480
 Red. masses --      1.0977                 1.0491                 1.0506
 Frc consts  --      6.0826                 7.4105                 7.4781
 IR Inten    --     39.2604                 4.7248                 0.4729

                     37                     38                     39
                      A                      A                      A
 Frequencies --   3487.0484              3504.4489              3551.1924
 Red. masses --      1.0499                 1.0501                 1.0897
 Frc consts  --      7.5218                 7.5987                 8.0963
 IR Inten    --      1.4420                 0.5466                 0.8080

                     40                     41                     42
                      A                      A                      A
 Frequencies --   3560.6947              3582.6364              3585.5875
 Red. masses --      1.0924                 1.0918                 1.0928
 Frc consts  --      8.1603                 8.2569                 8.2775
 IR Inten    --      3.6217                 0.4923                 0.9952

 - Thermochemistry -
 -------------------
 Temperature   298.150 Kelvin.  Pressure   1.00000 Atm.
 Atom     1 has atomic number  7 and mass  14.00307

 Molecular mass:    90.09055 amu.
 Principal axes and moments of inertia in atomic units:
                           1         2         3
     Eigenvalues --   377.77384 677.41623 684.42418
           X            0.99999  -0.00461  -0.00266
           Y            0.00527   0.78898   0.61439
           Z           -0.00073  -0.61440   0.78900
 This molecule is an asymmetric top.
 Rotational symmetry number  1.
 Rotational temperatures (Kelvin)      0.22927     0.12786     0.12655
 Rotational constants (GHZ):           4.77731     2.66415     2.63688
 Zero-point vibrational energy     380986.3 (Joules/Mol)
                                   91.05791 (Kcal/Mol)
 Warning -- explicit consideration of  11 degrees of freedom as
           vibrations may cause significant error
 Vibrational temperatures:    173.04   252.74   311.63   368.24   432.45
          (Kelvin)            494.90   556.82   585.94   698.04   700.37
                              842.93  1114.85  1233.14  1242.47  1308.67
                             1337.70  1400.30  1432.92  1524.65  1552.29
                             1617.92  1729.78  1796.36  1902.07  1983.40
                             1994.40  2061.63  2152.96  2344.46  2376.99
                             2396.51  2421.02  4302.38  4412.30  4981.81
                             5000.96  5017.08  5042.11  5109.37  5123.04
                             5154.61  5158.85

 Zero-point correction=                           0.145110 (Hartree/Particle)
 Thermal correction to Energy=                    0.152849
 Thermal correction to Enthalpy=                  0.153793
 Thermal correction to Gibbs Free Energy=         0.114340
 Sum of electronic and zero-point Energies=           -301.094964
 Sum of electronic and thermal Energies=              -301.087225
 Sum of electronic and thermal Enthalpies=            -301.086281
 Sum of electronic and thermal Free Energies=         -301.125734

                     E (Thermal)             CV                S
                      KCal/Mol        Cal/Mol-Kelvin    Cal/Mol-Kelvin
 Total                   95.914             28.672             83.036
 Electronic               0.000              0.000              0.000
 Translational            0.889              2.981             39.407
 Rotational               0.889              2.981             26.663
 Vibrational             94.137             22.711             16.966
 Vibration     1          0.609              1.932              3.096
 Vibration     2          0.628              1.872              2.374
 Vibration     3          0.645              1.816              1.987
 Vibration     4          0.666              1.753              1.689
 Vibration     5          0.693              1.673              1.414
 Vibration     6          0.723              1.588              1.194
 Vibration     7          0.755              1.498              1.012
 Vibration     8          0.772              1.454              0.936
 Vibration     9          0.841              1.283              0.696
 Vibration    10          0.843              1.279              0.692
 Vibration    11          0.943              1.062              0.475

 Normal termination of Gaussian 09 at Thu Sep  8 15:12:49 2022.
