 Gaussian 09, Revision E.01,
 Gaussian 09:  ES64L-G09RevE.01 30-Nov-2015

 ----------------------------
 #P OPT Freq B3LYP/6-31G(d,p)
 ----------------------------

 --------
 Frag_889
 --------
 Symbolic Z-matrix:
 Charge =  0 Multiplicity = 1

 SCF Done:  E(RB3LYP) =  -316.353309751     A.U. after   15 cycles
 SCF Done:  E(RB3LYP) =  -316.353408729     A.U. after   12 cycles
 SCF Done:  E(RB3LYP) =  -316.353420262     A.U. after   11 cycles
 SCF Done:  E(RB3LYP) =  -316.353426798     A.U. after    9 cycles
 SCF Done:  E(RB3LYP) =  -316.353428398     A.U. after    9 cycles
 SCF Done:  E(RB3LYP) =  -316.353429138     A.U. after    9 cycles
 Optimization completed.
    -- Stationary point found.
 Normal termination of Gaussian 09 at Thu Sep  8 15:00:19 2022.

 ----------------------------------------------------------------------
 #P Geom=AllCheck Guess=TCheck SCRF=Check GenChk RB3LYP/6-31G(d,p) Freq
 ----------------------------------------------------------------------

 Structure from the checkpoint file:  "B3LYP6-31Gdp.Frag_889.chk"
 --------
 Frag_889
 --------
 Charge =  0 Multiplicity = 1

                         Standard orientation:
 ---------------------------------------------------------------------
 Center     Atomic      Atomic             Coordinates (Angstroms)
 Number     Number       Type             X           Y           Z
 ---------------------------------------------------------------------
      1          7           0       -1.670388   -0.437572   -0.112241
      2          7           0       -0.366066    0.055963   -0.003177
      3          8           0       -0.200181    1.306774   -0.001596
      4          7           0        0.566580   -0.819577    0.013207
      5          8           0        1.779798   -0.197060    0.005588
      6          1           0       -2.245292    0.161148    0.475708
      7          1           0       -1.667677   -1.399634    0.220313
      8          1           0        1.565143    0.769081   -0.012476
 ---------------------------------------------------------------------

 SCF Done:  E(RB3LYP) =  -316.353429138     A.U. after    1 cycles

 The electronic state is 1-A.
 Alpha  occ. eigenvalues --  -19.20947 -19.17353 -14.55483 -14.44016 -14.41369
 Alpha  occ. eigenvalues --   -1.21313  -1.09252  -0.98550  -0.89285  -0.66191
 Alpha  occ. eigenvalues --   -0.61777  -0.56202  -0.53064  -0.50904  -0.42513
 Alpha  occ. eigenvalues --   -0.39049  -0.35592  -0.32272  -0.31058  -0.24604
 Alpha virt. eigenvalues --   -0.04028   0.05635   0.09494   0.11169   0.12425
 Alpha virt. eigenvalues --    0.18194   0.27415   0.35170   0.56680   0.60757
 Alpha virt. eigenvalues --    0.62224   0.64168   0.65335   0.69140   0.70595

 Mulliken charges:
               1
     1  N   -0.378125
     2  N    0.319124
     3  O   -0.494251
     4  N    0.026770
     5  O   -0.396086
     6  H    0.293689
     7  H    0.289688
     8  H    0.339191
 Sum of Mulliken charges =  -0.00000

 Dipole moment (field-independent basis, Debye):
    X=             -2.4858    Y=             -0.6404    Z=              1.3970  Tot=              2.9225
 Quadrupole moment (field-independent basis, Debye-Ang):
   XX=            -25.2328   YY=            -29.8070   ZZ=            -28.7025
   XY=              4.6214   XZ=             -3.3720   YZ=             -0.5542

  Exact polarizability:  45.464  -0.956  34.098  -0.909   0.049  14.263
 Approx polarizability:  75.793 -13.221  69.642   0.035   0.079  20.366

                      1                      2                      3
                      A                      A                      A
 Frequencies --    239.3728               312.0372               371.8874
 Red. masses --      1.2763                 3.0531                 5.2863
 Frc consts  --      0.0431                 0.1751                 0.4307
 IR Inten    --     38.9334                20.6175                32.1001

                      4                      5                      6
                      A                      A                      A
 Frequencies --    511.2423               577.6292               647.6170
 Red. masses --      4.7852                 1.5632                 2.7001
 Frc consts  --      0.7369                 0.3073                 0.6672
 IR Inten    --      0.6407                65.0140                41.8196

                      7                      8                      9
                      A                      A                      A
 Frequencies --    691.5119               919.4933              1034.1757
 Red. masses --      6.6508                 1.5587                 4.8979
 Frc consts  --      1.8738                 0.7764                 3.0864
 IR Inten    --     19.7007               278.6257                34.3026

                     10                     11                     12
                      A                      A                      A
 Frequencies --   1092.6713              1272.8242              1372.6818
 Red. masses --      4.4528                 1.6951                 5.8856
 Frc consts  --      3.1323                 1.6180                 6.5340
 IR Inten    --    120.0228                19.5725                91.2479

                     13                     14                     15
                      A                      A                      A
 Frequencies --   1507.8226              1619.9006              1623.6643
 Red. masses --      1.3425                 3.6870                 1.1452
 Frc consts  --      1.7983                 5.7003                 1.7788
 IR Inten    --     55.2134                77.3748                56.4626

                     16                     17                     18
                      A                      A                      A
 Frequencies --   3431.4012              3490.7415              3613.2138
 Red. masses --      1.0621                 1.0458                 1.0991
 Frc consts  --      7.3682                 7.5079                 8.4545
 IR Inten    --     37.7528                17.8931                28.7183

 - Thermochemistry -
 -------------------
 Temperature   298.150 Kelvin.  Pressure   1.00000 Atm.
 Atom     1 has atomic number  7 and mass  14.00307

 Molecular mass:    77.02253 amu.
 Principal axes and moments of inertia in atomic units:
                           1         2         3
     Eigenvalues --   153.32701 384.37781 534.64351
           X            0.99871   0.04876  -0.01394
           Y           -0.04886   0.99878  -0.00681
           Z            0.01359   0.00748   0.99988
 This molecule is an asymmetric top.
 Rotational symmetry number  1.
 Rotational temperatures (Kelvin)      0.56490     0.22534     0.16200
 Rotational constants (GHZ):          11.77054     4.69523     3.37560
 Zero-point vibrational energy     145525.0 (Joules/Mol)
                                   34.78132 (Kcal/Mol)
 Warning -- explicit consideration of   5 degrees of freedom as
           vibrations may cause significant error
 Vibrational temperatures:    344.40   448.95   535.06   735.56   831.08
          (Kelvin)            931.78   994.93  1322.94  1487.95  1572.11
                             1831.31  1974.98  2169.42  2330.67  2336.09
                             4937.01  5022.39  5198.60

 Zero-point correction=                           0.055428 (Hartree/Particle)
 Thermal correction to Energy=                    0.060285
 Thermal correction to Enthalpy=                  0.061229
 Thermal correction to Gibbs Free Energy=         0.027831
 Sum of electronic and zero-point Energies=           -316.298002
 Sum of electronic and thermal Energies=              -316.293145
 Sum of electronic and thermal Enthalpies=            -316.292200
 Sum of electronic and thermal Free Energies=         -316.325598

                     E (Thermal)             CV                S
                      KCal/Mol        Cal/Mol-Kelvin    Cal/Mol-Kelvin
 Total                   37.829             16.555             70.292
 Electronic               0.000              0.000              0.000
 Translational            0.889              2.981             38.940
 Rotational               0.889              2.981             24.958
 Vibrational             36.052             10.594              6.393
 Vibration     1          0.657              1.780              1.808
 Vibration     2          0.700              1.651              1.352
 Vibration     3          0.744              1.530              1.072
 Vibration     4          0.866              1.225              0.631
 Vibration     5          0.934              1.080              0.490

 Normal termination of Gaussian 09 at Thu Sep  8 15:00:25 2022.
