 Gaussian 09, Revision E.01,
 Gaussian 09:  ES64L-G09RevE.01 30-Nov-2015

 ----------------------------
 #P OPT Freq B3LYP/6-31G(d,p)
 ----------------------------

 --------
 Frag_569
 --------
 Symbolic Z-matrix:
 Charge =  0 Multiplicity = 1

 SCF Done:  E(RB3LYP) =  -358.443527482     A.U. after   14 cycles
 SCF Done:  E(RB3LYP) =  -358.443652150     A.U. after   10 cycles
 SCF Done:  E(RB3LYP) =  -358.443654924     A.U. after    9 cycles
 SCF Done:  E(RB3LYP) =  -358.443649247     A.U. after   10 cycles
 SCF Done:  E(RB3LYP) =  -358.443656735     A.U. after   10 cycles
 Optimization completed.
    -- Stationary point found.
 Normal termination of Gaussian 09 at Thu Sep  8 15:08:43 2022.

 ----------------------------------------------------------------------
 #P Geom=AllCheck Guess=TCheck SCRF=Check GenChk RB3LYP/6-31G(d,p) Freq
 ----------------------------------------------------------------------

 Structure from the checkpoint file:  "B3LYP6-31Gdp.Frag_569.chk"
 --------
 Frag_569
 --------
 Charge =  0 Multiplicity = 1

                         Standard orientation:
 ---------------------------------------------------------------------
 Center     Atomic      Atomic             Coordinates (Angstroms)
 Number     Number       Type             X           Y           Z
 ---------------------------------------------------------------------
      1          7           0       -1.292266    1.273657   -0.000001
      2          6           0       -0.750267    0.126206   -0.000013
      3          8           0       -1.469699   -1.008696    0.000012
      4          6           0        0.739216   -0.178228   -0.000037
      5          8           0        1.224264   -1.281566    0.000003
      6          8           0        1.458503    0.967565    0.000016
      7          1           0       -0.584646    2.007350   -0.000012
      8          1           0       -2.402015   -0.735141    0.000032
      9          1           0        2.394289    0.705893    0.000042
 ---------------------------------------------------------------------

 SCF Done:  E(RB3LYP) =  -358.443656735     A.U. after    1 cycles

 The electronic state is 1-A.
 Alpha  occ. eigenvalues --  -19.22198 -19.19994 -19.16469 -14.33213 -10.34670
 Alpha  occ. eigenvalues --  -10.30763  -1.13244  -1.09191  -1.04056  -0.90823
 Alpha  occ. eigenvalues --   -0.71372  -0.62790  -0.54942  -0.50746  -0.50027
 Alpha  occ. eigenvalues --   -0.47926  -0.43337  -0.41539  -0.39960  -0.34192
 Alpha  occ. eigenvalues --   -0.33238  -0.29079  -0.27666
 Alpha virt. eigenvalues --   -0.05974   0.05694   0.07630   0.08475   0.13363
 Alpha virt. eigenvalues --    0.22106   0.24405   0.27494   0.35506   0.44450
 Alpha virt. eigenvalues --    0.50393   0.54478   0.57536   0.61449   0.63876

 Mulliken charges:
               1
     1  N   -0.554167
     2  C    0.467634
     3  O   -0.481326
     4  C    0.562934
     5  O   -0.430212
     6  O   -0.495527
     7  H    0.260732
     8  H    0.333998
     9  H    0.335933
 Sum of Mulliken charges =  -0.00000

 Dipole moment (field-independent basis, Debye):
    X=              0.8934    Y=              1.5190    Z=             -0.0000  Tot=              1.7623
 Quadrupole moment (field-independent basis, Debye-Ang):
   XX=            -26.2830   YY=            -37.9326   ZZ=            -32.9191
   XY=              6.1227   XZ=              0.0000   YZ=             -0.0000

  Exact polarizability:  41.637  -1.887  45.615   0.000  -0.000  16.866
 Approx polarizability:  54.329  -8.856  86.104   0.000  -0.000  24.319

                      1                      2                      3
                      A                      A                      A
 Frequencies --     57.4714               273.0296               402.7027
 Red. masses --      8.6345                 6.7385                 2.6668
 Frc consts  --      0.0168                 0.2960                 0.2548
 IR Inten    --      0.4439                 0.5765                 9.9959

                      4                      5                      6
                      A                      A                      A
 Frequencies --    431.4025               529.4099               588.1534
 Red. masses --      6.1484                 7.6669                 1.1329
 Frc consts  --      0.6742                 1.2661                 0.2309
 IR Inten    --      2.3696                 3.7024                20.2023

                      7                      8                      9
                      A                      A                      A
 Frequencies --    618.9491               634.3510               787.4619
 Red. masses --      3.5568                 1.4526                 7.6208
 Frc consts  --      0.8028                 0.3444                 2.7843
 IR Inten    --    102.9613               295.3235                 9.6930

                     10                     11                     12
                      A                      A                      A
 Frequencies --    793.5737               881.4957              1115.0397
 Red. masses --      3.8705                 1.1886                 2.0348
 Frc consts  --      1.4361                 0.5441                 1.4906
 IR Inten    --      7.6412                20.1556               270.2277

                     13                     14                     15
                      A                      A                      A
 Frequencies --   1167.6756              1256.9218              1352.6454
 Red. masses --      2.1253                 1.3896                 2.0031
 Frc consts  --      1.7073                 1.2934                 2.1593
 IR Inten    --    239.7400                42.0691                51.2460

                     16                     17                     18
                      A                      A                      A
 Frequencies --   1472.0490              1747.0458              1861.4671
 Red. masses --      3.3881                 9.2108                10.8971
 Frc consts  --      4.3256                16.5637                22.2471
 IR Inten    --     10.4567               212.3035               225.2005

                     19                     20                     21
                      A                      A                      A
 Frequencies --   3535.9987              3762.6735              3767.1790
 Red. masses --      1.0750                 1.0642                 1.0645
 Frc consts  --      7.9189                 8.8771                 8.9009
 IR Inten    --     14.2461                47.7910                91.2798

 - Thermochemistry -
 -------------------
 Temperature   298.150 Kelvin.  Pressure   1.00000 Atm.
 Atom     1 has atomic number  7 and mass  14.00307

 Molecular mass:    89.01129 amu.
 Principal axes and moments of inertia in atomic units:
                           1         2         3
     Eigenvalues --   306.32372 504.48353 810.80725
           X            0.99917   0.04083   0.00000
           Y           -0.04083   0.99917  -0.00000
           Z           -0.00000   0.00000   1.00000
 This molecule is an asymmetric top.
 Rotational symmetry number  1.
 Rotational temperatures (Kelvin)      0.28275     0.17169     0.10682
 Rotational constants (GHZ):           5.89161     3.57740     2.22586
 Zero-point vibrational energy     161715.4 (Joules/Mol)
                                   38.65090 (Kcal/Mol)
 Warning -- explicit consideration of   7 degrees of freedom as
           vibrations may cause significant error
 Vibrational temperatures:     82.69   392.83   579.40   620.69   761.70
          (Kelvin)            846.22   890.53   912.69  1132.98  1141.77
                             1268.27  1604.29  1680.02  1808.43  1946.15
                             2117.95  2513.61  2678.23  5087.51  5413.64
                             5420.12

 Zero-point correction=                           0.061594 (Hartree/Particle)
 Thermal correction to Energy=                    0.067243
 Thermal correction to Enthalpy=                  0.068187
 Thermal correction to Gibbs Free Energy=         0.031954
 Sum of electronic and zero-point Energies=           -358.382063
 Sum of electronic and thermal Energies=              -358.376414
 Sum of electronic and thermal Enthalpies=            -358.375470
 Sum of electronic and thermal Free Energies=         -358.411703

                     E (Thermal)             CV                S
                      KCal/Mol        Cal/Mol-Kelvin    Cal/Mol-Kelvin
 Total                   42.196             19.501             76.259
 Electronic               0.000              0.000              0.000
 Translational            0.889              2.981             39.371
 Rotational               0.889              2.981             26.330
 Vibrational             40.418             13.539             10.558
 Vibration     1          0.596              1.975              4.542
 Vibration     2          0.676              1.723              1.577
 Vibration     3          0.768              1.464              0.953
 Vibration     4          0.792              1.402              0.854
 Vibration     5          0.884              1.185              0.589
 Vibration     6          0.945              1.057              0.470
 Vibration     7          0.979              0.992              0.418

 Optimization completed.
    -- Stationary point found.
 Normal termination of Gaussian 09 at Thu Sep  8 15:08:50 2022.
