 Gaussian 09, Revision E.01,
 Gaussian 09:  ES64L-G09RevE.01 30-Nov-2015

 ----------------------------
 #P OPT Freq B3LYP/6-31G(d,p)
 ----------------------------

 --------
 Frag_726
 --------
 Symbolic Z-matrix:
 Charge =  0 Multiplicity = 1

 SCF Done:  E(RB3LYP) =  -303.864729279     A.U. after   14 cycles
 SCF Done:  E(RB3LYP) =  -303.864781408     A.U. after    9 cycles
 SCF Done:  E(RB3LYP) =  -303.864780759     A.U. after    9 cycles
 SCF Done:  E(RB3LYP) =  -303.864786853     A.U. after    9 cycles
 SCF Done:  E(RB3LYP) =  -303.864787247     A.U. after    7 cycles
 SCF Done:  E(RB3LYP) =  -303.864787293     A.U. after    7 cycles
 Optimization completed.
    -- Stationary point found.
 Normal termination of Gaussian 09 at Thu Sep  8 15:22:14 2022.

 ----------------------------------------------------------------------
 #P Geom=AllCheck Guess=TCheck SCRF=Check GenChk RB3LYP/6-31G(d,p) Freq
 ----------------------------------------------------------------------

 Structure from the checkpoint file:  "B3LYP6-31Gdp.Frag_726.chk"
 --------
 Frag_726
 --------
 Charge =  0 Multiplicity = 1

                         Standard orientation:
 ---------------------------------------------------------------------
 Center     Atomic      Atomic             Coordinates (Angstroms)
 Number     Number       Type             X           Y           Z
 ---------------------------------------------------------------------
      1          6           0        1.725543    0.829159    0.015982
      2          6           0        0.648250   -0.188295    0.375229
      3          8           0        0.909592   -1.463853   -0.230007
      4          6           0       -0.786555    0.268911    0.053327
      5          7           0       -1.182338    1.456750   -0.223142
      6          7           0       -1.691826   -0.762236    0.156349
      7          1           0        1.619776    1.749150    0.598499
      8          1           0        2.709236    0.405166    0.231201
      9          1           0        1.683165    1.094385   -1.046887
     10          1           0        0.688264   -0.393783    1.451672
     11          1           0        0.961353   -1.321799   -1.186231
     12          1           0       -0.402166    2.111787   -0.204662
     13          1           0       -1.325916   -1.689730   -0.000687
     14          1           0       -2.614722   -0.564596   -0.202524
 ---------------------------------------------------------------------

 SCF Done:  E(RB3LYP) =  -303.864787293     A.U. after    1 cycles

 The electronic state is 1-A.
 Alpha  occ. eigenvalues --  -19.16217 -14.33390 -14.28737 -10.25129 -10.24890
 Alpha  occ. eigenvalues --  -10.19190  -1.03494  -0.93118  -0.83968  -0.75995
 Alpha  occ. eigenvalues --   -0.65837  -0.57302  -0.53806  -0.49752  -0.47367
 Alpha  occ. eigenvalues --   -0.44370  -0.43448  -0.39093  -0.38660  -0.35189
 Alpha  occ. eigenvalues --   -0.34635  -0.30102  -0.24354  -0.23008
 Alpha virt. eigenvalues --    0.02596   0.07112   0.10221   0.11464   0.14047
 Alpha virt. eigenvalues --    0.14780   0.15232   0.16684   0.19760   0.22091
 Alpha virt. eigenvalues --    0.24118   0.26658   0.33770   0.42011   0.52229

 Mulliken charges:
               1
     1  C   -0.349455
     2  C    0.123479
     3  O   -0.543038
     4  C    0.406622
     5  N   -0.583401
     6  N   -0.596336
     7  H    0.117542
     8  H    0.123694
     9  H    0.109278
    10  H    0.132585
    11  H    0.305724
    12  H    0.217187
    13  H    0.269211
    14  H    0.266908
 Sum of Mulliken charges =  -0.00000

 Dipole moment (field-independent basis, Debye):
    X=              1.5829    Y=             -0.9170    Z=             -0.9987  Tot=              2.0842
 Quadrupole moment (field-independent basis, Debye-Ang):
   XX=            -36.9639   YY=            -38.6365   ZZ=            -35.0701
   XY=              7.1219   XZ=              0.1277   YZ=              2.8755

  Exact polarizability:  51.773   2.237  56.562   1.066  -1.919  36.172
 Approx polarizability:  64.835  -0.420  89.844   1.516  -6.164  53.057

                      1                      2                      3
                      A                      A                      A
 Frequencies --     65.0571               246.2385               286.1804
 Red. masses --      4.1942                 1.2162                 2.4935
 Frc consts  --      0.0105                 0.0434                 0.1203
 IR Inten    --      2.4008                 1.4892                 3.0184

                      4                      5                      6
                      A                      A                      A
 Frequencies --    330.4741               374.7209               399.4306
 Red. masses --      1.8189                 1.5385                 2.4596
 Frc consts  --      0.1170                 0.1273                 0.2312
 IR Inten    --     20.8758                96.6402                38.5931

                      7                      8                      9
                      A                      A                      A
 Frequencies --    482.6014               515.1349               537.3268
 Red. masses --      2.1682                 2.9058                 1.2689
 Frc consts  --      0.2975                 0.4543                 0.2158
 IR Inten    --     46.8566                16.8211               119.8506

                     10                     11                     12
                      A                      A                      A
 Frequencies --    570.4151               700.9817               791.2039
 Red. masses --      1.3672                 3.4754                 2.6173
 Frc consts  --      0.2621                 1.0062                 0.9653
 IR Inten    --    130.7746                19.2175                 4.3574

                     13                     14                     15
                      A                      A                      A
 Frequencies --    828.8078               914.8899              1040.4945
 Red. masses --      1.1386                 2.2300                 1.5706
 Frc consts  --      0.4608                 1.0997                 1.0018
 IR Inten    --     33.6840                10.5595                40.2023

                     16                     17                     18
                      A                      A                      A
 Frequencies --   1094.9427              1119.5318              1143.3225
 Red. masses --      1.9605                 2.0306                 1.9770
 Frc consts  --      1.3848                 1.4995                 1.5226
 IR Inten    --     13.4731                81.3516                15.3362

                     19                     20                     21
                      A                      A                      A
 Frequencies --   1165.5698              1283.8326              1336.3012
 Red. masses --      1.3591                 1.4248                 1.3960
 Frc consts  --      1.0878                 1.3837                 1.4687
 IR Inten    --    103.2722                 6.8084                25.9249

                     22                     23                     24
                      A                      A                      A
 Frequencies --   1412.3316              1425.5582              1436.7957
 Red. masses --      1.2211                 1.2511                 2.3689
 Frc consts  --      1.4351                 1.4981                 2.8813
 IR Inten    --     14.5057                48.7350                20.9148

                     25                     26                     27
                      A                      A                      A
 Frequencies --   1504.3781              1513.8359              1616.7106
 Red. masses --      1.0522                 1.0495                 1.3009
 Frc consts  --      1.4030                 1.4170                 2.0034
 IR Inten    --      2.3851                10.3116                77.9510

                     28                     29                     30
                      A                      A                      A
 Frequencies --   1729.0680              3045.3663              3062.5821
 Red. masses --      6.3327                 1.0397                 1.0835
 Frc consts  --     11.1548                 5.6811                 5.9874
 IR Inten    --    196.2517                 8.5659                15.9578

                     31                     32                     33
                      A                      A                      A
 Frequencies --   3118.4136              3139.4494              3518.8815
 Red. masses --      1.1002                 1.1020                 1.0744
 Frc consts  --      6.3038                 6.3993                 7.8387
 IR Inten    --     24.8901                15.8190                 0.1778

                     34                     35                     36
                      A                      A                      A
 Frequencies --   3584.4999              3713.2823              3787.8630
 Red. masses --      1.0450                 1.1023                 1.0662
 Frc consts  --      7.9106                 8.9549                 9.0128
 IR Inten    --     25.4421                41.8146                13.9417

 - Thermochemistry -
 -------------------
 Temperature   298.150 Kelvin.  Pressure   1.00000 Atm.
 Atom     1 has atomic number  6 and mass  12.00000

 Molecular mass:    88.06366 amu.
 Principal axes and moments of inertia in atomic units:
                           1         2         3
     Eigenvalues --   369.43975 549.44551 856.39148
           X            0.98986   0.14203   0.00254
           Y           -0.14204   0.98983   0.00787
           Z           -0.00140  -0.00815   0.99997
 This molecule is an asymmetric top.
 Rotational symmetry number  1.
 Rotational temperatures (Kelvin)      0.23445     0.15764     0.10114
 Rotational constants (GHZ):           4.88508     3.28466     2.10738
 Zero-point vibrational energy     316032.3 (Joules/Mol)
                                   75.53353 (Kcal/Mol)
 Warning -- explicit consideration of  10 degrees of freedom as
           vibrations may cause significant error
 Vibrational temperatures:     93.60   354.28   411.75   475.48   539.14
          (Kelvin)            574.69   694.35   741.16   773.09   820.70
                             1008.56  1138.36  1192.47  1316.32  1497.04
                             1575.38  1610.75  1644.98  1676.99  1847.15
                             1922.64  2032.03  2051.06  2067.23  2164.46
                             2178.07  2326.08  2487.74  4381.60  4406.37
                             4486.70  4516.96  5062.88  5157.29  5342.58
                             5449.88

 Zero-point correction=                           0.120370 (Hartree/Particle)
 Thermal correction to Energy=                    0.127281
 Thermal correction to Enthalpy=                  0.128225
 Thermal correction to Gibbs Free Energy=         0.089977
 Sum of electronic and zero-point Energies=           -303.744417
 Sum of electronic and thermal Energies=              -303.737507
 Sum of electronic and thermal Enthalpies=            -303.736562
 Sum of electronic and thermal Free Energies=         -303.774810

                     E (Thermal)             CV                S
                      KCal/Mol        Cal/Mol-Kelvin    Cal/Mol-Kelvin
 Total                   79.870             25.519             80.500
 Electronic               0.000              0.000              0.000
 Translational            0.889              2.981             39.339
 Rotational               0.889              2.981             26.655
 Vibrational             78.092             19.558             14.505
 Vibration     1          0.597              1.971              4.298
 Vibration     2          0.661              1.769              1.757
 Vibration     3          0.684              1.699              1.496
 Vibration     4          0.713              1.615              1.258
 Vibration     5          0.746              1.524              1.060
 Vibration     6          0.765              1.471              0.965
 Vibration     7          0.839              1.289              0.703
 Vibration     8          0.870              1.216              0.621
 Vibration     9          0.892              1.167              0.571
 Vibration    10          0.927              1.095              0.503

 Optimization completed.
    -- Stationary point found.
 Normal termination of Gaussian 09 at Thu Sep  8 15:22:25 2022.
