 Gaussian 09, Revision E.01,
 Gaussian 09:  ES64L-G09RevE.01 30-Nov-2015

 --------------------------------
 #P OPT=calcfc Freq B3LYP/6-31G**
 --------------------------------

 --------
 Frag_358
 --------
 Symbolic Z-matrix:
 Charge =  0 Multiplicity = 1

 SCF Done:  E(RB3LYP) =  -302.641722011     A.U. after   15 cycles
 SCF Done:  E(RB3LYP) =  -302.662048028     A.U. after   14 cycles
 SCF Done:  E(RB3LYP) =  -302.659294999     A.U. after   14 cycles
 SCF Done:  E(RB3LYP) =  -302.662637978     A.U. after   11 cycles
 SCF Done:  E(RB3LYP) =  -302.661438482     A.U. after   13 cycles
 SCF Done:  E(RB3LYP) =  -302.662646961     A.U. after    9 cycles
 SCF Done:  E(RB3LYP) =  -302.663863163     A.U. after   12 cycles
 SCF Done:  E(RB3LYP) =  -302.663947642     A.U. after   12 cycles
 SCF Done:  E(RB3LYP) =  -302.663927634     A.U. after   11 cycles
 SCF Done:  E(RB3LYP) =  -302.663970610     A.U. after   11 cycles
 SCF Done:  E(RB3LYP) =  -302.663970890     A.U. after    8 cycles
 Optimization completed.
    -- Stationary point found.
 Normal termination of Gaussian 09 at Fri Sep 10 20:11:55 2021.

 ----------------------------------------------------------------------
 #P Geom=AllCheck Guess=TCheck SCRF=Check GenChk RB3LYP/6-31G(d,p) Freq
 ----------------------------------------------------------------------

 Structure from the checkpoint file:  "/public/home/users/caep010/.cache/gau_scr/Gau-100289.chk"
 --------
 Frag_358
 --------
 Charge =  0 Multiplicity = 1

                         Standard orientation:
 ---------------------------------------------------------------------
 Center     Atomic      Atomic             Coordinates (Angstroms)
 Number     Number       Type             X           Y           Z
 ---------------------------------------------------------------------
      1          6           0       -1.474819   -1.166199    0.172171
      2          6           0       -0.740118   -0.062074   -0.015082
      3          7           0       -1.246038    1.253493   -0.091303
      4          6           0        0.765251   -0.180551   -0.027158
      5          7           0        1.423447    1.011822    0.157670
      6          8           0        1.347636   -1.239692   -0.210500
      7          1           0       -2.559785   -1.138601    0.196365
      8          1           0       -0.976391   -2.115212    0.319322
      9          1           0       -2.259463    1.283912   -0.099657
     10          1           0       -0.880633    1.770481   -0.885372
     11          1           0        0.930559    1.769094    0.609378
     12          1           0        2.420876    0.943605    0.299795
 ---------------------------------------------------------------------

 SCF Done:  E(RB3LYP) =  -302.663970890     A.U. after    1 cycles

 The electronic state is 1-A.
 Alpha  occ. eigenvalues --  -19.10838 -14.35271 -14.35035 -10.28643 -10.22810
 Alpha  occ. eigenvalues --  -10.17613  -1.02715  -0.92464  -0.89158  -0.74660
 Alpha  occ. eigenvalues --   -0.64144  -0.55479  -0.53702  -0.50227  -0.49202
 Alpha  occ. eigenvalues --   -0.42520  -0.41505  -0.40577  -0.37660  -0.33099
 Alpha  occ. eigenvalues --   -0.27023  -0.24720  -0.22545
 Alpha virt. eigenvalues --   -0.01798   0.06604   0.10099   0.10918   0.12814
 Alpha virt. eigenvalues --    0.14125   0.16349   0.17785   0.26619   0.30430
 Alpha virt. eigenvalues --    0.33293   0.35494   0.39377   0.53321   0.54006

 Mulliken charges:
               1
     1  C   -0.279690
     2  C    0.248778
     3  N   -0.668933
     4  C    0.532694
     5  N   -0.620944
     6  O   -0.504856
     7  H    0.085491
     8  H    0.131047
     9  H    0.258506
    10  H    0.264401
    11  H    0.278798
    12  H    0.274707
 Sum of Mulliken charges =   0.00000

 Dipole moment (field-independent basis, Debye):
    X=             -1.6297    Y=              3.4890    Z=              0.1811  Tot=              3.8551
 Quadrupole moment (field-independent basis, Debye-Ang):
   XX=            -30.0405   YY=            -34.9015   ZZ=            -35.9670
   XY=              3.7576   XZ=              2.9793   YZ=             -1.7174

  Exact polarizability:  57.529   7.045  60.856  -1.425  -1.710  23.329
 Approx polarizability:  78.508  11.425 102.435  -4.409  -1.937  33.775

                      1                      2                      3
                      A                      A                      A
 Frequencies --    104.0371               284.2697               305.2973
 Red. masses --      4.8420                 3.2457                 1.3176
 Frc consts  --      0.0309                 0.1545                 0.0724
 IR Inten    --      2.1743                 0.7598                44.7527

                      4                      5                      6
                      A                      A                      A
 Frequencies --    386.8643               410.2025               509.8375
 Red. masses --      2.1606                 2.4334                 1.8222
 Frc consts  --      0.1905                 0.2413                 0.2791
 IR Inten    --      9.0078                15.9379               123.5618

                      7                      8                      9
                      A                      A                      A
 Frequencies --    545.4564               574.6717               606.4182
 Red. masses --      2.3287                 2.3006                 1.2152
 Frc consts  --      0.4082                 0.4477                 0.2633
 IR Inten    --     47.9207                92.0656                23.3786

                     10                     11                     12
                      A                      A                      A
 Frequencies --    706.3951               768.5286               801.1641
 Red. masses --      1.1178                 2.8013                 3.9841
 Frc consts  --      0.3286                 0.9748                 1.5067
 IR Inten    --     72.6445                14.9740                23.4507

                     13                     14                     15
                      A                      A                      A
 Frequencies --    827.3418               880.7947               981.9167
 Red. masses --      1.5925                 1.3828                 1.6090
 Frc consts  --      0.6422                 0.6321                 0.9140
 IR Inten    --    155.9195                44.6751                 3.3188

                     16                     17                     18
                      A                      A                      A
 Frequencies --   1106.1655              1141.4297              1281.1030
 Red. masses --      1.7663                 1.4985                 2.4779
 Frc consts  --      1.2734                 1.1503                 2.3961
 IR Inten    --      4.5158                 1.5247                57.6555

                     19                     20                     21
                      A                      A                      A
 Frequencies --   1400.1141              1438.0529              1607.7000
 Red. masses --      3.6697                 1.2046                 1.2559
 Frc consts  --      4.2384                 1.4677                 1.9126
 IR Inten    --    148.4741                22.8283               163.0605

                     22                     23                     24
                      A                      A                      A
 Frequencies --   1650.2690              1718.9008              1804.3286
 Red. masses --      1.1515                 4.9950                 8.5725
 Frc consts  --      1.8477                 8.6954                16.4433
 IR Inten    --     26.8426               114.3500               166.9216

                     25                     26                     27
                      A                      A                      A
 Frequencies --   3173.0172              3280.2842              3519.0123
 Red. masses --      1.0622                 1.1143                 1.0489
 Frc consts  --      6.3010                 7.0647                 7.6529
 IR Inten    --      9.6087                 1.7395                 4.7631

                     28                     29                     30
                      A                      A                      A
 Frequencies --   3577.0640              3620.9804              3713.3572
 Red. masses --      1.0453                 1.0955                 1.1036
 Frc consts  --      7.8801                 8.4627                 8.9660
 IR Inten    --     27.3299                 5.4020                47.3083

 - Thermochemistry -
 -------------------
 Temperature   298.150 Kelvin.  Pressure   1.00000 Atm.
 Atom     1 has atomic number  6 and mass  12.00000

 Molecular mass:    86.04801 amu.
 Principal axes and moments of inertia in atomic units:
                           1         2         3
     Eigenvalues --   338.63131 508.29225 826.10803
           X            0.99575   0.09155   0.01026
           Y           -0.09141   0.99573  -0.01304
           Z           -0.01141   0.01205   0.99986
 This molecule is an asymmetric top.
 Rotational symmetry number  1.
 Rotational temperatures (Kelvin)      0.25578     0.17040     0.10485
 Rotational constants (GHZ):           5.32952     3.55060     2.18463
 Zero-point vibrational energy     255552.1 (Joules/Mol)
                                   61.07842 (Kcal/Mol)
 Warning -- explicit consideration of   9 degrees of freedom as
           vibrations may cause significant error
 Vibrational temperatures:    149.69   409.00   439.25   556.61   590.19
          (Kelvin)            733.54   784.79   826.82   872.50  1016.34
                             1105.74  1152.69  1190.36  1267.27  1412.76
                             1591.52  1642.26  1843.22  2014.45  2069.03
                             2313.12  2374.37  2473.11  2596.02  4565.26
                             4719.59  5063.07  5146.59  5209.78  5342.69

 Zero-point correction=                           0.097335 (Hartree/Particle)
 Thermal correction to Energy=                    0.103635
 Thermal correction to Enthalpy=                  0.104579
 Thermal correction to Gibbs Free Energy=         0.067789
 Sum of electronic and zero-point Energies=           -302.566636
 Sum of electronic and thermal Energies=              -302.560336
 Sum of electronic and thermal Enthalpies=            -302.559391
 Sum of electronic and thermal Free Energies=         -302.596182

                     E (Thermal)             CV                S
                      KCal/Mol        Cal/Mol-Kelvin    Cal/Mol-Kelvin
 Total                   65.032             23.435             77.433
 Electronic               0.000              0.000              0.000
 Translational            0.889              2.981             39.270
 Rotational               0.889              2.981             26.456
 Vibrational             63.255             17.473             11.707
 Vibration     1          0.605              1.946              3.377
 Vibration     2          0.683              1.703              1.508
 Vibration     3          0.696              1.664              1.388
 Vibration     4          0.755              1.498              1.012
 Vibration     5          0.774              1.448              0.926
 Vibration     6          0.865              1.228              0.634
 Vibration     7          0.901              1.150              0.554
 Vibration     8          0.931              1.086              0.495
 Vibration     9          0.965              1.018              0.439

 Optimization completed.
    -- Stationary point found.
 Normal termination of Gaussian 09 at Fri Sep 10 20:12:04 2021.
