 Gaussian 09, Revision E.01,
 Gaussian 09:  ES64L-G09RevE.01 30-Nov-2015

 --------------------------------
 #P OPT=calcfc Freq B3LYP/6-31G**
 --------------------------------

 --------
 Frag_361
 --------
 Symbolic Z-matrix:
 Charge =  0 Multiplicity = 1

 SCF Done:  E(RB3LYP) =  -244.589291280     A.U. after   14 cycles
 SCF Done:  E(RB3LYP) =  -244.596907415     A.U. after   13 cycles
 SCF Done:  E(RB3LYP) =  -244.597096902     A.U. after   12 cycles
 SCF Done:  E(RB3LYP) =  -244.598549442     A.U. after   11 cycles
 SCF Done:  E(RB3LYP) =  -244.598539822     A.U. after   11 cycles
 SCF Done:  E(RB3LYP) =  -244.598655430     A.U. after   11 cycles
 SCF Done:  E(RB3LYP) =  -244.598678505     A.U. after    9 cycles
 SCF Done:  E(RB3LYP) =  -244.598679229     A.U. after    7 cycles
 Optimization completed.
    -- Stationary point found.
 Normal termination of Gaussian 09 at Fri Sep 10 15:27:56 2021.

 ----------------------------------------------------------------------
 #P Geom=AllCheck Guess=TCheck SCRF=Check GenChk RB3LYP/6-31G(d,p) Freq
 ----------------------------------------------------------------------

 Structure from the checkpoint file:  "/public/home/users/caep010/.cache/gau_scr/Gau-180426.chk"
 --------
 Frag_361
 --------
 Charge =  0 Multiplicity = 1

                         Standard orientation:
 ---------------------------------------------------------------------
 Center     Atomic      Atomic             Coordinates (Angstroms)
 Number     Number       Type             X           Y           Z
 ---------------------------------------------------------------------
      1          6           0       -1.962111   -0.109206   -0.092773
      2          6           0       -0.765226   -0.682340    0.100087
      3          7           0        0.448557   -0.020319    0.299418
      4          7           0        0.520678    1.352158   -0.049545
      5          7           0        1.570472   -0.779576   -0.113844
      6          1           0       -2.844716   -0.729721   -0.183341
      7          1           0       -2.105762    0.964966   -0.123660
      8          1           0       -0.651738   -1.759926    0.154415
      9          1           0        0.124977    1.891217    0.718253
     10          1           0       -0.069371    1.524338   -0.871422
     11          1           0        2.367247   -0.425033    0.409645
     12          1           0        1.765437   -0.582409   -1.099979
 ---------------------------------------------------------------------

 SCF Done:  E(RB3LYP) =  -244.598679229     A.U. after    1 cycles

 The electronic state is 1-A.
 Alpha  occ. eigenvalues --  -14.39305 -14.35289 -14.34865 -10.21112 -10.16382
 Alpha  occ. eigenvalues --   -1.01780  -0.86830  -0.78586  -0.69256  -0.57206
 Alpha  occ. eigenvalues --   -0.52170  -0.50712  -0.48782  -0.47062  -0.41159
 Alpha  occ. eigenvalues --   -0.36974  -0.31244  -0.28677  -0.25650  -0.20609
 Alpha virt. eigenvalues --    0.03538   0.08021   0.10368   0.12867   0.15094
 Alpha virt. eigenvalues --    0.15741   0.16895   0.17351   0.21399   0.24591
 Alpha virt. eigenvalues --    0.31997   0.37322   0.52047   0.55847   0.58975

 Mulliken charges:
               1
     1  C   -0.305795
     2  C    0.157920
     3  N   -0.251218
     4  N   -0.452615
     5  N   -0.427981
     6  H    0.097176
     7  H    0.071310
     8  H    0.114080
     9  H    0.266274
    10  H    0.233966
    11  H    0.259092
    12  H    0.237793
 Sum of Mulliken charges =  -0.00000

 Dipole moment (field-independent basis, Debye):
    X=              0.1688    Y=              1.1065    Z=             -0.6375  Tot=              1.2882
 Quadrupole moment (field-independent basis, Debye-Ang):
   XX=            -29.3063   YY=            -30.5189   ZZ=            -30.7736
   XY=             -0.7721   XZ=             -0.2777   YZ=              0.8833

  Exact polarizability:  61.036  -3.310  43.310   1.555  -0.221  27.989
 Approx polarizability:  86.905  -8.622  60.220   5.651  -1.193  40.853

                      1                      2                      3
                      A                      A                      A
 Frequencies --    161.7633               307.2013               313.1248
 Red. masses --      2.0519                 1.8845                 2.0715
 Frc consts  --      0.0316                 0.1048                 0.1197
 IR Inten    --     15.5384                12.6656                11.1904

                      4                      5                      6
                      A                      A                      A
 Frequencies --    349.2916               399.0846               484.7108
 Red. masses --      1.2419                 1.3311                 2.8307
 Frc consts  --      0.0893                 0.1249                 0.3918
 IR Inten    --     70.9528                 5.6476                32.5012

                      7                      8                      9
                      A                      A                      A
 Frequencies --    589.0668               716.2217               802.3188
 Red. masses --      2.5226                 1.6111                 3.2344
 Frc consts  --      0.5157                 0.4869                 1.2267
 IR Inten    --      3.3185                 7.0778                35.3071

                     10                     11                     12
                      A                      A                      A
 Frequencies --    818.8129               908.2834               977.4719
 Red. masses --      1.4641                 2.1257                 1.6394
 Frc consts  --      0.5783                 1.0332                 0.9229
 IR Inten    --     44.6035               146.4609                42.9655

                     13                     14                     15
                      A                      A                      A
 Frequencies --   1014.3870              1055.4049              1236.5019
 Red. masses --      1.1298                 1.3878                 2.7055
 Frc consts  --      0.6850                 0.9108                 2.4371
 IR Inten    --     14.6613                 8.0924                35.4620

                     16                     17                     18
                      A                      A                      A
 Frequencies --   1275.8688              1318.7035              1325.8012
 Red. masses --      1.6615                 1.4086                 1.2816
 Frc consts  --      1.5936                 1.4432                 1.3273
 IR Inten    --     19.7794                10.0265                23.2995

                     19                     20                     21
                      A                      A                      A
 Frequencies --   1352.7871              1459.7291              1679.7444
 Red. masses --      1.3305                 1.2816                 1.0844
 Frc consts  --      1.4346                 1.6090                 1.8027
 IR Inten    --     38.7694                 4.5968                15.9291

                     22                     23                     24
                      A                      A                      A
 Frequencies --   1691.3095              1715.7905              3180.9998
 Red. masses --      1.5374                 2.0172                 1.0589
 Frc consts  --      2.5911                 3.4988                 6.3127
 IR Inten    --     34.2418                79.9966                 3.8213

                     25                     26                     27
                      A                      A                      A
 Frequencies --   3215.7201              3268.8103              3374.1620
 Red. masses --      1.0937                 1.1149                 1.0557
 Frc consts  --      6.6634                 7.0186                 7.0811
 IR Inten    --      2.7615                10.5932                16.7329

                     28                     29                     30
                      A                      A                      A
 Frequencies --   3401.0879              3529.1423              3545.6548
 Red. masses --      1.0566                 1.0854                 1.0848
 Frc consts  --      7.2008                 7.9646                 8.0350
 IR Inten    --     20.2398                 0.5428                 1.5079

 - Thermochemistry -
 -------------------
 Temperature   298.150 Kelvin.  Pressure   1.00000 Atm.
 Atom     1 has atomic number  6 and mass  12.00000

 Molecular mass:    73.06400 amu.
 Principal axes and moments of inertia in atomic units:
                           1         2         3
     Eigenvalues --   197.57051 430.83637 596.78697
           X            0.99994  -0.01105  -0.00111
           Y            0.01106   0.99993   0.00487
           Z            0.00105  -0.00488   0.99999
 This molecule is an asymmetric top.
 Rotational symmetry number  1.
 Rotational temperatures (Kelvin)      0.43839     0.20104     0.14513
 Rotational constants (GHZ):           9.13467     4.18892     3.02410
 Zero-point vibrational energy     271964.8 (Joules/Mol)
                                   65.00114 (Kcal/Mol)
 Warning -- explicit consideration of   7 degrees of freedom as
           vibrations may cause significant error
 Vibrational temperatures:    232.74   441.99   450.52   502.55   574.19
          (Kelvin)            697.39   847.53  1030.48  1154.36  1178.09
                             1306.82  1406.36  1459.47  1518.49  1779.05
                             1835.69  1897.32  1907.53  1946.36  2100.22
                             2416.77  2433.41  2468.64  4576.74  4626.70
                             4703.08  4854.66  4893.40  5077.64  5101.40

 Zero-point correction=                           0.103586 (Hartree/Particle)
 Thermal correction to Energy=                    0.109414
 Thermal correction to Enthalpy=                  0.110358
 Thermal correction to Gibbs Free Energy=         0.075188
 Sum of electronic and zero-point Energies=           -244.495093
 Sum of electronic and thermal Energies=              -244.489265
 Sum of electronic and thermal Enthalpies=            -244.488321
 Sum of electronic and thermal Free Energies=         -244.523492

                     E (Thermal)             CV                S
                      KCal/Mol        Cal/Mol-Kelvin    Cal/Mol-Kelvin
 Total                   68.658             21.127             74.022
 Electronic               0.000              0.000              0.000
 Translational            0.889              2.981             38.783
 Rotational               0.889              2.981             25.433
 Vibrational             66.881             15.165              9.807
 Vibration     1          0.622              1.889              2.529
 Vibration     2          0.697              1.660              1.377
 Vibration     3          0.701              1.649              1.346
 Vibration     4          0.727              1.577              1.169
 Vibration     5          0.765              1.472              0.966
 Vibration     6          0.841              1.284              0.697
 Vibration     7          0.946              1.055              0.469

 Optimization completed.
    -- Stationary point found.
 Normal termination of Gaussian 09 at Fri Sep 10 15:28:06 2021.
