 Gaussian 09, Revision D.01,
 Gaussian 09:  ES64L-G09RevD.01 24-Apr-2013

 -------------------------
 #P OPT Freq B3LYP/6-31G**
 -------------------------

 --------
 Frag_101
 --------
 Symbolic Z-matrix:
 Charge =  0 Multiplicity = 1

 SCF Done:  E(RB3LYP) =  -174.493557396     A.U. after   12 cycles
 Optimization completed.
    -- Stationary point found.
 Normal termination of Gaussian 09 at Fri Jul 23 19:54:41 2021.

 ----------------------------------------------------------------------
 #P Geom=AllCheck Guess=TCheck SCRF=Check GenChk RB3LYP/6-31G(d,p) Freq
 ----------------------------------------------------------------------

 Structure from the checkpoint file:  "/vol2/users/liuj201281/HOFBenchmark/IsodesmicSplit/Sample60/Ring26/Running/Gau-466606.chk"
 --------
 Frag_101
 --------
 Charge =  0 Multiplicity = 1

                         Standard orientation:
 ---------------------------------------------------------------------
 Center     Atomic      Atomic             Coordinates (Angstroms)
 Number     Number       Type             X           Y           Z
 ---------------------------------------------------------------------
      1          6           0       -1.902023   -0.142872   -0.028488
      2          6           0       -0.521713    0.503508    0.051112
      3          7           0        0.535272   -0.490208   -0.114388
      4          6           0        1.875280    0.072072   -0.006688
      5          1           0       -2.023631   -0.673470   -0.977088
      6          1           0       -2.046933   -0.865970    0.783312
      7          1           0       -2.692212    0.609640    0.056012
      8          1           0       -0.430505    1.071806    0.998312
      9          1           0       -0.413602    1.240706   -0.755888
     10          1           0        0.418661   -1.213206    0.592612
     11          1           0        2.062289    0.637269    0.925712
     12          1           0        2.051691    0.757169   -0.843988
     13          1           0        2.618069   -0.728739   -0.073888
 ---------------------------------------------------------------------

 SCF Done:  E(RB3LYP) =  -174.493557396     A.U. after    1 cycles

 The electronic state is 1-A.
 Alpha  occ. eigenvalues --  -14.31124 -10.20215 -10.19703 -10.17239  -0.89356
 Alpha  occ. eigenvalues --   -0.74080  -0.65202  -0.59881  -0.47674  -0.44683
 Alpha  occ. eigenvalues --   -0.43743  -0.40682  -0.37716  -0.35385  -0.34510
 Alpha  occ. eigenvalues --   -0.33950  -0.21496
 Alpha virt. eigenvalues --    0.08863   0.12194   0.12937   0.15845   0.16040
 Alpha virt. eigenvalues --    0.17328   0.18359   0.18860   0.19983   0.22925
 Alpha virt. eigenvalues --    0.25192   0.26840   0.50157   0.51397   0.54815

 Mulliken charges:
               1
     1  C   -0.327564
     2  C   -0.024746
     3  N   -0.489588
     4  C   -0.167285
     5  H    0.119552
     6  H    0.097702
     7  H    0.101831
     8  H    0.067810
     9  H    0.099745
    10  H    0.231082
    11  H    0.077389
    12  H    0.110615
    13  H    0.103455
 Sum of Mulliken charges =   0.00000

 Dipole moment (field-independent basis, Debye):
    X=              0.0379    Y=              0.1954    Z=              0.9098  Tot=              0.9313
 Quadrupole moment (field-independent basis, Debye-Ang):
   XX=            -26.2438   YY=            -26.9418   ZZ=            -27.7443
   XY=             -0.2432   XZ=              0.3104   YZ=             -1.8580

  Exact polarizability:  48.666  -0.354  39.348  -0.026  -0.604  36.890
 Approx polarizability:  55.205  -0.721  54.499  -0.269  -0.878  51.342

                      1                      2                      3
                      A                      A                      A
 Frequencies --    125.0649               228.8074               269.8979
 Red. masses --      2.1872                 1.0454                 1.6686
 Frc consts  --      0.0202                 0.0322                 0.0716
 IR Inten    --      1.7948                 0.3185                 0.9733

                      4                      5                      6
                      A                      A                      A
 Frequencies --    282.6265               452.6421               775.8749
 Red. masses --      1.4681                 2.7754                 1.4101
 Frc consts  --      0.0691                 0.3350                 0.5001
 IR Inten    --      2.7918                 0.8269                95.5998

                      7                      8                      9
                      A                      A                      A
 Frequencies --    822.2053               898.8809              1029.3740
 Red. masses --      1.1193                 1.4532                 2.4124
 Frc consts  --      0.4458                 0.6918                 1.5061
 IR Inten    --      0.8347                 6.7652                 6.6623

                     10                     11                     12
                      A                      A                      A
 Frequencies --   1060.4984              1115.4937              1152.2108
 Red. masses --      1.4176                 1.3499                 3.1501
 Frc consts  --      0.9394                 0.9897                 2.4640
 IR Inten    --      6.7083                 3.3394                29.9106

                     13                     14                     15
                      A                      A                      A
 Frequencies --   1195.5077              1249.5021              1310.9081
 Red. masses --      1.8383                 1.8157                 1.1758
 Frc consts  --      1.5480                 1.6702                 1.1905
 IR Inten    --     19.8195                 1.7873                 5.4268

                     16                     17                     18
                      A                      A                      A
 Frequencies --   1390.6400              1428.2446              1471.7817
 Red. masses --      1.2929                 1.3072                 1.1823
 Frc consts  --      1.4732                 1.5711                 1.5089
 IR Inten    --     11.9040                10.5880                 0.4080

                     19                     20                     21
                      A                      A                      A
 Frequencies --   1489.3034              1502.6188              1510.9016
 Red. masses --      1.1748                 1.0519                 1.0830
 Frc consts  --      1.5353                 1.3993                 1.4567
 IR Inten    --     13.4017                 5.8724                 5.8090

                     22                     23                     24
                      A                      A                      A
 Frequencies --   1513.0083              1531.2993              1539.9130
 Red. masses --      1.0380                 1.0607                 1.0878
 Frc consts  --      1.4000                 1.4655                 1.5198
 IR Inten    --      5.6474                11.0410                 0.4624

                     25                     26                     27
                      A                      A                      A
 Frequencies --   2914.2272              2941.0873              3037.8596
 Red. masses --      1.0741                 1.0610                 1.0653
 Frc consts  --      5.3748                 5.4072                 5.7924
 IR Inten    --     78.7509               120.0202                 9.5106

                     28                     29                     30
                      A                      A                      A
 Frequencies --   3043.1180              3063.4596              3107.6689
 Red. masses --      1.0580                 1.0733                 1.0989
 Frc consts  --      5.7725                 5.9347                 6.2530
 IR Inten    --     43.6449                44.0595                41.3906

                     31                     32                     33
                      A                      A                      A
 Frequencies --   3111.8737              3130.8692              3503.1220
 Red. masses --      1.1019                 1.1030                 1.0740
 Frc consts  --      6.2871                 6.3704                 7.7652
 IR Inten    --     35.1700                29.1360                 1.3456

 - Thermochemistry -
 -------------------
 Temperature   298.150 Kelvin.  Pressure   1.00000 Atm.
 Atom     1 has atomic number  6 and mass  12.00000

 Molecular mass:    59.07350 amu.
 Principal axes and moments of inertia in atomic units:
                           1         2         3
     Eigenvalues --    68.98365 463.55682 494.78989
           X            0.99996   0.00885   0.00227
           Y           -0.00868   0.99796  -0.06323
           Z           -0.00282   0.06321   0.99800
 This molecule is an asymmetric top.
 Rotational symmetry number  1.
 Rotational temperatures (Kelvin)      1.25557     0.18685     0.17505
 Rotational constants (GHZ):          26.16187     3.89325     3.64749
 Zero-point vibrational energy     318209.6 (Joules/Mol)
                                   76.05392 (Kcal/Mol)
 Warning -- explicit consideration of   5 degrees of freedom as
           vibrations may cause significant error
 Vibrational temperatures:    179.94   329.20   388.32   406.64   651.25
          (Kelvin)           1116.31  1182.97  1293.29  1481.04  1525.82
                             1604.94  1657.77  1720.07  1797.75  1886.10
                             2000.82  2054.92  2117.56  2142.77  2161.93
                             2173.85  2176.88  2203.20  2215.59  4192.92
                             4231.56  4370.80  4378.36  4407.63  4471.24
                             4477.29  4504.62  5040.20

 Zero-point correction=                           0.121200 (Hartree/Particle)
 Thermal correction to Energy=                    0.126807
 Thermal correction to Enthalpy=                  0.127751
 Thermal correction to Gibbs Free Energy=         0.093412
 Sum of electronic and zero-point Energies=           -174.372358
 Sum of electronic and thermal Energies=              -174.366750
 Sum of electronic and thermal Enthalpies=            -174.365806
 Sum of electronic and thermal Free Energies=         -174.400146

                     E (Thermal)             CV                S
                      KCal/Mol        Cal/Mol-Kelvin    Cal/Mol-Kelvin
 Total                   79.573             18.693             72.274
 Electronic               0.000              0.000              0.000
 Translational            0.889              2.981             38.149
 Rotational               0.889              2.981             24.274
 Vibrational             77.795             12.732              9.851
 Vibration     1          0.610              1.928              3.021
 Vibration     2          0.651              1.797              1.888
 Vibration     3          0.674              1.729              1.597
 Vibration     4          0.682              1.706              1.518
 Vibration     5          0.811              1.355              0.788

 Optimization completed.
    -- Stationary point found.
 Normal termination of Gaussian 09 at Fri Jul 23 19:55:05 2021.
