 Gaussian 09, Revision E.01,
 Gaussian 09:  ES64L-G09RevE.01 30-Nov-2015

 ----------------------------
 #P OPT Freq B3LYP/6-31G(d,p)
 ----------------------------

 ---------
 Frag_1079
 ---------
 Symbolic Z-matrix:
 Charge =  0 Multiplicity = 1

 SCF Done:  E(RB3LYP) =  -303.842726069     A.U. after   14 cycles
 SCF Done:  E(RB3LYP) =  -303.842784910     A.U. after    9 cycles
 SCF Done:  E(RB3LYP) =  -303.842790352     A.U. after    8 cycles
 SCF Done:  E(RB3LYP) =  -303.842791700     A.U. after    8 cycles
 SCF Done:  E(RB3LYP) =  -303.842792207     A.U. after    7 cycles
 SCF Done:  E(RB3LYP) =  -303.842792440     A.U. after    7 cycles
 Optimization completed.
    -- Stationary point found.
 Normal termination of Gaussian 09 at Thu Sep  8 14:48:21 2022.

 ----------------------------------------------------------------------
 #P Geom=AllCheck Guess=TCheck SCRF=Check GenChk RB3LYP/6-31G(d,p) Freq
 ----------------------------------------------------------------------

 Structure from the checkpoint file:  "B3LYP6-31Gdp.Frag_1079.chk"
 ---------
 Frag_1079
 ---------
 Charge =  0 Multiplicity = 1

                         Standard orientation:
 ---------------------------------------------------------------------
 Center     Atomic      Atomic             Coordinates (Angstroms)
 Number     Number       Type             X           Y           Z
 ---------------------------------------------------------------------
      1          6           0       -2.161698   -0.007423   -0.056731
      2          6           0       -1.004860   -0.665055   -0.031261
      3          6           0        0.368945   -0.015684   -0.008293
      4          7           0        0.288241    1.391071   -0.369266
      5          7           0        1.249890   -0.758362   -0.890479
      6          8           0        0.905869   -0.083633    1.320908
      7          1           0       -3.111033   -0.533837   -0.033675
      8          1           0       -2.187679    1.076802   -0.098726
      9          1           0       -0.990257   -1.752410    0.025415
     10          1           0        1.203887    1.809947   -0.220043
     11          1           0        0.072372    1.468461   -1.360573
     12          1           0        2.196578   -0.399435   -0.770559
     13          1           0        1.279961   -1.733186   -0.595019
     14          1           0        0.307983    0.432735    1.881839
 ---------------------------------------------------------------------

 SCF Done:  E(RB3LYP) =  -303.842792440     A.U. after    1 cycles

 The electronic state is 1-A.
 Alpha  occ. eigenvalues --  -19.14136 -14.31667 -14.31574 -10.29059 -10.18638
 Alpha  occ. eigenvalues --  -10.17903  -1.03071  -0.89927  -0.84411  -0.76367
 Alpha  occ. eigenvalues --   -0.63644  -0.56020  -0.51985  -0.49319  -0.47780
 Alpha  occ. eigenvalues --   -0.45866  -0.42499  -0.41076  -0.36969  -0.34006
 Alpha  occ. eigenvalues --   -0.28838  -0.26712  -0.25562  -0.24862
 Alpha virt. eigenvalues --    0.01531   0.07698   0.11235   0.12068   0.12760
 Alpha virt. eigenvalues --    0.15105   0.16610   0.18005   0.20559   0.25097
 Alpha virt. eigenvalues --    0.26870   0.28407   0.31001   0.36473   0.51688

 Mulliken charges:
               1
     1  C   -0.247938
     2  C   -0.015567
     3  C    0.406311
     4  N   -0.595651
     5  N   -0.573828
     6  O   -0.541388
     7  H    0.096662
     8  H    0.117008
     9  H    0.082092
    10  H    0.239374
    11  H    0.251014
    12  H    0.234787
    13  H    0.240633
    14  H    0.306491
 Sum of Mulliken charges =  -0.00000

 Dipole moment (field-independent basis, Debye):
    X=              0.3201    Y=              0.2101    Z=             -0.0170  Tot=              0.3833
 Quadrupole moment (field-independent basis, Debye-Ang):
   XX=            -33.4443   YY=            -34.0032   ZZ=            -38.2877
   XY=              1.4991   XZ=             -1.7344   YZ=             -0.7661

  Exact polarizability:  61.818  -3.112  49.165  -0.574  -0.014  36.452
 Approx polarizability:  85.318  -9.810  69.882   1.245  -0.007  52.092

                      1                      2                      3
                      A                      A                      A
 Frequencies --    119.7860               258.2435               279.3758
 Red. masses --      2.5934                 1.1818                 1.8117
 Frc consts  --      0.0219                 0.0464                 0.0833
 IR Inten    --      0.1049                22.1362                 1.7204

                      4                      5                      6
                      A                      A                      A
 Frequencies --    303.5996               333.1146               399.2828
 Red. masses --      1.3533                 1.8649                 2.0979
 Frc consts  --      0.0735                 0.1219                 0.1971
 IR Inten    --     20.7101                 4.2082                59.4792

                      7                      8                      9
                      A                      A                      A
 Frequencies --    431.3423               463.7097               528.1942
 Red. masses --      1.5590                 2.3727                 2.4962
 Frc consts  --      0.1709                 0.3006                 0.4103
 IR Inten    --     62.5257                14.6710                90.5779

                     10                     11                     12
                      A                      A                      A
 Frequencies --    579.1721               717.6781               774.9475
 Red. masses --      2.6520                 1.9476                 3.4913
 Frc consts  --      0.5241                 0.5910                 1.2353
 IR Inten    --     14.6611                 1.0703                 6.0265

                     13                     14                     15
                      A                      A                      A
 Frequencies --    892.9109               903.1184               962.1656
 Red. masses --      1.7135                 1.7100                 2.0122
 Frc consts  --      0.8049                 0.8217                 1.0975
 IR Inten    --     60.5830               160.1054               107.6230

                     16                     17                     18
                      A                      A                      A
 Frequencies --    969.2021              1028.7499              1056.0631
 Red. masses --      1.3789                 1.1071                 1.6148
 Frc consts  --      0.7632                 0.6904                 1.0611
 IR Inten    --     33.1979                16.5959                69.3548

                     19                     20                     21
                      A                      A                      A
 Frequencies --   1069.1094              1120.1707              1263.3410
 Red. masses --      1.8102                 1.5759                 1.6942
 Frc consts  --      1.2191                 1.1651                 1.5931
 IR Inten    --    103.6637                36.0003                47.6179

                     22                     23                     24
                      A                      A                      A
 Frequencies --   1319.6152              1362.3671              1397.0011
 Red. masses --      1.3246                 1.6304                 1.8179
 Frc consts  --      1.3591                 1.7829                 2.0903
 IR Inten    --     29.7105                99.1599                23.8615

                     25                     26                     27
                      A                      A                      A
 Frequencies --   1456.2035              1642.2463              1669.0645
 Red. masses --      1.3647                 1.1210                 1.1041
 Frc consts  --      1.7050                 1.7813                 1.8122
 IR Inten    --     41.4515                36.2507                30.3010

                     28                     29                     30
                      A                      A                      A
 Frequencies --   1728.9559              3155.0135              3168.7356
 Red. masses --      4.7207                 1.0676                 1.0828
 Frc consts  --      8.3142                 6.2610                 6.4060
 IR Inten    --      1.2517                11.5689                10.5938

                     31                     32                     33
                      A                      A                      A
 Frequencies --   3251.9265              3471.3515              3491.2952
 Red. masses --      1.1163                 1.0495                 1.0491
 Frc consts  --      6.9551                 7.4512                 7.5343
 IR Inten    --      8.1033                 0.5175                 0.3445

                     34                     35                     36
                      A                      A                      A
 Frequencies --   3555.8556              3584.1384              3784.6131
 Red. masses --      1.0915                 1.0928                 1.0652
 Frc consts  --      8.1315                 8.2713                 8.9893
 IR Inten    --      0.1257                 1.4355                10.7683

 - Thermochemistry -
 -------------------
 Temperature   298.150 Kelvin.  Pressure   1.00000 Atm.
 Atom     1 has atomic number  6 and mass  12.00000

 Molecular mass:    88.06366 amu.
 Principal axes and moments of inertia in atomic units:
                           1         2         3
     Eigenvalues --   361.87900 632.08361 655.84686
           X            0.99972   0.00324  -0.02332
           Y           -0.00459   0.99829  -0.05821
           Z            0.02309   0.05830   0.99803
 This molecule is an asymmetric top.
 Rotational symmetry number  1.
 Rotational temperatures (Kelvin)      0.23934     0.13703     0.13206
 Rotational constants (GHZ):           4.98714     2.85523     2.75177
 Zero-point vibrational energy     313969.9 (Joules/Mol)
                                   75.04060 (Kcal/Mol)
 Warning -- explicit consideration of  10 degrees of freedom as
           vibrations may cause significant error
 Vibrational temperatures:    172.35   371.55   401.96   436.81   479.28
          (Kelvin)            574.48   620.60   667.17   759.95   833.30
                             1032.58  1114.98  1284.70  1299.38  1384.34
                             1394.46  1480.14  1519.44  1538.21  1611.67
                             1817.66  1898.63  1960.14  2009.97  2095.15
                             2362.82  2401.41  2487.58  4539.36  4559.10
                             4678.79  4994.49  5023.19  5116.08  5156.77
                             5445.21

 Zero-point correction=                           0.119585 (Hartree/Particle)
 Thermal correction to Energy=                    0.126602
 Thermal correction to Enthalpy=                  0.127546
 Thermal correction to Gibbs Free Energy=         0.089591
 Sum of electronic and zero-point Energies=           -303.723208
 Sum of electronic and thermal Energies=              -303.716191
 Sum of electronic and thermal Enthalpies=            -303.715247
 Sum of electronic and thermal Free Energies=         -303.753201

                     E (Thermal)             CV                S
                      KCal/Mol        Cal/Mol-Kelvin    Cal/Mol-Kelvin
 Total                   79.444             26.403             79.882
 Electronic               0.000              0.000              0.000
 Translational            0.889              2.981             39.339
 Rotational               0.889              2.981             26.509
 Vibrational             77.666             20.441             14.034
 Vibration     1          0.609              1.933              3.104
 Vibration     2          0.667              1.749              1.674
 Vibration     3          0.680              1.712              1.537
 Vibration     4          0.695              1.667              1.397
 Vibration     5          0.715              1.609              1.245
 Vibration     6          0.765              1.472              0.965
 Vibration     7          0.792              1.402              0.854
 Vibration     8          0.821              1.331              0.755
 Vibration     9          0.883              1.188              0.591
 Vibration    10          0.936              1.076              0.487

 Optimization completed.
    -- Stationary point found.
 Normal termination of Gaussian 09 at Thu Sep  8 14:48:33 2022.
