 Gaussian 09, Revision D.01,
 Gaussian 09:  ES64L-G09RevD.01 24-Apr-2013

 -------------------------
 #P OPT Freq B3LYP/6-31G**
 -------------------------

 --------
 Frag_105
 --------
 Symbolic Z-matrix:
 Charge =  0 Multiplicity = 1

 SCF Done:  E(RB3LYP) =  -211.365637368     A.U. after   14 cycles
 SCF Done:  E(RB3LYP) =  -211.365637796     A.U. after    7 cycles
 Optimization completed.
    -- Stationary point found.
 Normal termination of Gaussian 09 at Fri Jul 23 08:42:06 2021.

 ----------------------------------------------------------------------
 #P Geom=AllCheck Guess=TCheck SCRF=Check GenChk RB3LYP/6-31G(d,p) Freq
 ----------------------------------------------------------------------

 Structure from the checkpoint file:  "/vol2/users/liuj201281/HOFBenchmark/IsodesmicSplit/Sample60/Ring26/Running/Gau-255906.chk"
 --------
 Frag_105
 --------
 Charge =  0 Multiplicity = 1

                         Standard orientation:
 ---------------------------------------------------------------------
 Center     Atomic      Atomic             Coordinates (Angstroms)
 Number     Number       Type             X           Y           Z
 ---------------------------------------------------------------------
      1          6           0        0.629982    1.682719    0.000000
      2          6           0        0.000000    0.498424    0.000000
      3          6           0       -1.501379    0.368810    0.000000
      4          6           0        0.814829   -0.737154    0.000000
      5          7           0        0.418763   -1.951581    0.000000
      6          1           0        0.088316    2.623655    0.000000
      7          1           0        1.714882    1.742645    0.000000
      8          1           0       -1.982000    1.349447    0.000000
      9          1           0       -1.852429   -0.180534    0.881910
     10          1           0       -1.852429   -0.180534   -0.881910
     11          1           0        1.898364   -0.572022    0.000000
     12          1           0       -0.606633   -1.998389    0.000000
 ---------------------------------------------------------------------

 SCF Done:  E(RB3LYP) =  -211.365637796     A.U. after    1 cycles

 The electronic state is 1-A'.
 Alpha  occ. eigenvalues --  -14.31937 -10.23022 -10.21113 -10.19889 -10.19652
 Alpha  occ. eigenvalues --   -0.90184  -0.80398  -0.70554  -0.62815  -0.54915
 Alpha  occ. eigenvalues --   -0.49113  -0.45513  -0.43079  -0.40862  -0.39023
 Alpha  occ. eigenvalues --   -0.37150  -0.33836  -0.26080  -0.26013
 Alpha virt. eigenvalues --   -0.04062   0.06922   0.08866   0.11175   0.13103
 Alpha virt. eigenvalues --    0.15272   0.17195   0.17954   0.19654   0.23637
 Alpha virt. eigenvalues --    0.32680   0.34005   0.39246   0.50399   0.51905

 Mulliken charges:
               1
     1  C   -0.279137
     2  C    0.163823
     3  C   -0.394408
     4  C    0.093239
     5  N   -0.485854
     6  H    0.104587
     7  H    0.108792
     8  H    0.117659
     9  H    0.127113
    10  H    0.127113
    11  H    0.094499
    12  H    0.222575
 Sum of Mulliken charges =   0.00000

 Dipole moment (field-independent basis, Debye):
    X=             -1.2801    Y=              2.3128    Z=              0.0000  Tot=              2.6434
 Quadrupole moment (field-independent basis, Debye-Ang):
   XX=            -28.4551   YY=            -35.2204   ZZ=            -32.3581
   XY=              3.5545   XZ=              0.0000   YZ=              0.0000

  Exact polarizability:  51.171   7.442  70.889   0.000   0.000  25.306
 Approx polarizability:  69.442  19.145 122.297   0.000   0.000  36.210

                      1                      2                      3
                     A"                     A"                     A'
 Frequencies --    165.5268               185.1052               284.9415
 Red. masses --      2.2273                 1.0363                 3.2285
 Frc consts  --      0.0360                 0.0209                 0.1544
 IR Inten    --      0.0356                 0.7068                 3.8277

                      4                      5                      6
                     A'                     A"                     A'
 Frequencies --    415.8460               416.6997               592.0737
 Red. masses --      2.2318                 2.1128                 3.1314
 Frc consts  --      0.2274                 0.2161                 0.6468
 IR Inten    --      1.7653                 0.8074                 4.6498

                      7                      8                      9
                     A"                     A'                     A"
 Frequencies --    686.6024               810.5610               875.4356
 Red. masses --      1.0527                 3.5744                 1.8274
 Frc consts  --      0.2924                 1.3837                 0.8251
 IR Inten    --      8.6056                 3.2646                23.8295

                     10                     11                     12
                     A"                     A'                     A'
 Frequencies --    953.4858               981.1692              1031.3063
 Red. masses --      1.3472                 1.5867                 1.4178
 Frc consts  --      0.7216                 0.9000                 0.8885
 IR Inten    --     29.5458                 0.6408                 1.2046

                     13                     14                     15
                     A"                     A"                     A'
 Frequencies --   1073.4438              1132.1349              1239.3704
 Red. masses --      1.5270                 1.0908                 1.3083
 Frc consts  --      1.0367                 0.8237                 1.1840
 IR Inten    --      1.8007                43.8714                86.1035

                     16                     17                     18
                     A'                     A'                     A'
 Frequencies --   1337.4679              1413.4823              1430.6878
 Red. masses --      2.3479                 1.2060                 1.3826
 Frc consts  --      2.4746                 1.4196                 1.6674
 IR Inten    --     18.5804                 4.5824                16.5000

                     19                     20                     21
                     A'                     A"                     A'
 Frequencies --   1467.4553              1493.6908              1510.3510
 Red. masses --      1.2071                 1.0433                 1.0576
 Frc consts  --      1.5316                 1.3714                 1.4214
 IR Inten    --      6.7283                 6.8806                 7.5875

                     22                     23                     24
                     A'                     A'                     A'
 Frequencies --   1689.5089              1719.1639              3036.5314
 Red. masses --      6.5980                 5.5894                 1.0387
 Frc consts  --     11.0965                 9.7331                 5.6428
 IR Inten    --     59.2425                25.9090                15.0471

                     25                     26                     27
                     A'                     A"                     A'
 Frequencies --   3085.5963              3089.6919              3137.5948
 Red. masses --      1.0880                 1.1004                 1.0998
 Frc consts  --      6.1032                 6.1890                 6.3789
 IR Inten    --     33.1656                17.0349                11.7556

                     28                     29                     30
                     A'                     A'                     A'
 Frequencies --   3156.6010              3242.8329              3420.7596
 Red. masses --      1.0602                 1.1164                 1.0732
 Frc consts  --      6.2243                 6.9172                 7.3994
 IR Inten    --      5.6307                10.5092                 5.3826

 - Thermochemistry -
 -------------------
 Temperature   298.150 Kelvin.  Pressure   1.00000 Atm.
 Atom     1 has atomic number  6 and mass  12.00000

 Molecular mass:    69.05785 amu.
 Principal axes and moments of inertia in atomic units:
                           1         2         3
     Eigenvalues --   212.04621 422.57945 623.42893
           X           -0.19222   0.98135   0.00000
           Y            0.98135   0.19222   0.00000
           Z            0.00000   0.00000   1.00000
 This molecule is an asymmetric top.
 Rotational symmetry number  1.
 Rotational temperatures (Kelvin)      0.40847     0.20496     0.13893
 Rotational constants (GHZ):           8.51108     4.27077     2.89486
 Zero-point vibrational energy     269609.1 (Joules/Mol)
                                   64.43812 (Kcal/Mol)
 Warning -- explicit consideration of   6 degrees of freedom as
           vibrations may cause significant error
 Vibrational temperatures:    238.16   266.32   409.97   598.31   599.54
          (Kelvin)            851.86   987.87  1166.22  1259.56  1371.85
                             1411.68  1483.82  1544.44  1628.89  1783.18
                             1924.32  2033.68  2058.44  2111.34  2149.09
                             2173.06  2430.82  2473.49  4368.89  4439.48
                             4445.37  4514.29  4541.64  4665.71  4921.70

 Zero-point correction=                           0.102689 (Hartree/Particle)
 Thermal correction to Energy=                    0.108390
 Thermal correction to Enthalpy=                  0.109334
 Thermal correction to Gibbs Free Energy=         0.074215
 Sum of electronic and zero-point Energies=           -211.262949
 Sum of electronic and thermal Energies=              -211.257248
 Sum of electronic and thermal Enthalpies=            -211.256304
 Sum of electronic and thermal Free Energies=         -211.291423

                     E (Thermal)             CV                S
                      KCal/Mol        Cal/Mol-Kelvin    Cal/Mol-Kelvin
 Total                   68.016             19.894             73.914
 Electronic               0.000              0.000              0.000
 Translational            0.889              2.981             38.614
 Rotational               0.889              2.981             25.527
 Vibrational             66.238             13.932              9.772
 Vibration     1          0.624              1.885              2.486
 Vibration     2          0.631              1.860              2.276
 Vibration     3          0.683              1.702              1.504
 Vibration     4          0.779              1.436              0.906
 Vibration     5          0.780              1.434              0.903
 Vibration     6          0.950              1.049              0.463

 Optimization completed.
    -- Stationary point found.
 Normal termination of Gaussian 09 at Fri Jul 23 08:42:16 2021.
