 Gaussian 09, Revision D.01,
 Gaussian 09:  ES64L-G09RevD.01 24-Apr-2013

 -------------------------
 #P OPT Freq B3LYP/6-31G**
 -------------------------

 -------
 Frag_98
 -------
 Symbolic Z-matrix:
 Charge =  0 Multiplicity = 1

 SCF Done:  E(RB3LYP) =  -245.840939130     A.U. after   12 cycles
 Optimization completed.
    -- Stationary point found.
 Normal termination of Gaussian 09 at Fri Jul 23 05:58:59 2021.

 ----------------------------------------------------------------------
 #P Geom=AllCheck Guess=TCheck SCRF=Check GenChk RB3LYP/6-31G(d,p) Freq
 ----------------------------------------------------------------------

 Structure from the checkpoint file:  "/vol2/users/liuj201281/HOFBenchmark/IsodesmicSplit/Sample60/Ring26/Running/Gau-259918.chk"
 -------
 Frag_98
 -------
 Charge =  0 Multiplicity = 1

                         Standard orientation:
 ---------------------------------------------------------------------
 Center     Atomic      Atomic             Coordinates (Angstroms)
 Number     Number       Type             X           Y           Z
 ---------------------------------------------------------------------
      1          6           0       -1.578312   -0.840600   -0.096902
      2          7           0       -0.410309    0.010596   -0.287202
      3          7           0       -0.649006    1.359997    0.113198
      4          6           0        0.788089   -0.503407    0.370498
      5          7           0        1.975391    0.105890   -0.202202
      6          1           0       -1.366515   -1.859501   -0.436002
      7          1           0       -2.408411   -0.450798   -0.694302
      8          1           0       -1.914912   -0.892499    0.957798
      9          1           0       -1.275106    1.378499    0.926298
     10          1           0       -1.132804    1.826998   -0.649502
     11          1           0        0.786090   -0.285007    1.453598
     12          1           0        0.742886   -1.601707    0.262998
     13          1           0        2.798390   -0.166913    0.328198
     14          1           0        2.099190   -0.220411   -1.157202
 ---------------------------------------------------------------------

 SCF Done:  E(RB3LYP) =  -245.840939130     A.U. after    1 cycles

 The electronic state is 1-A.
 Alpha  occ. eigenvalues --  -14.34316 -14.32907 -14.29988 -10.22475 -10.20368
 Alpha  occ. eigenvalues --   -0.96492  -0.86500  -0.77901  -0.68150  -0.59450
 Alpha  occ. eigenvalues --   -0.49908  -0.48702  -0.47708  -0.43295  -0.42117
 Alpha  occ. eigenvalues --   -0.39717  -0.37716  -0.36928  -0.23826  -0.22392
 Alpha  occ. eigenvalues --   -0.21841
 Alpha virt. eigenvalues --    0.07775   0.09893   0.13278   0.14273   0.14925
 Alpha virt. eigenvalues --    0.16229   0.17388   0.18055   0.18988   0.19925
 Alpha virt. eigenvalues --    0.24720   0.27445   0.28363   0.53053   0.54554

 Mulliken charges:
               1
     1  C   -0.163004
     2  N   -0.320713
     3  N   -0.437025
     4  C    0.133998
     5  N   -0.576590
     6  H    0.108252
     7  H    0.104517
     8  H    0.075796
     9  H    0.216907
    10  H    0.251951
    11  H    0.075874
    12  H    0.066212
    13  H    0.229346
    14  H    0.234479
 Sum of Mulliken charges =   0.00000

 Dipole moment (field-independent basis, Debye):
    X=             -1.0960    Y=             -1.7467    Z=              0.3135  Tot=              2.0858
 Quadrupole moment (field-independent basis, Debye-Ang):
   XX=            -27.0226   YY=            -33.1687   ZZ=            -31.1305
   XY=             -5.1754   XZ=             -0.1248   YZ=             -0.2066

  Exact polarizability:  51.604  -0.907  44.408  -0.283  -0.193  41.125
 Approx polarizability:  61.706  -0.911  59.965  -0.688  -0.228  59.008

                      1                      2                      3
                      A                      A                      A
 Frequencies --    122.3551               201.9949               223.7924
 Red. masses --      2.3629                 1.0910                 1.3747
 Frc consts  --      0.0208                 0.0262                 0.0406
 IR Inten    --      0.6063                46.2591                23.5131

                      4                      5                      6
                      A                      A                      A
 Frequencies --    273.1903               321.2045               402.0941
 Red. masses --      1.0389                 1.9875                 2.5393
 Frc consts  --      0.0457                 0.1208                 0.2419
 IR Inten    --     21.7842                 6.7237                 3.4286

                      7                      8                      9
                      A                      A                      A
 Frequencies --    432.3973               530.3428               786.1223
 Red. masses --      2.2883                 3.0410                 1.9202
 Frc consts  --      0.2521                 0.5039                 0.6992
 IR Inten    --      2.5577                 9.8432                36.5889

                     10                     11                     12
                      A                      A                      A
 Frequencies --    840.1346               908.1692              1021.1775
 Red. masses --      1.8968                 1.6290                 1.8956
 Frc consts  --      0.7888                 0.7916                 1.1647
 IR Inten    --    195.2072                57.7018                11.4528

                     13                     14                     15
                      A                      A                      A
 Frequencies --   1051.6234              1109.0921              1134.6109
 Red. masses --      1.5017                 2.2841                 1.4873
 Frc consts  --      0.9785                 1.6554                 1.1281
 IR Inten    --     17.7391                15.9657                21.8169

                     16                     17                     18
                      A                      A                      A
 Frequencies --   1176.4334              1241.4923              1287.2739
 Red. masses --      2.1590                 1.4747                 2.1635
 Frc consts  --      1.7605                 1.3392                 2.1123
 IR Inten    --     12.7268                 7.5605                 7.8784

                     19                     20                     21
                      A                      A                      A
 Frequencies --   1333.0910              1366.1433              1446.8714
 Red. masses --      1.4250                 1.1856                 1.2650
 Frc consts  --      1.4921                 1.3038                 1.5602
 IR Inten    --      9.6124                 1.6088                34.9316

                     22                     23                     24
                      A                      A                      A
 Frequencies --   1475.7573              1501.1616              1513.5259
 Red. masses --      1.2422                 1.0544                 1.0699
 Frc consts  --      1.5939                 1.4000                 1.4440
 IR Inten    --     21.4502                12.9842                 2.7228

                     25                     26                     27
                      A                      A                      A
 Frequencies --   1522.1510              1651.7679              1676.7833
 Red. masses --      1.0719                 1.1032                 1.0871
 Frc consts  --      1.4633                 1.7734                 1.8008
 IR Inten    --      0.7277                32.0530                16.4984

                     28                     29                     30
                      A                      A                      A
 Frequencies --   2920.9495              2942.9033              2970.3297
 Red. masses --      1.0601                 1.0562                 1.1055
 Frc consts  --      5.3290                 5.3895                 5.7466
 IR Inten    --     58.8523               121.3524                79.7929

                     31                     32                     33
                      A                      A                      A
 Frequencies --   3071.7118              3117.5903              3364.7624
 Red. masses --      1.0706                 1.1039                 1.0566
 Frc consts  --      5.9518                 6.3214                 7.0480
 IR Inten    --     41.9808                32.8176                26.1323

                     34                     35                     36
                      A                      A                      A
 Frequencies --   3496.7009              3543.3853              3592.0583
 Red. masses --      1.0490                 1.0842                 1.0935
 Frc consts  --      7.5567                 8.0208                 8.3128
 IR Inten    --      1.4198                 0.3091                 0.0899

 - Thermochemistry -
 -------------------
 Temperature   298.150 Kelvin.  Pressure   1.00000 Atm.
 Atom     1 has atomic number  6 and mass  12.00000

 Molecular mass:    75.07965 amu.
 Principal axes and moments of inertia in atomic units:
                           1         2         3
     Eigenvalues --   215.05694 493.81884 636.02227
           X            0.99995  -0.00997  -0.00168
           Y            0.00996   0.99992  -0.00760
           Z            0.00175   0.00758   0.99997
 This molecule is an asymmetric top.
 Rotational symmetry number  1.
 Rotational temperatures (Kelvin)      0.40275     0.17540     0.13618
 Rotational constants (GHZ):           8.39192     3.65466     2.83754
 Zero-point vibrational energy     332389.3 (Joules/Mol)
                                   79.44294 (Kcal/Mol)
 Warning -- explicit consideration of   8 degrees of freedom as
           vibrations may cause significant error
 Vibrational temperatures:    176.04   290.63   321.99   393.06   462.14
          (Kelvin)            578.52   622.12   763.04  1131.05  1208.76
                             1306.65  1469.24  1513.05  1595.73  1632.45
                             1692.62  1786.23  1852.10  1918.02  1965.57
                             2081.72  2123.28  2159.83  2177.62  2190.03
                             2376.52  2412.51  4202.59  4234.18  4273.64
                             4419.50  4485.51  4841.14  5030.97  5098.13
                             5168.16

 Zero-point correction=                           0.126600 (Hartree/Particle)
 Thermal correction to Energy=                    0.133251
 Thermal correction to Enthalpy=                  0.134196
 Thermal correction to Gibbs Free Energy=         0.097139
 Sum of electronic and zero-point Energies=           -245.714339
 Sum of electronic and thermal Energies=              -245.707688
 Sum of electronic and thermal Enthalpies=            -245.706744
 Sum of electronic and thermal Free Energies=         -245.743800

                     E (Thermal)             CV                S
                      KCal/Mol        Cal/Mol-Kelvin    Cal/Mol-Kelvin
 Total                   83.617             23.168             77.992
 Electronic               0.000              0.000              0.000
 Translational            0.889              2.981             38.864
 Rotational               0.889              2.981             25.716
 Vibrational             81.839             17.206             13.412
 Vibration     1          0.610              1.930              3.063
 Vibration     2          0.639              1.837              2.115
 Vibration     3          0.649              1.805              1.928
 Vibration     4          0.676              1.723              1.576
 Vibration     5          0.707              1.633              1.304
 Vibration     6          0.768              1.466              0.955
 Vibration     7          0.793              1.400              0.851
 Vibration     8          0.885              1.183              0.586

 Optimization completed.
    -- Stationary point found.
 Normal termination of Gaussian 09 at Fri Jul 23 05:59:14 2021.
