 Gaussian 09, Revision E.01,
 Gaussian 09:  ES64L-G09RevE.01 30-Nov-2015

 ----------------------------
 #P OPT Freq B3LYP/6-31G(d,p)
 ----------------------------

 --------
 Frag_438
 --------
 Symbolic Z-matrix:
 Charge =  0 Multiplicity = 1

 SCF Done:  E(RB3LYP) =  -232.481814086     A.U. after   13 cycles
 SCF Done:  E(RB3LYP) =  -232.481887484     A.U. after    8 cycles
 SCF Done:  E(RB3LYP) =  -232.481891507     A.U. after    7 cycles
 Optimization completed.
    -- Stationary point found.
 Normal termination of Gaussian 09 at Thu Sep  8 15:13:21 2022.

 ----------------------------------------------------------------------
 #P Geom=AllCheck Guess=TCheck SCRF=Check GenChk RB3LYP/6-31G(d,p) Freq
 ----------------------------------------------------------------------

 Structure from the checkpoint file:  "B3LYP6-31Gdp.Frag_438.chk"
 --------
 Frag_438
 --------
 Charge =  0 Multiplicity = 1

                         Standard orientation:
 ---------------------------------------------------------------------
 Center     Atomic      Atomic             Coordinates (Angstroms)
 Number     Number       Type             X           Y           Z
 ---------------------------------------------------------------------
      1          6           0       -2.019375   -0.020652    0.000007
      2          6           0       -0.683684   -0.759486   -0.000008
      3          6           0        0.527375    0.167645   -0.000006
      4          6           0        1.893516   -0.499330    0.000005
      5          8           0        0.408895    1.378379   -0.000003
      6          1           0       -2.854029   -0.727670    0.000006
      7          1           0       -2.109521    0.621752   -0.879698
      8          1           0       -2.109510    0.621735    0.879725
      9          1           0       -0.597183   -1.424147    0.871554
     10          1           0       -0.597192   -1.424125   -0.871588
     11          1           0        2.006950   -1.142383    0.880369
     12          1           0        2.675393    0.261182   -0.000016
     13          1           0        2.006946   -1.142432   -0.880323
 ---------------------------------------------------------------------

 SCF Done:  E(RB3LYP) =  -232.481891507     A.U. after    1 cycles

 The electronic state is 1-A.
 Alpha  occ. eigenvalues --  -19.13579 -10.27398 -10.19549 -10.19004 -10.17609
 Alpha  occ. eigenvalues --   -1.03524  -0.78272  -0.73534  -0.63943  -0.52131
 Alpha  occ. eigenvalues --   -0.46828  -0.46719  -0.43575  -0.42046  -0.40277
 Alpha  occ. eigenvalues --   -0.36306  -0.36052  -0.35820  -0.34123  -0.24336
 Alpha virt. eigenvalues --   -0.00952   0.08521   0.12224   0.14712   0.15478
 Alpha virt. eigenvalues --    0.15933   0.17318   0.17516   0.19533   0.21952
 Alpha virt. eigenvalues --    0.23544   0.29792   0.33533   0.48404   0.53129

 Mulliken charges:
               1
     1  C   -0.306599
     2  C   -0.258937
     3  C    0.426367
     4  C   -0.387984
     5  O   -0.435393
     6  H    0.096304
     7  H    0.121545
     8  H    0.121545
     9  H    0.116846
    10  H    0.116847
    11  H    0.126051
    12  H    0.137359
    13  H    0.126049
 Sum of Mulliken charges =  -0.00000

 Dipole moment (field-independent basis, Debye):
    X=              0.2281    Y=             -2.6856    Z=              0.0000  Tot=              2.6952
 Quadrupole moment (field-independent basis, Debye-Ang):
   XX=            -29.7682   YY=            -34.6244   ZZ=            -30.2990
   XY=             -1.1472   XZ=              0.0000   YZ=             -0.0000

  Exact polarizability:  50.536  -0.935  47.423   0.000   0.000  36.384
 Approx polarizability:  57.894  -1.331  75.693   0.000   0.000  52.214

                      1                      2                      3
                      A                      A                      A
 Frequencies --     32.6698               106.7240               196.7767
 Red. masses --      1.4123                 1.3055                 1.1295
 Frc consts  --      0.0009                 0.0088                 0.0258
 IR Inten    --      0.1465                 0.0002                 0.1854

                      4                      5                      6
                      A                      A                      A
 Frequencies --    248.2819               400.7993               472.8215
 Red. masses --      3.1024                 2.8220                 1.8976
 Frc consts  --      0.1127                 0.2671                 0.2500
 IR Inten    --      5.2225                 4.1035                 0.0234

                      7                      8                      9
                      A                      A                      A
 Frequencies --    588.1891               759.4564               762.9500
 Red. masses --      3.8584                 1.2567                 2.8414
 Frc consts  --      0.7865                 0.4271                 0.9745
 IR Inten    --      8.6687                 3.1021                 2.5867

                     10                     11                     12
                      A                      A                      A
 Frequencies --    943.0712               954.8671              1002.9730
 Red. masses --      1.7911                 1.2256                 1.8372
 Frc consts  --      0.9385                 0.6584                 1.0889
 IR Inten    --     10.6158                 4.0996                 2.7099

                     13                     14                     15
                      A                      A                      A
 Frequencies --   1111.0254              1135.2973              1193.0677
 Red. masses --      2.0607                 1.9208                 2.2847
 Frc consts  --      1.4987                 1.4587                 1.9161
 IR Inten    --      1.5843                 0.3574                76.4931

                     16                     17                     18
                      A                      A                      A
 Frequencies --   1288.8195              1378.6034              1399.4500
 Red. masses --      1.1908                 1.5470                 1.4782
 Frc consts  --      1.1654                 1.7323                 1.7056
 IR Inten    --      0.0484                11.7632                41.2818

                     19                     20                     21
                      A                      A                      A
 Frequencies --   1428.3404              1466.5385              1480.2330
 Red. masses --      1.2374                 1.0810                 1.0642
 Frc consts  --      1.4874                 1.3698                 1.3738
 IR Inten    --      4.4248                 2.2202                16.2616

                     22                     23                     24
                      A                      A                      A
 Frequencies --   1491.7672              1507.1350              1513.2480
 Red. masses --      1.0485                 1.0383                 1.0503
 Frc consts  --      1.3747                 1.3896                 1.4171
 IR Inten    --      9.3578                 5.6123                 7.5184

                     25                     26                     27
                      A                      A                      A
 Frequencies --   1815.2269              3023.3506              3045.7507
 Red. masses --     10.2687                 1.0605                 1.0383
 Frc consts  --     19.9355                 5.7112                 5.6747
 IR Inten    --    130.1967                16.2167                 7.8875

                     28                     29                     30
                      A                      A                      A
 Frequencies --   3051.6217              3060.8672              3106.6519
 Red. masses --      1.0997                 1.0359                 1.0996
 Frc consts  --      6.0337                 5.7182                 6.2526
 IR Inten    --     10.8468                21.9600                11.9871

                     31                     32                     33
                      A                      A                      A
 Frequencies --   3132.9334              3139.7897              3164.1377
 Red. masses --      1.1027                 1.1027                 1.1024
 Frc consts  --      6.3771                 6.4046                 6.5027
 IR Inten    --     22.9753                23.2378                10.3658

 - Thermochemistry -
 -------------------
 Temperature   298.150 Kelvin.  Pressure   1.00000 Atm.
 Atom     1 has atomic number  6 and mass  12.00000

 Molecular mass:    72.05751 amu.
 Principal axes and moments of inertia in atomic units:
                           1         2         3
     Eigenvalues --   189.49180 505.33091 661.58894
           X            0.99956  -0.02957   0.00000
           Y            0.02957   0.99956   0.00000
           Z           -0.00000  -0.00000   1.00000
 This molecule is an asymmetric top.
 Rotational symmetry number  1.
 Rotational temperatures (Kelvin)      0.45708     0.17140     0.13092
 Rotational constants (GHZ):           9.52411     3.57140     2.72789
 Zero-point vibrational energy     295498.2 (Joules/Mol)
                                   70.62576 (Kcal/Mol)
 Warning -- explicit consideration of   7 degrees of freedom as
           vibrations may cause significant error
 Vibrational temperatures:     47.00   153.55   283.12   357.22   576.66
          (Kelvin)            680.28   846.27  1092.69  1097.71  1356.87
                             1373.84  1443.05  1598.52  1633.44  1716.56
                             1854.32  1983.50  2013.49  2055.06  2110.02
                             2129.72  2146.32  2168.43  2177.22  2611.70
                             4349.92  4382.15  4390.60  4403.90  4469.77
                             4507.59  4517.45  4552.48

 Zero-point correction=                           0.112549 (Hartree/Particle)
 Thermal correction to Energy=                    0.119181
 Thermal correction to Enthalpy=                  0.120125
 Thermal correction to Gibbs Free Energy=         0.081851
 Sum of electronic and zero-point Energies=           -232.369342
 Sum of electronic and thermal Energies=              -232.362711
 Sum of electronic and thermal Enthalpies=            -232.361767
 Sum of electronic and thermal Free Energies=         -232.400041

                     E (Thermal)             CV                S
                      KCal/Mol        Cal/Mol-Kelvin    Cal/Mol-Kelvin
 Total                   74.787             21.627             80.554
 Electronic               0.000              0.000              0.000
 Translational            0.889              2.981             38.741
 Rotational               0.889              2.981             25.652
 Vibrational             73.009             15.665             16.161
 Vibration     1          0.594              1.983              5.660
 Vibration     2          0.606              1.944              3.328
 Vibration     3          0.636              1.844              2.163
 Vibration     4          0.662              1.766              1.743
 Vibration     5          0.767              1.468              0.960
 Vibration     6          0.830              1.310              0.730
 Vibration     7          0.945              1.057              0.470

 Optimization completed.
    -- Stationary point found.
 Normal termination of Gaussian 09 at Thu Sep  8 15:13:30 2022.
