 Gaussian 09, Revision E.01,
 Gaussian 09:  ES64L-G09RevE.01 30-Nov-2015

 ----------------------------
 #P OPT Freq B3LYP/6-31G(d,p)
 ----------------------------

 --------
 Frag_623
 --------
 Symbolic Z-matrix:
 Charge =  0 Multiplicity = 1

 SCF Done:  E(RB3LYP) =  -319.929635682     A.U. after   14 cycles
 SCF Done:  E(RB3LYP) =  -319.929709517     A.U. after   11 cycles
 SCF Done:  E(RB3LYP) =  -319.929646870     A.U. after   12 cycles
 SCF Done:  E(RB3LYP) =  -319.929742621     A.U. after   11 cycles
 SCF Done:  E(RB3LYP) =  -319.929742752     A.U. after    9 cycles
 SCF Done:  E(RB3LYP) =  -319.929744584     A.U. after    8 cycles
 Optimization completed.
    -- Stationary point found.
 Normal termination of Gaussian 09 at Thu Sep  8 15:12:06 2022.

 ----------------------------------------------------------------------
 #P Geom=AllCheck Guess=TCheck SCRF=Check GenChk RB3LYP/6-31G(d,p) Freq
 ----------------------------------------------------------------------

 Structure from the checkpoint file:  "B3LYP6-31Gdp.Frag_623.chk"
 --------
 Frag_623
 --------
 Charge =  0 Multiplicity = 1

                         Standard orientation:
 ---------------------------------------------------------------------
 Center     Atomic      Atomic             Coordinates (Angstroms)
 Number     Number       Type             X           Y           Z
 ---------------------------------------------------------------------
      1          7           0        1.507453    0.992146   -0.011478
      2          6           0        0.808754   -0.164384    0.056061
      3          8           0        1.298997   -1.283348   -0.049217
      4          6           0       -0.698798    0.027559    0.356254
      5          7           0       -1.411861   -1.096810   -0.228336
      6          7           0       -1.150722    1.338374   -0.125406
      7          1           0        2.490682    0.956009   -0.229023
      8          1           0        0.986672    1.857980   -0.038538
      9          1           0       -0.768204    0.069680    1.456902
     10          1           0       -2.208739   -1.364221    0.341200
     11          1           0       -0.769181   -1.887083   -0.266668
     12          1           0       -2.026668    1.585551    0.328414
     13          1           0       -1.370366    1.233844   -1.115894
 ---------------------------------------------------------------------

 SCF Done:  E(RB3LYP) =  -319.929744584     A.U. after    1 cycles

 The electronic state is 1-A.
 Alpha  occ. eigenvalues --  -19.10960 -14.34917 -14.32631 -14.30893 -10.28139
 Alpha  occ. eigenvalues --  -10.24733  -1.02773  -0.92079  -0.89576  -0.83934
 Alpha  occ. eigenvalues --   -0.67362  -0.56992  -0.54188  -0.51595  -0.48618
 Alpha  occ. eigenvalues --   -0.44541  -0.43981  -0.41785  -0.37912  -0.36936
 Alpha  occ. eigenvalues --   -0.28033  -0.26290  -0.25417  -0.22914
 Alpha virt. eigenvalues --    0.02582   0.08204   0.10468   0.11720   0.14086
 Alpha virt. eigenvalues --    0.15995   0.16522   0.18966   0.23590   0.25395
 Alpha virt. eigenvalues --    0.29024   0.33929   0.38768   0.54165   0.56416

 Mulliken charges:
               1
     1  N   -0.599122
     2  C    0.575207
     3  O   -0.522597
     4  C    0.087306
     5  N   -0.607606
     6  N   -0.604427
     7  H    0.273066
     8  H    0.291733
     9  H    0.112953
    10  H    0.232034
    11  H    0.266746
    12  H    0.243498
    13  H    0.251210
 Sum of Mulliken charges =  -0.00000

 Dipole moment (field-independent basis, Debye):
    X=             -1.5141    Y=              2.4148    Z=              0.8392  Tot=              2.9712
 Quadrupole moment (field-independent basis, Debye-Ang):
   XX=            -30.6449   YY=            -36.3698   ZZ=            -35.6824
   XY=              4.5380   XZ=             -3.1462   YZ=             -2.2177

  Exact polarizability:  49.347   1.383  51.360  -2.241   0.295  31.211
 Approx polarizability:  62.556  -0.952  79.576  -3.276   2.140  45.062

                      1                      2                      3
                      A                      A                      A
 Frequencies --     82.4407               274.7797               297.5471
 Red. masses --      5.4220                 1.3311                 1.1000
 Frc consts  --      0.0217                 0.0592                 0.0574
 IR Inten    --      2.8621                26.7082                15.2622

                      4                      5                      6
                      A                      A                      A
 Frequencies --    306.5601               347.0741               409.9355
 Red. masses --      2.9884                 1.8895                 1.6333
 Frc consts  --      0.1655                 0.1341                 0.1617
 IR Inten    --     39.5830                55.2874               132.8626

                      7                      8                      9
                      A                      A                      A
 Frequencies --    490.5238               510.4777               546.0642
 Red. masses --      2.8021                 2.4692                 4.2372
 Frc consts  --      0.3972                 0.3791                 0.7444
 IR Inten    --     38.7124                48.3104                10.9951

                     10                     11                     12
                      A                      A                      A
 Frequencies --    673.8939               741.2914               817.7637
 Red. masses --      1.4993                 1.8370                 2.7703
 Frc consts  --      0.4012                 0.5948                 1.0915
 IR Inten    --     31.9500                 3.8450                15.2839

                     13                     14                     15
                      A                      A                      A
 Frequencies --    885.6412               908.2640              1068.2194
 Red. masses --      1.3899                 2.0852                 1.7196
 Frc consts  --      0.6423                 1.0135                 1.1561
 IR Inten    --    175.4405               107.1263                29.0884

                     16                     17                     18
                      A                      A                      A
 Frequencies --   1113.5915              1122.8215              1196.6650
 Red. masses --      1.8420                 2.1066                 1.3154
 Frc consts  --      1.3458                 1.5648                 1.1098
 IR Inten    --      9.3902                38.0604                 1.1047

                     19                     20                     21
                      A                      A                      A
 Frequencies --   1234.0856              1341.4606              1393.1145
 Red. masses --      1.5827                 1.8883                 1.4052
 Frc consts  --      1.4202                 2.0021                 1.6068
 IR Inten    --     20.2593                84.4909                10.4929

                     22                     23                     24
                      A                      A                      A
 Frequencies --   1446.1195              1586.3266              1647.3769
 Red. masses --      1.7099                 1.3891                 1.1243
 Frc consts  --      2.1069                 2.0596                 1.7977
 IR Inten    --     12.9035               146.8688               109.7997

                     25                     26                     27
                      A                      A                      A
 Frequencies --   1676.6116              1805.6987              2971.2397
 Red. masses --      1.0975                 8.0148                 1.0823
 Frc consts  --      1.8178                15.3970                 5.6296
 IR Inten    --     31.1705               258.7567                51.9003

                     28                     29                     30
                      A                      A                      A
 Frequencies --   3480.9777              3485.5572              3567.1590
 Red. masses --      1.0508                 1.0506                 1.0909
 Frc consts  --      7.5017                 7.5199                 8.1787
 IR Inten    --      2.2734                18.6996                 2.3393

                     31                     32                     33
                      A                      A                      A
 Frequencies --   3574.6917              3584.6483              3730.3839
 Red. masses --      1.0455                 1.0918                 1.1047
 Frc consts  --      7.8713                 8.2655                 9.0577
 IR Inten    --     51.5113                 7.1421                77.6594

 - Thermochemistry -
 -------------------
 Temperature   298.150 Kelvin.  Pressure   1.00000 Atm.
 Atom     1 has atomic number  7 and mass  14.00307

 Molecular mass:    89.05891 amu.
 Principal axes and moments of inertia in atomic units:
                           1         2         3
     Eigenvalues --   365.10314 517.03724 837.37171
           X            0.99640   0.08407  -0.01109
           Y           -0.08419   0.99638  -0.01140
           Z            0.01009   0.01229   0.99987
 This molecule is an asymmetric top.
 Rotational symmetry number  1.
 Rotational temperatures (Kelvin)      0.23723     0.16752     0.10344
 Rotational constants (GHZ):           4.94310     3.49054     2.15525
 Zero-point vibrational energy     289011.8 (Joules/Mol)
                                   69.07549 (Kcal/Mol)
 Warning -- explicit consideration of   9 degrees of freedom as
           vibrations may cause significant error
 Vibrational temperatures:    118.61   395.35   428.10   441.07   499.36
          (Kelvin)            589.80   705.75   734.46   785.66   969.58
                             1066.55  1176.58  1274.24  1306.79  1536.93
                             1602.21  1615.49  1721.73  1775.57  1930.06
                             2004.38  2080.64  2282.37  2370.20  2412.27
                             2597.99  4274.95  5008.34  5014.93  5132.34
                             5143.18  5157.50  5367.18

 Zero-point correction=                           0.110079 (Hartree/Particle)
 Thermal correction to Energy=                    0.116815
 Thermal correction to Enthalpy=                  0.117759
 Thermal correction to Gibbs Free Energy=         0.079969
 Sum of electronic and zero-point Energies=           -319.819666
 Sum of electronic and thermal Energies=              -319.812930
 Sum of electronic and thermal Enthalpies=            -319.811985
 Sum of electronic and thermal Free Energies=         -319.849775

                     E (Thermal)             CV                S
                      KCal/Mol        Cal/Mol-Kelvin    Cal/Mol-Kelvin
 Total                   73.303             24.642             79.536
 Electronic               0.000              0.000              0.000
 Translational            0.889              2.981             39.373
 Rotational               0.889              2.981             26.561
 Vibrational             71.525             18.681             13.602
 Vibration     1          0.600              1.961              3.832
 Vibration     2          0.677              1.720              1.566
 Vibration     3          0.691              1.678              1.431
 Vibration     4          0.697              1.661              1.381
 Vibration     5          0.725              1.581              1.179
 Vibration     6          0.774              1.449              0.927
 Vibration     7          0.846              1.271              0.682
 Vibration     8          0.866              1.227              0.632
 Vibration     9          0.901              1.148              0.552

 Normal termination of Gaussian 09 at Thu Sep  8 15:12:16 2022.
