 Gaussian 09, Revision E.01,
 Gaussian 09:  ES64L-G09RevE.01 30-Nov-2015

 ----------------------------
 #P OPT Freq B3LYP/6-31G(d,p)
 ----------------------------

 --------
 Frag_930
 --------
 Symbolic Z-matrix:
 Charge =  0 Multiplicity = 1

 SCF Done:  E(RB3LYP) =  -280.456280184     A.U. after   14 cycles
 SCF Done:  E(RB3LYP) =  -280.456340447     A.U. after   10 cycles
 SCF Done:  E(RB3LYP) =  -280.456350432     A.U. after   11 cycles
 SCF Done:  E(RB3LYP) =  -280.456358222     A.U. after   10 cycles
 SCF Done:  E(RB3LYP) =  -280.456360245     A.U. after    8 cycles
 SCF Done:  E(RB3LYP) =  -280.456360580     A.U. after    8 cycles
 Optimization completed.
    -- Stationary point found.
 Normal termination of Gaussian 09 at Thu Sep  8 15:24:31 2022.

 ----------------------------------------------------------------------
 #P Geom=AllCheck Guess=TCheck SCRF=Check GenChk RB3LYP/6-31G(d,p) Freq
 ----------------------------------------------------------------------

 Structure from the checkpoint file:  "B3LYP6-31Gdp.Frag_930.chk"
 --------
 Frag_930
 --------
 Charge =  0 Multiplicity = 1

                         Standard orientation:
 ---------------------------------------------------------------------
 Center     Atomic      Atomic             Coordinates (Angstroms)
 Number     Number       Type             X           Y           Z
 ---------------------------------------------------------------------
      1          6           0       -1.828252   -0.149511    0.053581
      2          7           0       -0.696623   -0.739277   -0.035968
      3          7           0        0.420807   -0.001408   -0.363612
      4          7           0        0.504101    1.321913    0.112148
      5          8           0        1.560222   -0.729556    0.027995
      6          1           0       -1.987851    0.920398   -0.098192
      7          1           0       -2.692554   -0.772413    0.261879
      8          1           0       -0.089881    1.446576    0.937773
      9          1           0        0.190497    1.948675   -0.622291
     10          1           0        1.469534   -0.878326    0.987414
 ---------------------------------------------------------------------

 SCF Done:  E(RB3LYP) =  -280.456360580     A.U. after    1 cycles

 The electronic state is 1-A.
 Alpha  occ. eigenvalues --  -19.17523 -14.44920 -14.37864 -14.36823 -10.23274
 Alpha  occ. eigenvalues --   -1.10865  -0.96867  -0.89972  -0.74726  -0.61824
 Alpha  occ. eigenvalues --   -0.54372  -0.54105  -0.52226  -0.46377  -0.41416
 Alpha  occ. eigenvalues --   -0.36161  -0.31677  -0.30199  -0.26669  -0.24606
 Alpha virt. eigenvalues --   -0.01995   0.06428   0.09392   0.11748   0.13078
 Alpha virt. eigenvalues --    0.15317   0.17585   0.20467   0.23680   0.33145
 Alpha virt. eigenvalues --    0.54163   0.58789   0.60224   0.63610   0.65996

 Mulliken charges:
               1
     1  C   -0.074568
     2  N   -0.168862
     3  N    0.025402
     4  N   -0.420252
     5  O   -0.381063
     6  H    0.084822
     7  H    0.126470
     8  H    0.230205
     9  H    0.277331
    10  H    0.300516
 Sum of Mulliken charges =  -0.00000

 Dipole moment (field-independent basis, Debye):
    X=             -2.5840    Y=              2.0961    Z=              1.6889  Tot=              3.7314
 Quadrupole moment (field-independent basis, Debye-Ang):
   XX=            -30.0018   YY=            -28.7840   ZZ=            -27.9338
   XY=             -2.0826   XZ=              1.7358   YZ=             -2.3609

  Exact polarizability:  52.088  -2.199  36.629  -0.552  -1.796  24.934
 Approx polarizability:  79.654  -7.600  52.563  -4.946  -1.498  37.360

                      1                      2                      3
                      A                      A                      A
 Frequencies --    177.9613               258.9006               339.2465
 Red. masses --      2.1763                 1.2937                 1.2210
 Frc consts  --      0.0406                 0.0511                 0.0828
 IR Inten    --     34.0552                88.0780                24.2713

                      4                      5                      6
                      A                      A                      A
 Frequencies --    375.7389               415.5795               540.6006
 Red. masses --      2.3972                 2.7130                 5.1781
 Frc consts  --      0.1994                 0.2761                 0.8916
 IR Inten    --     16.9167                47.0980                 3.7421

                      7                      8                      9
                      A                      A                      A
 Frequencies --    610.3003               772.7665               794.6086
 Red. masses --      3.2209                 3.2922                 2.0190
 Frc consts  --      0.7068                 1.1583                 0.7511
 IR Inten    --     10.0790                96.9762                62.6042

                     10                     11                     12
                      A                      A                      A
 Frequencies --    826.3040               959.4167              1046.9701
 Red. masses --      1.5144                 1.3869                 8.5065
 Frc consts  --      0.6092                 0.7521                 5.4937
 IR Inten    --     43.4485                26.5443                 2.3920

                     13                     14                     15
                      A                      A                      A
 Frequencies --   1142.3480              1222.1545              1296.8738
 Red. masses --      2.2769                 1.9534                 1.1700
 Frc consts  --      1.7506                 1.7191                 1.1594
 IR Inten    --     44.3081                51.8535                 8.1524

                     16                     17                     18
                      A                      A                      A
 Frequencies --   1429.8040              1480.3192              1661.6186
 Red. masses --      1.1966                 1.1837                 1.2618
 Frc consts  --      1.4413                 1.5283                 2.0526
 IR Inten    --     26.2938                 3.8770                16.1782

                     19                     20                     21
                      A                      A                      A
 Frequencies --   1691.3745              3094.0625              3224.2533
 Red. masses --      3.0394                 1.0605                 1.1107
 Frc consts  --      5.1229                 5.9817                 6.8030
 IR Inten    --      3.9163                17.5455                 9.4748

                     22                     23                     24
                      A                      A                      A
 Frequencies --   3396.7574              3577.3421              3661.2498
 Red. masses --      1.0543                 1.0874                 1.0675
 Frc consts  --      7.1670                 8.1992                 8.4313
 IR Inten    --      8.6867                 5.5101                 5.0487

 - Thermochemistry -
 -------------------
 Temperature   298.150 Kelvin.  Pressure   1.00000 Atm.
 Atom     1 has atomic number  6 and mass  12.00000

 Molecular mass:    75.04326 amu.
 Principal axes and moments of inertia in atomic units:
                           1         2         3
     Eigenvalues --   190.56475 391.60252 550.90565
           X            0.99985  -0.01592   0.00687
           Y            0.01606   0.99964  -0.02160
           Z           -0.00652   0.02171   0.99974
 This molecule is an asymmetric top.
 Rotational symmetry number  1.
 Rotational temperatures (Kelvin)      0.45451     0.22118     0.15722
 Rotational constants (GHZ):           9.47049     4.60860     3.27595
 Zero-point vibrational energy     203344.5 (Joules/Mol)
                                   48.60051 (Kcal/Mol)
 Warning -- explicit consideration of   7 degrees of freedom as
           vibrations may cause significant error
 Vibrational temperatures:    256.05   372.50   488.10   540.60   597.93
          (Kelvin)            777.80   878.08  1111.84  1143.26  1188.87
                             1380.38  1506.35  1643.58  1758.41  1865.91
                             2057.17  2129.85  2390.70  2433.51  4451.66
                             4638.98  4887.17  5146.99  5267.72

 Zero-point correction=                           0.077450 (Hartree/Particle)
 Thermal correction to Energy=                    0.083080
 Thermal correction to Enthalpy=                  0.084024
 Thermal correction to Gibbs Free Energy=         0.049219
 Sum of electronic and zero-point Energies=           -280.378911
 Sum of electronic and thermal Energies=              -280.373280
 Sum of electronic and thermal Enthalpies=            -280.372336
 Sum of electronic and thermal Free Energies=         -280.407141

                     E (Thermal)             CV                S
                      KCal/Mol        Cal/Mol-Kelvin    Cal/Mol-Kelvin
 Total                   52.134             19.864             73.253
 Electronic               0.000              0.000              0.000
 Translational            0.889              2.981             38.862
 Rotational               0.889              2.981             25.223
 Vibrational             50.356             13.902              9.169
 Vibration     1          0.628              1.869              2.350
 Vibration     2          0.668              1.748              1.669
 Vibration     3          0.719              1.597              1.216
 Vibration     4          0.747              1.522              1.056
 Vibration     5          0.779              1.436              0.907
 Vibration     6          0.896              1.160              0.564
 Vibration     7          0.969              1.010              0.432

 Normal termination of Gaussian 09 at Thu Sep  8 15:24:39 2022.
