 Gaussian 09, Revision E.01,
 Gaussian 09:  ES64L-G09RevE.01 30-Nov-2015

 ----------------------------
 #P OPT Freq B3LYP/6-31G(d,p)
 ----------------------------

 --------
 Frag_494
 --------
 Symbolic Z-matrix:
 Charge =  0 Multiplicity = 1

 SCF Done:  E(RB3LYP) =  -287.806173702     A.U. after   14 cycles
 SCF Done:  E(RB3LYP) =  -287.806252305     A.U. after   10 cycles
 SCF Done:  E(RB3LYP) =  -287.806254273     A.U. after    8 cycles
 SCF Done:  E(RB3LYP) =  -287.806254707     A.U. after    7 cycles
 Optimization completed.
    -- Stationary point found.
 Normal termination of Gaussian 09 at Thu Sep  8 15:18:56 2022.

 ----------------------------------------------------------------------
 #P Geom=AllCheck Guess=TCheck SCRF=Check GenChk RB3LYP/6-31G(d,p) Freq
 ----------------------------------------------------------------------

 Structure from the checkpoint file:  "B3LYP6-31Gdp.Frag_494.chk"
 --------
 Frag_494
 --------
 Charge =  0 Multiplicity = 1

                         Standard orientation:
 ---------------------------------------------------------------------
 Center     Atomic      Atomic             Coordinates (Angstroms)
 Number     Number       Type             X           Y           Z
 ---------------------------------------------------------------------
      1          6           0       -1.855900   -0.388817   -0.783954
      2          6           0       -0.801975   -0.043479   -0.036310
      3          8           0       -0.893536    0.476743    1.230212
      4          6           0        0.646405   -0.143872   -0.477161
      5          6           0        1.437050   -1.115477    0.408478
      6          7           0        1.336303    1.156664   -0.498761
      7          1           0       -2.878463   -0.290177   -0.428273
      8          1           0       -1.714204   -0.790420   -1.779439
      9          1           0       -1.826441    0.549239    1.473695
     10          1           0        0.643718   -0.527691   -1.503381
     11          1           0        1.432920   -0.777827    1.449538
     12          1           0        0.999809   -2.117819    0.376846
     13          1           0        2.472819   -1.164722    0.063489
     14          1           0        1.286114    1.562202    0.434789
     15          1           0        0.824411    1.796489   -1.103960
 ---------------------------------------------------------------------

 SCF Done:  E(RB3LYP) =  -287.806254707     A.U. after    1 cycles

 The electronic state is 1-A.
 Alpha  occ. eigenvalues --  -19.17805 -14.30787 -10.24085 -10.21561 -10.16907
 Alpha  occ. eigenvalues --  -10.16687  -1.05661  -0.88048  -0.75959  -0.71576
 Alpha  occ. eigenvalues --   -0.62746  -0.58070  -0.49349  -0.47353  -0.46973
 Alpha  occ. eigenvalues --   -0.42315  -0.41198  -0.39248  -0.36849  -0.35883
 Alpha  occ. eigenvalues --   -0.34591  -0.34163  -0.23954  -0.22355
 Alpha virt. eigenvalues --    0.03811   0.06294   0.10843   0.12694   0.14012
 Alpha virt. eigenvalues --    0.14964   0.16939   0.18412   0.19153   0.19973
 Alpha virt. eigenvalues --    0.23758   0.24854   0.27532   0.33473   0.37994

 Mulliken charges:
               1
     1  C   -0.342766
     2  C    0.375549
     3  O   -0.547439
     4  C   -0.003660
     5  C   -0.304563
     6  N   -0.580933
     7  H    0.076562
     8  H    0.097259
     9  H    0.316380
    10  H    0.099734
    11  H    0.114509
    12  H    0.103777
    13  H    0.116937
    14  H    0.244188
    15  H    0.234466
 Sum of Mulliken charges =  -0.00000

 Dipole moment (field-independent basis, Debye):
    X=             -1.9313    Y=              0.2754    Z=              0.4535  Tot=              2.0029
 Quadrupole moment (field-independent basis, Debye-Ang):
   XX=            -37.3768   YY=            -36.5590   ZZ=            -36.1143
   XY=             -2.2469   XZ=             -1.0647   YZ=              1.1453

  Exact polarizability:  63.217   3.068  44.348   5.385   4.572  51.751
 Approx polarizability:  85.244   8.065  60.324  11.546  10.071  77.855

                      1                      2                      3
                      A                      A                      A
 Frequencies --     78.3552               227.9839               241.2105
 Red. masses --      3.6408                 1.4060                 1.8784
 Frc consts  --      0.0132                 0.0431                 0.0644
 IR Inten    --      0.4983                 0.1863                 0.6718

                      4                      5                      6
                      A                      A                      A
 Frequencies --    269.0279               306.2177               354.3413
 Red. masses --      2.2603                 1.2223                 2.5184
 Frc consts  --      0.0964                 0.0675                 0.1863
 IR Inten    --      7.6138                39.2043                10.7213

                      7                      8                      9
                      A                      A                      A
 Frequencies --    429.2675               472.3023               599.7191
 Red. masses --      1.0910                 2.3072                 2.7951
 Frc consts  --      0.1184                 0.3032                 0.5923
 IR Inten    --    107.5442                 9.7790                13.5880

                     10                     11                     12
                      A                      A                      A
 Frequencies --    668.2896               729.2766               777.6411
 Red. masses --      2.3346                 1.3227                 2.5903
 Frc consts  --      0.6143                 0.4145                 0.9229
 IR Inten    --      9.3599                 0.1889                20.1056

                     13                     14                     15
                      A                      A                      A
 Frequencies --    812.6545               915.4574               935.5492
 Red. masses --      1.4418                 2.0221                 1.6963
 Frc consts  --      0.5610                 0.9985                 0.8747
 IR Inten    --     55.2245               125.5033                45.3629

                     16                     17                     18
                      A                      A                      A
 Frequencies --    982.7938              1020.8270              1063.1699
 Red. masses --      1.7182                 1.3768                 1.5090
 Frc consts  --      0.9778                 0.8453                 1.0049
 IR Inten    --     15.4883                10.1154                82.4951

                     19                     20                     21
                      A                      A                      A
 Frequencies --   1143.9368              1201.3184              1270.4659
 Red. masses --      2.2168                 1.5181                 1.5651
 Frc consts  --      1.7092                 1.2908                 1.4884
 IR Inten    --      6.7080               120.1024                 3.6424

                     22                     23                     24
                      A                      A                      A
 Frequencies --   1340.2363              1376.2119              1404.1723
 Red. masses --      1.3733                 2.1029                 1.3289
 Frc consts  --      1.4534                 2.3466                 1.5437
 IR Inten    --     20.7936                 7.2322                 1.6738

                     25                     26                     27
                      A                      A                      A
 Frequencies --   1419.3106              1465.8869              1503.5969
 Red. masses --      1.3173                 1.1837                 1.0437
 Frc consts  --      1.5635                 1.4986                 1.3902
 IR Inten    --      8.2114                 8.6964                 5.3847

                     28                     29                     30
                      A                      A                      A
 Frequencies --   1514.9435              1673.5603              1728.0405
 Red. masses --      1.0553                 1.0919                 5.6361
 Frc consts  --      1.4269                 1.8018                 9.9160
 IR Inten    --      1.3326                27.4632               111.2236

                     31                     32                     33
                      A                      A                      A
 Frequencies --   3054.0946              3067.1416              3128.0385
 Red. masses --      1.0348                 1.0858                 1.1023
 Frc consts  --      5.6868                 6.0182                 6.3545
 IR Inten    --     17.3953                18.3559                27.2912

                     34                     35                     36
                      A                      A                      A
 Frequencies --   3140.5873              3157.7276              3255.9461
 Red. masses --      1.1037                 1.0644                 1.1122
 Frc consts  --      6.4137                 6.2531                 6.9469
 IR Inten    --     21.0121                 7.5322                10.1163

                     37                     38                     39
                      A                      A                      A
 Frequencies --   3476.5151              3559.6992              3810.8267
 Red. masses --      1.0495                 1.0918                 1.0658
 Frc consts  --      7.4735                 8.1508                 9.1191
 IR Inten    --      0.8799                 0.3852                23.3558

 - Thermochemistry -
 -------------------
 Temperature   298.150 Kelvin.  Pressure   1.00000 Atm.
 Atom     1 has atomic number  6 and mass  12.00000

 Molecular mass:    87.06841 amu.
 Principal axes and moments of inertia in atomic units:
                           1         2         3
     Eigenvalues --   371.63072 695.03062 700.85612
           X            0.99933  -0.01578   0.03303
           Y            0.01973   0.99222  -0.12295
           Z           -0.03083   0.12352   0.99186
 This molecule is an asymmetric top.
 Rotational symmetry number  1.
 Rotational temperatures (Kelvin)      0.23306     0.12462     0.12358
 Rotational constants (GHZ):           4.85628     2.59664     2.57505
 Zero-point vibrational energy     344383.0 (Joules/Mol)
                                   82.30951 (Kcal/Mol)
 Warning -- explicit consideration of   9 degrees of freedom as
           vibrations may cause significant error
 Vibrational temperatures:    112.74   328.02   347.05   387.07   440.58
          (Kelvin)            509.82   617.62   679.54   862.86   961.52
                             1049.27  1118.85  1169.23  1317.14  1346.04
                             1414.02  1468.74  1529.66  1645.87  1728.43
                             1827.91  1928.30  1980.06  2020.29  2042.07
                             2109.08  2163.34  2179.66  2407.88  2486.26
                             4394.16  4412.93  4500.54  4518.60  4543.26
                             4684.57  5001.92  5121.61  5482.92

 Zero-point correction=                           0.131169 (Hartree/Particle)
 Thermal correction to Energy=                    0.138401
 Thermal correction to Enthalpy=                  0.139345
 Thermal correction to Gibbs Free Energy=         0.100576
 Sum of electronic and zero-point Energies=           -287.675086
 Sum of electronic and thermal Energies=              -287.667854
 Sum of electronic and thermal Enthalpies=            -287.666909
 Sum of electronic and thermal Free Energies=         -287.705679

                     E (Thermal)             CV                S
                      KCal/Mol        Cal/Mol-Kelvin    Cal/Mol-Kelvin
 Total                   86.848             26.553             81.597
 Electronic               0.000              0.000              0.000
 Translational            0.889              2.981             39.305
 Rotational               0.889              2.981             26.695
 Vibrational             85.071             20.592             15.596
 Vibration     1          0.600              1.964              3.932
 Vibration     2          0.651              1.798              1.895
 Vibration     3          0.658              1.777              1.794
 Vibration     4          0.673              1.730              1.602
 Vibration     5          0.697              1.662              1.383
 Vibration     6          0.730              1.566              1.147
 Vibration     7          0.791              1.407              0.861
 Vibration     8          0.829              1.312              0.731
 Vibration     9          0.958              1.032              0.450

 Optimization completed.
    -- Stationary point found.
 Normal termination of Gaussian 09 at Thu Sep  8 15:19:08 2022.
