 Gaussian 09, Revision E.01,
 Gaussian 09:  ES64L-G09RevE.01 30-Nov-2015

 ----------------------------
 #P OPT Freq B3LYP/6-31G(d,p)
 ----------------------------

 --------
 Frag_659
 --------
 Symbolic Z-matrix:
 Charge =  0 Multiplicity = 1

 SCF Done:  E(RB3LYP) =  -380.307933947     A.U. after   13 cycles
 SCF Done:  E(RB3LYP) =  -380.307928664     A.U. after   10 cycles
 SCF Done:  E(RB3LYP) =  -380.307925067     A.U. after   10 cycles
 SCF Done:  E(RB3LYP) =  -380.308004091     A.U. after   10 cycles
 SCF Done:  E(RB3LYP) =  -380.308004785     A.U. after    7 cycles
 SCF Done:  E(RB3LYP) =  -380.308005431     A.U. after    7 cycles
 SCF Done:  E(RB3LYP) =  -380.308005635     A.U. after    7 cycles
 Optimization completed.
    -- Stationary point found.
 Normal termination of Gaussian 09 at Thu Sep  8 15:21:46 2022.

 ----------------------------------------------------------------------
 #P Geom=AllCheck Guess=TCheck SCRF=Check GenChk RB3LYP/6-31G(d,p) Freq
 ----------------------------------------------------------------------

 Structure from the checkpoint file:  "B3LYP6-31Gdp.Frag_659.chk"
 --------
 Frag_659
 --------
 Charge =  0 Multiplicity = 1

                         Standard orientation:
 ---------------------------------------------------------------------
 Center     Atomic      Atomic             Coordinates (Angstroms)
 Number     Number       Type             X           Y           Z
 ---------------------------------------------------------------------
      1          6           0        1.577213   -1.264070   -0.016098
      2          6           0        0.826084   -0.011502   -0.475349
      3          7           0        1.408664    1.258394   -0.011724
      4          6           0       -0.659036    0.024223   -0.014235
      5          7           0       -1.398976   -1.106804   -0.525200
      6          8           0       -1.228042    1.231754   -0.420073
      7          8           0       -0.719593   -0.023307    1.410618
      8          1           0        1.085036   -2.174301   -0.369687
      9          1           0        1.622943   -1.302424    1.078121
     10          1           0        2.605258   -1.257352   -0.393510
     11          1           0        0.818065    0.025407   -1.572710
     12          1           0        1.498859    1.224284    1.002271
     13          1           0        2.337716    1.394695   -0.398951
     14          1           0       -1.371602   -1.091020   -1.542820
     15          1           0       -2.374275   -0.966555   -0.264714
     16          1           0       -0.509859    1.886237   -0.317651
     17          1           0       -0.664444   -0.959580    1.647849
 ---------------------------------------------------------------------

 SCF Done:  E(RB3LYP) =  -380.308005635     A.U. after    1 cycles

 The electronic state is 1-A.
 Alpha  occ. eigenvalues --  -19.13957 -19.12690 -14.32584 -14.31906 -10.30093
 Alpha  occ. eigenvalues --  -10.21753 -10.17839  -1.05699  -0.98181  -0.89008
 Alpha  occ. eigenvalues --   -0.87202  -0.73786  -0.65111  -0.58763  -0.52674
 Alpha  occ. eigenvalues --   -0.51365  -0.48830  -0.47681  -0.43555  -0.42617
 Alpha  occ. eigenvalues --   -0.41398  -0.38411  -0.36468  -0.34558  -0.33836
 Alpha  occ. eigenvalues --   -0.28353  -0.27424  -0.26270  -0.24689
 Alpha virt. eigenvalues --    0.06601   0.09451   0.11061   0.13015   0.14438
 Alpha virt. eigenvalues --    0.15709   0.16492   0.17143   0.18122   0.18562
 Alpha virt. eigenvalues --    0.20831   0.24980   0.26546   0.28048   0.29997

 Mulliken charges:
               1
     1  C   -0.323820
     2  C    0.037221
     3  N   -0.627104
     4  C    0.582038
     5  N   -0.611090
     6  O   -0.549891
     7  O   -0.550183
     8  H    0.123074
     9  H    0.097409
    10  H    0.095415
    11  H    0.094466
    12  H    0.257590
    13  H    0.244413
    14  H    0.243902
    15  H    0.254196
    16  H    0.322710
    17  H    0.309654
 Sum of Mulliken charges =  -0.00000

 Dipole moment (field-independent basis, Debye):
    X=              2.1620    Y=             -1.2818    Z=             -0.7012  Tot=              2.6094
 Quadrupole moment (field-independent basis, Debye-Ang):
   XX=            -39.1790   YY=            -44.8711   ZZ=            -41.2440
   XY=              4.3710   XZ=              1.2234   YZ=             -0.5238

  Exact polarizability:  57.067   2.360  53.664   0.566   0.148  49.867
 Approx polarizability:  72.851   3.055  73.840   0.112   0.300  73.786

                      1                      2                      3
                      A                      A                      A
 Frequencies --    103.5529               242.2828               248.6486
 Red. masses --      3.2368                 1.1715                 1.6660
 Frc consts  --      0.0204                 0.0405                 0.0607
 IR Inten    --      4.8977                 5.3326                12.2273

                      4                      5                      6
                      A                      A                      A
 Frequencies --    262.8063               272.3944               330.7261
 Red. masses --      2.6126                 1.3788                 1.3788
 Frc consts  --      0.1063                 0.0603                 0.0889
 IR Inten    --     12.6213                 6.5962                 9.1880

                      7                      8                      9
                      A                      A                      A
 Frequencies --    360.4130               382.7244               446.5304
 Red. masses --      2.7333                 1.7814                 2.7736
 Frc consts  --      0.2092                 0.1537                 0.3258
 IR Inten    --      2.0429                58.1275                26.1444

                     10                     11                     12
                      A                      A                      A
 Frequencies --    470.7768               519.3056               558.9063
 Red. masses --      1.6167                 3.2241                 3.4158
 Frc consts  --      0.2111                 0.5123                 0.6287
 IR Inten    --     83.2016                 0.3039                19.4030

                     13                     14                     15
                      A                      A                      A
 Frequencies --    604.3937               659.2698               754.4816
 Red. masses --      1.9700                 1.4601                 3.4414
 Frc consts  --      0.4240                 0.3739                 1.1542
 IR Inten    --     24.2628               119.7230                 6.0888

                     16                     17                     18
                      A                      A                      A
 Frequencies --    887.1371               925.5259               934.5189
 Red. masses --      2.0953                 1.6743                 1.4146
 Frc consts  --      0.9716                 0.8450                 0.7279
 IR Inten    --     69.6403               172.1441                21.9125

                     19                     20                     21
                      A                      A                      A
 Frequencies --    974.8492              1018.2154              1076.4945
 Red. masses --      2.0776                 1.4240                 2.8633
 Frc consts  --      1.1633                 0.8698                 1.9550
 IR Inten    --     68.3398                 3.6775               193.4560

                     22                     23                     24
                      A                      A                      A
 Frequencies --   1108.7109              1117.0935              1158.9742
 Red. masses --      1.4914                 2.2885                 1.9311
 Frc consts  --      1.0801                 1.6826                 1.5283
 IR Inten    --     14.7159                10.8568                39.9444

                     25                     26                     27
                      A                      A                      A
 Frequencies --   1240.7040              1314.5095              1338.6804
 Red. masses --      1.8364                 1.4708                 1.7676
 Frc consts  --      1.6655                 1.4973                 1.8663
 IR Inten    --      9.8910               154.9025                83.0995

                     28                     29                     30
                      A                      A                      A
 Frequencies --   1365.6321              1412.8580              1415.5997
 Red. masses --      1.5335                 1.3119                 1.2787
 Frc consts  --      1.6850                 1.5429                 1.5097
 IR Inten    --     15.2998                 3.5490                 6.2268

                     31                     32                     33
                      A                      A                      A
 Frequencies --   1468.5018              1505.2749              1522.6654
 Red. masses --      1.6956                 1.0467                 1.0793
 Frc consts  --      2.1544                 1.3973                 1.4743
 IR Inten    --    165.2209                 3.9617                12.0127

                     34                     35                     36
                      A                      A                      A
 Frequencies --   1648.2068              1662.0991              3041.2505
 Red. masses --      1.0950                 1.1093                 1.0530
 Frc consts  --      1.7527                 1.8056                 5.7384
 IR Inten    --     41.7356                38.9461                 9.9447

                     37                     38                     39
                      A                      A                      A
 Frequencies --   3042.4663              3108.9527              3131.2387
 Red. masses --      1.0671                 1.1022                 1.1014
 Frc consts  --      5.8197                 6.2766                 6.3624
 IR Inten    --     36.5326                33.7864                19.7754

                     40                     41                     42
                      A                      A                      A
 Frequencies --   3486.3506              3494.8827              3569.1434
 Red. masses --      1.0499                 1.0497                 1.0913
 Frc consts  --      7.5190                 7.5538                 8.1904
 IR Inten    --      1.1365                 0.7867                 1.4456

                     43                     44                     45
                      A                      A                      A
 Frequencies --   3588.9206              3634.4965              3809.6801
 Red. masses --      1.0927                 1.0641                 1.0651
 Frc consts  --      8.2925                 8.2821                 9.1079
 IR Inten    --      2.3517               110.6226                20.1690

 - Thermochemistry -
 -------------------
 Temperature   298.150 Kelvin.  Pressure   1.00000 Atm.
 Atom     1 has atomic number  6 and mass  12.00000

 Molecular mass:   106.07423 amu.
 Principal axes and moments of inertia in atomic units:
                           1         2         3
     Eigenvalues --   544.65860 748.81422 924.65944
           X            0.99985   0.01139   0.01273
           Y           -0.01148   0.99991   0.00648
           Z           -0.01265  -0.00662   0.99990
 This molecule is an asymmetric top.
 Rotational symmetry number  1.
 Warning -- assumption of classical behavior for rotation
           may cause significant error
 Rotational temperatures (Kelvin)      0.15902     0.11567     0.09367
 Rotational constants (GHZ):           3.31353     2.41013     1.95179
 Zero-point vibrational energy     390107.3 (Joules/Mol)
                                   93.23788 (Kcal/Mol)
 Warning -- explicit consideration of  13 degrees of freedom as
           vibrations may cause significant error
 Vibrational temperatures:    148.99   348.59   357.75   378.12   391.91
          (Kelvin)            475.84   518.55   550.65   642.46   677.34
                              747.16   804.14   869.59   948.54  1085.53
                             1276.39  1331.62  1344.56  1402.59  1464.98
                             1548.83  1595.19  1607.25  1667.50  1785.09
                             1891.28  1926.06  1964.84  2032.78  2036.73
                             2112.84  2165.75  2190.77  2371.40  2391.39
                             4375.68  4377.43  4473.08  4505.15  5016.07
                             5028.35  5135.19  5163.65  5229.22  5481.27

 Zero-point correction=                           0.148584 (Hartree/Particle)
 Thermal correction to Energy=                    0.156802
 Thermal correction to Enthalpy=                  0.157746
 Thermal correction to Gibbs Free Energy=         0.117077
 Sum of electronic and zero-point Energies=           -380.159422
 Sum of electronic and thermal Energies=              -380.151204
 Sum of electronic and thermal Enthalpies=            -380.150260
 Sum of electronic and thermal Free Energies=         -380.190929

                     E (Thermal)             CV                S
                      KCal/Mol        Cal/Mol-Kelvin    Cal/Mol-Kelvin
 Total                   98.395             31.619             85.595
 Electronic               0.000              0.000              0.000
 Translational            0.889              2.981             39.894
 Rotational               0.889              2.981             27.425
 Vibrational             96.617             25.657             18.277
 Vibration     1          0.605              1.946              3.386
 Vibration     2          0.658              1.776              1.786
 Vibration     3          0.662              1.765              1.740
 Vibration     4          0.670              1.741              1.643
 Vibration     5          0.675              1.724              1.581
 Vibration     6          0.713              1.614              1.257
 Vibration     7          0.735              1.554              1.120
 Vibration     8          0.752              1.507              1.028
 Vibration     9          0.806              1.369              0.806
 Vibration    10          0.828              1.315              0.735
 Vibration    11          0.874              1.207              0.612
 Vibration    12          0.914              1.120              0.526
 Vibration    13          0.963              1.022              0.442

 Normal termination of Gaussian 09 at Thu Sep  8 15:22:02 2022.
