 Gaussian 09, Revision E.01,
 Gaussian 09:  ES64L-G09RevE.01 30-Nov-2015

 ----------------------------
 #P OPT Freq B3LYP/6-31G(d,p)
 ----------------------------

 --------
 Frag_756
 --------
 Symbolic Z-matrix:
 Charge =  0 Multiplicity = 1

 SCF Done:  E(RB3LYP) =  -211.356337154     A.U. after   14 cycles
 SCF Done:  E(RB3LYP) =  -211.356425921     A.U. after   11 cycles
 SCF Done:  E(RB3LYP) =  -211.356418390     A.U. after   11 cycles
 SCF Done:  E(RB3LYP) =  -211.356357543     A.U. after   12 cycles
 SCF Done:  E(RB3LYP) =  -211.356432544     A.U. after   11 cycles
 Optimization completed.
    -- Stationary point found.
 Normal termination of Gaussian 09 at Thu Sep  8 15:25:13 2022.

 ----------------------------------------------------------------------
 #P Geom=AllCheck Guess=TCheck SCRF=Check GenChk RB3LYP/6-31G(d,p) Freq
 ----------------------------------------------------------------------

 Structure from the checkpoint file:  "B3LYP6-31Gdp.Frag_756.chk"
 --------
 Frag_756
 --------
 Charge =  0 Multiplicity = 1

                         Standard orientation:
 ---------------------------------------------------------------------
 Center     Atomic      Atomic             Coordinates (Angstroms)
 Number     Number       Type             X           Y           Z
 ---------------------------------------------------------------------
      1          6           0        1.132459    1.297914    0.006313
      2          6           0        0.355144   -0.000022   -0.000127
      3          6           0        1.132782   -1.297748    0.006306
      4          6           0       -0.961175   -0.000142    0.001373
      5          7           0       -2.189774   -0.000066   -0.125831
      6          1           0        0.474873    2.170380   -0.004538
      7          1           0        1.788709    1.358588   -0.871557
      8          1           0        1.774364    1.366342    0.894371
      9          1           0        1.774922   -1.365876    0.894216
     10          1           0        1.788836   -1.358391   -0.871713
     11          1           0        0.475423   -2.170388   -0.004249
     12          1           0       -2.703968   -0.000206    0.761095
 ---------------------------------------------------------------------

 SCF Done:  E(RB3LYP) =  -211.356432544     A.U. after    1 cycles

 The electronic state is 1-A.
 Alpha  occ. eigenvalues --  -14.34199 -10.23805 -10.19551 -10.18897 -10.18896
 Alpha  occ. eigenvalues --   -0.91787  -0.80030  -0.69597  -0.65414  -0.53765
 Alpha  occ. eigenvalues --   -0.46840  -0.43344  -0.43099  -0.38884  -0.38327
 Alpha  occ. eigenvalues --   -0.36603  -0.35802  -0.31869  -0.21039
 Alpha virt. eigenvalues --    0.00744   0.04874   0.09479   0.11490   0.14441
 Alpha virt. eigenvalues --    0.16018   0.17488   0.18154   0.18449   0.20953
 Alpha virt. eigenvalues --    0.29616   0.31992   0.42681   0.50838   0.51885

 Mulliken charges:
               1
     1  C   -0.337885
     2  C    0.022720
     3  C   -0.337892
     4  C    0.325656
     5  N   -0.620491
     6  H    0.116379
     7  H    0.116899
     8  H    0.112780
     9  H    0.112780
    10  H    0.116901
    11  H    0.116372
    12  H    0.255783
 Sum of Mulliken charges =  -0.00000

 Dipole moment (field-independent basis, Debye):
    X=              1.0387    Y=             -0.0001    Z=              1.4704  Tot=              1.8002
 Quadrupole moment (field-independent basis, Debye-Ang):
   XX=            -30.9967   YY=            -29.9157   ZZ=            -31.3183
   XY=              0.0005   XZ=             -4.3539   YZ=             -0.0003

  Exact polarizability:  76.599   0.001  41.231  -1.684  -0.000  33.865
 Approx polarizability: 124.552   0.002  51.419   0.092  -0.001  47.273

                      1                      2                      3
                      A                      A                      A
 Frequencies --    175.7306               178.6331               186.2451
 Red. masses --      1.0385                 1.0877                 3.5282
 Frc consts  --      0.0189                 0.0204                 0.0721
 IR Inten    --      0.0018                 0.5540                 0.2364

                      4                      5                      6
                      A                      A                      A
 Frequencies --    285.2050               327.0822               461.8171
 Red. masses --      2.5907                 2.3232                 4.2074
 Frc consts  --      0.1242                 0.1464                 0.5287
 IR Inten    --      8.1880                 0.3412                11.6589

                      7                      8                      9
                      A                      A                      A
 Frequencies --    640.6983               741.2160               751.6844
 Red. masses --      5.8516                 4.0302                 1.1194
 Frc consts  --      1.4152                 1.3046                 0.3727
 IR Inten    --      2.2592                 0.2792                73.5929

                     10                     11                     12
                      A                      A                      A
 Frequencies --    986.5357              1023.8418              1033.7995
 Red. masses --      1.3659                 1.2314                 1.4678
 Frc consts  --      0.7832                 0.7605                 0.9243
 IR Inten    --      0.8976                 5.2744                43.6419

                     13                     14                     15
                      A                      A                      A
 Frequencies --   1083.1637              1107.6341              1219.8590
 Red. masses --      1.4073                 1.4200                 4.6462
 Frc consts  --      0.9728                 1.0265                 4.0735
 IR Inten    --    101.0181                81.2338                 0.4764

                     16                     17                     18
                      A                      A                      A
 Frequencies --   1399.7210              1415.6050              1433.7814
 Red. masses --      3.4037                 1.2260                 1.2574
 Frc consts  --      3.9290                 1.4476                 1.5229
 IR Inten    --     36.5413                 0.0572                 4.8167

                     19                     20                     21
                      A                      A                      A
 Frequencies --   1487.1916              1500.7233              1503.4538
 Red. masses --      1.0447                 1.0424                 1.0455
 Frc consts  --      1.3613                 1.3833                 1.3923
 IR Inten    --      0.0205                12.6791                 7.9564

                     22                     23                     24
                      A                      A                      A
 Frequencies --   1529.1416              2131.9693              3019.5704
 Red. masses --      1.1512                 9.9963                 1.0381
 Frc consts  --      1.5860                26.7703                 5.5767
 IR Inten    --      2.0997               319.9032                26.3002

                     25                     26                     27
                      A                      A                      A
 Frequencies --   3023.5197              3070.1595              3070.7018
 Red. masses --      1.0385                 1.1013                 1.1019
 Frc consts  --      5.5935                 6.1161                 6.1219
 IR Inten    --     64.5014                59.2264                 0.0034

                     28                     29                     30
                      A                      A                      A
 Frequencies --   3130.7062              3131.1722              3420.8968
 Red. masses --      1.0988                 1.0990                 1.0759
 Frc consts  --      6.3452                 6.3485                 7.4182
 IR Inten    --     17.6989                18.9192                 3.5106

 - Thermochemistry -
 -------------------
 Temperature   298.150 Kelvin.  Pressure   1.00000 Atm.
 Atom     1 has atomic number  6 and mass  12.00000

 Molecular mass:    69.05785 amu.
 Principal axes and moments of inertia in atomic units:
                           1         2         3
     Eigenvalues --   218.95164 480.96344 671.97864
           X            0.99988  -0.00000  -0.01522
           Y            0.00000   1.00000  -0.00000
           Z            0.01522   0.00000   0.99988
 This molecule is an asymmetric top.
 Rotational symmetry number  1.
 Rotational temperatures (Kelvin)      0.39558     0.18008     0.12889
 Rotational constants (GHZ):           8.24265     3.75235     2.68571
 Zero-point vibrational energy     265998.4 (Joules/Mol)
                                   63.57514 (Kcal/Mol)
 Warning -- explicit consideration of   6 degrees of freedom as
           vibrations may cause significant error
 Vibrational temperatures:    252.84   257.01   267.96   410.35   470.60
          (Kelvin)            664.45   921.82  1066.44  1081.50  1419.40
                             1473.08  1487.41  1558.43  1593.64  1755.10
                             2013.88  2036.74  2062.89  2139.73  2159.20
                             2163.13  2200.09  3067.42  4344.48  4350.17
                             4417.27  4418.05  4504.38  4505.05  4921.90

 Zero-point correction=                           0.101313 (Hartree/Particle)
 Thermal correction to Energy=                    0.107545
 Thermal correction to Enthalpy=                  0.108489
 Thermal correction to Gibbs Free Energy=         0.072227
 Sum of electronic and zero-point Energies=           -211.255119
 Sum of electronic and thermal Energies=              -211.248888
 Sum of electronic and thermal Enthalpies=            -211.247944
 Sum of electronic and thermal Free Energies=         -211.284205

                     E (Thermal)             CV                S
                      KCal/Mol        Cal/Mol-Kelvin    Cal/Mol-Kelvin
 Total                   67.485             21.101             76.319
 Electronic               0.000              0.000              0.000
 Translational            0.889              2.981             38.614
 Rotational               0.889              2.981             25.762
 Vibrational             65.708             15.139             11.942
 Vibration     1          0.628              1.872              2.373
 Vibration     2          0.629              1.869              2.343
 Vibration     3          0.632              1.859              2.265
 Vibration     4          0.683              1.701              1.502
 Vibration     5          0.711              1.621              1.274
 Vibration     6          0.820              1.335              0.761

 Optimization completed.
    -- Stationary point found.
 Normal termination of Gaussian 09 at Thu Sep  8 15:25:21 2022.
