 Gaussian 09, Revision D.01,
 Gaussian 09:  ES64L-G09RevD.01 24-Apr-2013

 -------------------------
 #P OPT Freq B3LYP/6-31G**
 -------------------------

 ------
 Frag_6
 ------
 Symbolic Z-matrix:
 Charge =  0 Multiplicity = 1

 SCF Done:  E(RB3LYP) =  -210.176337261     A.U. after   13 cycles
 Optimization completed.
    -- Stationary point found.

 1\1\GINC-FN17\FOpt\RB3LYP\6-31G(d,p)\C4H5N1\LIUJ201281\22-Jul-2021\0\\
 #P OPT Freq B3LYP/6-31G**\\Frag_6\\0,1\C,-0.7125,-0.9833,0.\C,0.7125,-
 0.9833,0.\C,1.1251,0.3316,0.\N,0.,1.1221,0.\C,-1.1251,0.3316,0.\H,-1.3
 609,-1.8482,0.\H,1.3609,-1.8482,0.\H,2.1133,0.7667,0.\H,0.,2.1288,0.\H
 ,-2.1134,0.7667,0.\\Version=ES64L-G09RevD.01\State=1-A'\HF=-210.176337
 3\RMSD=4.201e-09\RMSF=8.007e-05\Dipole=0.0000049,0.7487592,0.\Quadrupo
 le=0.794344,3.1475999,-3.941944,0.0000305,0.,0.\PG=CS [SG(C4H5N1)]\\@

 Normal termination of Gaussian 09 at Thu Jul 22 23:18:04 2021.

 ----------------------------------------------------------------------
 #P Geom=AllCheck Guess=TCheck SCRF=Check GenChk RB3LYP/6-31G(d,p) Freq
 ----------------------------------------------------------------------

 Structure from the checkpoint file:  "/vol2/users/liuj201281/HOFBenchmark/IsodesmicSplit/Sample60/Ring26/Running/Gau-459890.chk"
 ------
 Frag_6
 ------
 Charge =  0 Multiplicity = 1

                         Standard orientation:
 ---------------------------------------------------------------------
 Center     Atomic      Atomic             Coordinates (Angstroms)
 Number     Number       Type             X           Y           Z
 ---------------------------------------------------------------------
      1          6           0        0.983303    0.712497    0.000000
      2          6           0        0.983303   -0.712503    0.000000
      3          6           0       -0.331597   -1.125103    0.000000
      4          7           0       -1.122097   -0.000003    0.000000
      5          6           0       -0.331597    1.125097    0.000000
      6          1           0        1.848203    1.360897    0.000000
      7          1           0        1.848203   -1.360903    0.000000
      8          1           0       -0.766697   -2.113303    0.000000
      9          1           0       -2.128797   -0.000003    0.000000
     10          1           0       -0.766697    2.113397    0.000000
 ---------------------------------------------------------------------

 SCF Done:  E(RB3LYP) =  -210.176337261     A.U. after    1 cycles

 The electronic state is 1-A'.
 Alpha  occ. eigenvalues --  -14.37356 -10.19712 -10.19710 -10.16087 -10.16042
 Alpha  occ. eigenvalues --   -0.96405  -0.76102  -0.70971  -0.58055  -0.55460
 Alpha  occ. eigenvalues --   -0.53514  -0.42015  -0.41435  -0.39427  -0.37921
 Alpha  occ. eigenvalues --   -0.36436  -0.23296  -0.20223
 Alpha virt. eigenvalues --    0.04949   0.08024   0.09525   0.14176   0.16524
 Alpha virt. eigenvalues --    0.17263   0.18359   0.24050   0.24450   0.33935
 Alpha virt. eigenvalues --    0.36857   0.45288   0.54192   0.55758   0.57892

 Mulliken charges:
               1
     1  C   -0.128329
     2  C   -0.128332
     3  C    0.070252
     4  N   -0.484959
     5  C    0.070240
     6  H    0.075188
     7  H    0.075188
     8  H    0.094710
     9  H    0.261326
    10  H    0.094715
 Sum of Mulliken charges =   0.00000

 Dipole moment (field-independent basis, Debye):
    X=             -1.9032    Y=              0.0000    Z=              0.0000  Tot=              1.9032
 Quadrupole moment (field-independent basis, Debye-Ang):
   XX=            -23.2734   YY=            -26.4386   ZZ=            -32.8090
   XY=              0.0000   XZ=              0.0000   YZ=              0.0000

  Exact polarizability:  52.296  -0.001  53.109   0.000   0.000  18.236
 Approx polarizability:  86.003   0.000  82.820   0.000   0.000  26.891

                      1                      2                      3
                     A"                     A"                     A"
 Frequencies --    462.2135               629.8918               641.5013
 Red. masses --      1.4633                 3.4729                 2.4741
 Frc consts  --      0.1842                 0.8119                 0.5999
 IR Inten    --     77.3735                 0.0000                 1.0361

                      4                      5                      6
                     A"                     A"                     A"
 Frequencies --    679.6059               734.6287               825.4106
 Red. masses --      1.2877                 1.1658                 1.1962
 Frc consts  --      0.3504                 0.3707                 0.4802
 IR Inten    --      0.0011               110.7100                 3.5518

                      7                      8                      9
                     A'                     A"                     A'
 Frequencies --    875.8117               877.6823               898.4846
 Red. masses --      5.2091                 1.2595                 4.0677
 Frc consts  --      2.3541                 0.5716                 1.9347
 IR Inten    --      1.3131                 0.0000                 0.1525

                     10                     11                     12
                     A'                     A'                     A'
 Frequencies --   1042.6032              1076.0184              1101.6973
 Red. masses --      1.4193                 1.3711                 1.5159
 Frc consts  --      0.9090                 0.9353                 1.0840
 IR Inten    --     26.1145                22.7632                 7.9432

                     13                     14                     15
                     A'                     A'                     A'
 Frequencies --   1166.0574              1180.3625              1318.4666
 Red. masses --      1.2422                 3.7530                 1.3592
 Frc consts  --      0.9951                 3.0808                 1.3921
 IR Inten    --      2.3544                 2.7319                 1.8841

                     16                     17                     18
                     A'                     A'                     A'
 Frequencies --   1436.7285              1471.0026              1517.4487
 Red. masses --      4.2666                 3.1297                 2.7628
 Frc consts  --      5.1890                 3.9900                 3.7483
 IR Inten    --      4.4703                 7.2211                 9.3940

                     19                     20                     21
                     A'                     A'                     A'
 Frequencies --   1594.2268              3247.3905              3258.8071
 Red. masses --      3.1455                 1.0879                 1.0932
 Frc consts  --      4.7102                 6.7596                 6.8399
 IR Inten    --      4.1748                 3.3071                 5.8073

                     22                     23                     24
                     A'                     A'                     A'
 Frequencies --   3275.4534              3281.0425              3689.1129
 Red. masses --      1.0994                 1.1062                 1.0809
 Frc consts  --      6.9495                 7.0162                 8.6673
 IR Inten    --      6.8248                 0.1442                54.5441

 - Thermochemistry -
 -------------------
 Temperature   298.150 Kelvin.  Pressure   1.00000 Atm.
 Atom     1 has atomic number  6 and mass  12.00000

 Molecular mass:    67.04220 amu.
 Principal axes and moments of inertia in atomic units:
                           1         2         3
     Eigenvalues --   197.47855 200.38216 397.86071
           X            1.00000   0.00009   0.00000
           Y           -0.00009   1.00000   0.00000
           Z            0.00000   0.00000   1.00000
 This molecule is an asymmetric top.
 Rotational symmetry number  1.
 Rotational temperatures (Kelvin)      0.43860     0.43224     0.21770
 Rotational constants (GHZ):           9.13892     9.00650     4.53611
 Zero-point vibrational energy     217012.5 (Joules/Mol)
                                   51.86722 (Kcal/Mol)
 Warning -- explicit consideration of   1 degrees of freedom as
           vibrations may cause significant error
 Vibrational temperatures:    665.02   906.27   922.98   977.80  1056.97
          (Kelvin)           1187.58  1260.10  1262.79  1292.72  1500.07
                             1548.15  1585.09  1677.69  1698.28  1896.98
                             2067.13  2116.44  2183.27  2293.73  4672.26
                             4688.69  4712.64  4720.68  5307.80

 Zero-point correction=                           0.082656 (Hartree/Particle)
 Thermal correction to Energy=                    0.086640
 Thermal correction to Enthalpy=                  0.087584
 Thermal correction to Gibbs Free Energy=         0.056250
 Sum of electronic and zero-point Energies=           -210.093682
 Sum of electronic and thermal Energies=              -210.089698
 Sum of electronic and thermal Enthalpies=            -210.088753
 Sum of electronic and thermal Free Energies=         -210.120087

                     E (Thermal)             CV                S
                      KCal/Mol        Cal/Mol-Kelvin    Cal/Mol-Kelvin
 Total                   54.367             14.819             65.947
 Electronic               0.000              0.000              0.000
 Translational            0.889              2.981             38.526
 Rotational               0.889              2.981             24.269
 Vibrational             52.590              8.857              3.152
 Vibration     1          0.820              1.334              0.760

 Optimization completed.
    -- Stationary point found.

 1\1\GINC-FN17\Freq\RB3LYP\6-31G(d,p)\C4H5N1\LIUJ201281\22-Jul-2021\0\\
 #P Geom=AllCheck Guess=TCheck SCRF=Check GenChk RB3LYP/6-31G(d,p) Freq
 \\Frag_6\\0,1\C,-0.7125,-0.9833,0.\C,0.7125,-0.9833,0.\C,1.1251,0.3316
 ,0.\N,0.,1.1221,0.\C,-1.1251,0.3316,0.\H,-1.3609,-1.8482,0.\H,1.3609,-
 1.8482,0.\H,2.1133,0.7667,0.\H,0.,2.1288,0.\H,-2.1134,0.7667,0.\\Versi
 on=ES64L-G09RevD.01\State=1-A'\HF=-210.1763373\RMSD=2.506e-09\RMSF=8.0
 06e-05\ZeroPoint=0.0826557\Thermal=0.0866397\Dipole=0.0000048,0.748759
 8,0.\DipoleDeriv=0.0237775,0.0622575,0.,0.0458259,-0.094176,0.,0.,0.,-

 Normal termination of Gaussian 09 at Thu Jul 22 23:18:13 2021.
