 Gaussian 09, Revision E.01,
 Gaussian 09:  ES64L-G09RevE.01 30-Nov-2015

 ----------------------------
 #P OPT Freq B3LYP/6-31G(d,p)
 ----------------------------

 ---------
 Frag_1144
 ---------
 Symbolic Z-matrix:
 Charge =  0 Multiplicity = 1

 SCF Done:  E(RB3LYP) =  -209.162283691     A.U. after   13 cycles
 SCF Done:  E(RB3LYP) =  -209.162330380     A.U. after    9 cycles
 SCF Done:  E(RB3LYP) =  -209.162332395     A.U. after    8 cycles
 SCF Done:  E(RB3LYP) =  -209.162332552     A.U. after    7 cycles
 Optimization completed.
    -- Stationary point found.
 Normal termination of Gaussian 09 at Thu Sep  8 14:50:20 2022.

 ----------------------------------------------------------------------
 #P Geom=AllCheck Guess=TCheck SCRF=Check GenChk RB3LYP/6-31G(d,p) Freq
 ----------------------------------------------------------------------

 Structure from the checkpoint file:  "B3LYP6-31Gdp.Frag_1144.chk"
 ---------
 Frag_1144
 ---------
 Charge =  0 Multiplicity = 1

                         Standard orientation:
 ---------------------------------------------------------------------
 Center     Atomic      Atomic             Coordinates (Angstroms)
 Number     Number       Type             X           Y           Z
 ---------------------------------------------------------------------
      1          6           0        1.721068   -0.002917   -0.186026
      2          7           0        0.618493   -0.407575    0.289486
      3          6           0       -0.528124    0.485366    0.217917
      4          8           0       -1.646185   -0.192929   -0.301054
      5          1           0        2.597184   -0.651831   -0.134182
      6          1           0        1.861587    0.979394   -0.661150
      7          1           0       -0.363559    1.355720   -0.435009
      8          1           0       -0.709547    0.850622    1.242798
      9          1           0       -1.703303   -1.032143    0.178229
 ---------------------------------------------------------------------

 SCF Done:  E(RB3LYP) =  -209.162332552     A.U. after    1 cycles

 The electronic state is 1-A.
 Alpha  occ. eigenvalues --  -19.14591 -14.34199 -10.26026 -10.23749  -1.02881
 Alpha  occ. eigenvalues --   -0.91800  -0.69591  -0.59944  -0.51635  -0.48514
 Alpha  occ. eigenvalues --   -0.47058  -0.41095  -0.36795  -0.31557  -0.27550
 Alpha  occ. eigenvalues --   -0.26597
 Alpha virt. eigenvalues --   -0.01761   0.09347   0.10888   0.14741   0.15770
 Alpha virt. eigenvalues --    0.17303   0.20890   0.23830   0.33075   0.49860
 Alpha virt. eigenvalues --    0.53587   0.57493   0.60828   0.64486   0.66348

 Mulliken charges:
               1
     1  C   -0.022039
     2  N   -0.335005
     3  C    0.178127
     4  O   -0.524987
     5  H    0.112696
     6  H    0.090793
     7  H    0.092492
     8  H    0.097895
     9  H    0.310028
 Sum of Mulliken charges =  -0.00000

 Dipole moment (field-independent basis, Debye):
    X=              1.4082    Y=              0.5816    Z=              0.5093  Tot=              1.6064
 Quadrupole moment (field-independent basis, Debye-Ang):
   XX=            -23.2607   YY=            -22.8947   ZZ=            -25.0161
   XY=              2.2465   XZ=             -3.0849   YZ=             -0.1799

  Exact polarizability:  43.912   0.928  29.808  -4.586  -3.249  23.330
 Approx polarizability:  60.109   4.440  41.627  -7.628  -6.250  33.719

                      1                      2                      3
                      A                      A                      A
 Frequencies --    115.8536               281.3452               425.9413
 Red. masses --      3.5718                 1.2637                 1.8388
 Frc consts  --      0.0282                 0.0589                 0.1966
 IR Inten    --      7.6886               103.9441                63.7543

                      4                      5                      6
                      A                      A                      A
 Frequencies --    503.0344               724.2723               959.6012
 Red. masses --      2.8435                 1.3015                 3.2043
 Frc consts  --      0.4239                 0.4023                 1.7385
 IR Inten    --     10.5358                 3.4438                31.5224

                      7                      8                      9
                      A                      A                      A
 Frequencies --   1065.2360              1072.3783              1115.9877
 Red. masses --      1.6067                 1.3810                 3.8011
 Frc consts  --      1.0742                 0.9357                 2.7892
 IR Inten    --     64.6963                26.4351                89.3697

                     10                     11                     12
                      A                      A                      A
 Frequencies --   1206.7710              1270.2410              1375.6671
 Red. masses --      1.2437                 1.3433                 1.2592
 Frc consts  --      1.0671                 1.2770                 1.4040
 IR Inten    --     10.9739                17.8239                 7.6366

                     13                     14                     15
                      A                      A                      A
 Frequencies --   1438.5476              1512.4392              1526.6369
 Red. masses --      1.2043                 1.1468                 1.1141
 Frc consts  --      1.4684                 1.5456                 1.5299
 IR Inten    --     92.7081                18.4513                 3.7679

                     16                     17                     18
                      A                      A                      A
 Frequencies --   1754.1302              2971.1258              3015.0887
 Red. masses --      6.1139                 1.0597                 1.0660
 Frc consts  --     11.0838                 5.5117                 5.7097
 IR Inten    --     32.3559                67.5590                38.1628

                     19                     20                     21
                      A                      A                      A
 Frequencies --   3025.8796              3150.1374              3794.9692
 Red. masses --      1.1016                 1.1059                 1.0654
 Frc consts  --      5.9424                 6.4659                 9.0399
 IR Inten    --     65.4867                33.7664                21.8260

 - Thermochemistry -
 -------------------
 Temperature   298.150 Kelvin.  Pressure   1.00000 Atm.
 Atom     1 has atomic number  6 and mass  12.00000

 Molecular mass:    59.03711 amu.
 Principal axes and moments of inertia in atomic units:
                           1         2         3
     Eigenvalues --    59.02916 382.95536 400.85159
           X            0.99960   0.00748  -0.02741
           Y           -0.00907   0.99826  -0.05823
           Z            0.02693   0.05846   0.99793
 This molecule is an asymmetric top.
 Rotational symmetry number  1.
 Rotational temperatures (Kelvin)      1.46731     0.22617     0.21607
 Rotational constants (GHZ):          30.57372     4.71267     4.50227
 Zero-point vibrational energy     193228.5 (Joules/Mol)
                                   46.18272 (Kcal/Mol)
 Warning -- explicit consideration of   4 degrees of freedom as
           vibrations may cause significant error
 Vibrational temperatures:    166.69   404.79   612.83   723.75  1042.07
          (Kelvin)           1380.65  1532.64  1542.91  1605.66  1736.27
                             1827.59  1979.28  2069.75  2176.06  2196.49
                             2523.80  4274.78  4338.03  4353.56  4532.34
                             5460.11

 Zero-point correction=                           0.073597 (Hartree/Particle)
 Thermal correction to Energy=                    0.078365
 Thermal correction to Enthalpy=                  0.079310
 Thermal correction to Gibbs Free Energy=         0.046618
 Sum of electronic and zero-point Energies=           -209.088736
 Sum of electronic and thermal Energies=              -209.083967
 Sum of electronic and thermal Enthalpies=            -209.083023
 Sum of electronic and thermal Free Energies=         -209.115714

                     E (Thermal)             CV                S
                      KCal/Mol        Cal/Mol-Kelvin    Cal/Mol-Kelvin
 Total                   49.175             15.094             68.804
 Electronic               0.000              0.000              0.000
 Translational            0.889              2.981             38.147
 Rotational               0.889              2.981             23.720
 Vibrational             47.398              9.133              6.937
 Vibration     1          0.608              1.936              3.168
 Vibration     2          0.681              1.708              1.525
 Vibration     3          0.788              1.414              0.872
 Vibration     4          0.858              1.243              0.651

 Optimization completed.
    -- Stationary point found.
 Normal termination of Gaussian 09 at Thu Sep  8 14:50:27 2022.
