 Gaussian 09, Revision E.01,
 Gaussian 09:  ES64L-G09RevE.01 30-Nov-2015

 --------------------------------
 #P OPT=calcfc Freq B3LYP/6-31G**
 --------------------------------

 --------
 Frag_380
 --------
 Symbolic Z-matrix:
 Charge =  0 Multiplicity = 1

 SCF Done:  E(RB3LYP) =  -300.243445568     A.U. after   16 cycles
 SCF Done:  E(RB3LYP) =  -300.274327987     A.U. after   15 cycles
 SCF Done:  E(RB3LYP) =  -300.274903737     A.U. after   15 cycles
 SCF Done:  E(RB3LYP) =  -300.280889131     A.U. after   15 cycles
 SCF Done:  E(RB3LYP) =  -300.283205192     A.U. after   14 cycles
 SCF Done:  E(RB3LYP) =  -300.284343987     A.U. after   13 cycles
 SCF Done:  E(RB3LYP) =  -300.284518761     A.U. after   13 cycles
 SCF Done:  E(RB3LYP) =  -300.284592683     A.U. after   12 cycles
 SCF Done:  E(RB3LYP) =  -300.284623418     A.U. after   10 cycles
 SCF Done:  E(RB3LYP) =  -300.284630141     A.U. after    9 cycles
 SCF Done:  E(RB3LYP) =  -300.284632236     A.U. after    9 cycles
 Optimization completed.
    -- Stationary point found.
 Normal termination of Gaussian 09 at Fri Sep 10 15:30:03 2021.

 ----------------------------------------------------------------------
 #P Geom=AllCheck Guess=TCheck SCRF=Check GenChk RB3LYP/6-31G(d,p) Freq
 ----------------------------------------------------------------------

 Structure from the checkpoint file:  "/public/home/users/caep010/.cache/gau_scr/Gau-194137.chk"
 --------
 Frag_380
 --------
 Charge =  0 Multiplicity = 1

                         Standard orientation:
 ---------------------------------------------------------------------
 Center     Atomic      Atomic             Coordinates (Angstroms)
 Number     Number       Type             X           Y           Z
 ---------------------------------------------------------------------
      1          6           0       -0.634226    1.307620    0.000018
      2          7           0       -0.663396    0.012079   -0.000078
      3          8           0       -1.576807   -0.798884    0.000026
      4          8           0        0.662848   -0.731485    0.000082
      5          7           0        1.772878    0.135541   -0.000071
      6          1           0       -1.592493    1.803613   -0.000058
      7          1           0        0.322594    1.801626   -0.000041
      8          1           0        2.310274   -0.121140   -0.827609
      9          1           0        2.310279   -0.120198    0.827785
 ---------------------------------------------------------------------

 SCF Done:  E(RB3LYP) =  -300.284632236     A.U. after    1 cycles

 The electronic state is 1-A.
 Alpha  occ. eigenvalues --  -19.22227 -19.15470 -14.52379 -14.40000 -10.22086
 Alpha  occ. eigenvalues --   -1.16720  -1.06809  -0.86765  -0.81314  -0.60650
 Alpha  occ. eigenvalues --   -0.54608  -0.54096  -0.50706  -0.47469  -0.46247
 Alpha  occ. eigenvalues --   -0.41012  -0.31717  -0.30829  -0.26510  -0.23494
 Alpha virt. eigenvalues --   -0.00827   0.02163   0.06629   0.12087   0.13183
 Alpha virt. eigenvalues --    0.14850   0.17111   0.26304   0.32483   0.52742
 Alpha virt. eigenvalues --    0.56630   0.60144   0.62004   0.64666   0.70237

 Mulliken charges:
               1
     1  C   -0.106031
     2  N    0.362170
     3  O   -0.435178
     4  O   -0.326974
     5  N   -0.349865
     6  H    0.140375
     7  H    0.156548
     8  H    0.279486
     9  H    0.279470
 Sum of Mulliken charges =   0.00000

 Dipole moment (field-independent basis, Debye):
    X=              3.3362    Y=              2.0087    Z=              0.0002  Tot=              3.8943
 Quadrupole moment (field-independent basis, Debye-Ang):
   XX=            -23.8483   YY=            -29.6774   ZZ=            -27.7826
   XY=             -4.2824   XZ=              0.0013   YZ=              0.0015

  Exact polarizability:  49.149   0.722  41.492   0.001   0.002  19.090
 Approx polarizability:  75.453  14.065  81.662   0.002   0.005  26.280

                      1                      2                      3
                      A                      A                      A
 Frequencies --    118.8457               309.2122               370.5624
 Red. masses --      5.3357                 1.0921                 3.8511
 Frc consts  --      0.0444                 0.0615                 0.3116
 IR Inten    --      0.0702                36.3972                10.8937

                      4                      5                      6
                      A                      A                      A
 Frequencies --    426.8119               539.5985               624.4689
 Red. masses --      7.6781                 2.7492                 2.2227
 Frc consts  --      0.8241                 0.4716                 0.5107
 IR Inten    --     31.3512                 9.5651                 1.1964

                      7                      8                      9
                      A                      A                      A
 Frequencies --    626.8894               694.6555               748.3484
 Red. masses --      5.0128                 1.5971                 1.2642
 Frc consts  --      1.1607                 0.4541                 0.4171
 IR Inten    --     50.0878                 5.6957                79.9960

                     10                     11                     12
                      A                      A                      A
 Frequencies --    928.4740              1117.3638              1162.2519
 Red. masses --      5.5700                 1.9178                 1.6193
 Frc consts  --      2.8291                 1.4107                 1.2888
 IR Inten    --     18.5542                25.4880                70.4221

                     13                     14                     15
                      A                      A                      A
 Frequencies --   1276.9565              1316.1330              1453.0574
 Red. masses --      2.1784                 1.1247                 1.4771
 Frc consts  --      2.0928                 1.1478                 1.8375
 IR Inten    --     91.9178                 0.2497                42.0014

                     16                     17                     18
                      A                      A                      A
 Frequencies --   1656.6884              1774.4585              3222.2641
 Red. masses --      1.0760                11.3399                 1.0484
 Frc consts  --      1.7399                21.0373                 6.4134
 IR Inten    --      7.9664               310.0199                12.5149

                     19                     20                     21
                      A                      A                      A
 Frequencies --   3357.4620              3448.1673              3553.5604
 Red. masses --      1.1263                 1.0453                 1.0995
 Frc consts  --      7.4807                 7.3225                 8.1806
 IR Inten    --     10.6745                 1.2144                 2.6973

 - Thermochemistry -
 -------------------
 Temperature   298.150 Kelvin.  Pressure   1.00000 Atm.
 Atom     1 has atomic number  6 and mass  12.00000

 Molecular mass:    76.02728 amu.
 Principal axes and moments of inertia in atomic units:
                           1         2         3
     Eigenvalues --   168.75036 416.23489 575.12278
           X            0.99925  -0.03867   0.00000
           Y            0.03867   0.99925   0.00001
           Z           -0.00000  -0.00001   1.00000
 This molecule is an asymmetric top.
 Rotational symmetry number  1.
 Rotational temperatures (Kelvin)      0.51327     0.20809     0.15060
 Rotational constants (GHZ):          10.69474     4.33587     3.13801
 Zero-point vibrational energy     171821.0 (Joules/Mol)
                                   41.06621 (Kcal/Mol)
 Warning -- explicit consideration of   5 degrees of freedom as
           vibrations may cause significant error
 Vibrational temperatures:    170.99   444.89   533.16   614.09   776.36
          (Kelvin)            898.47   901.95   999.45  1076.71  1335.87
                             1607.64  1672.22  1837.25  1893.62  2090.62
                             2383.60  2553.05  4636.11  4830.63  4961.14
                             5112.77

 Zero-point correction=                           0.065443 (Hartree/Particle)
 Thermal correction to Energy=                    0.070830
 Thermal correction to Enthalpy=                  0.071774
 Thermal correction to Gibbs Free Energy=         0.037186
 Sum of electronic and zero-point Energies=           -300.219189
 Sum of electronic and thermal Energies=              -300.213803
 Sum of electronic and thermal Enthalpies=            -300.212858
 Sum of electronic and thermal Free Energies=         -300.247446

                     E (Thermal)             CV                S
                      KCal/Mol        Cal/Mol-Kelvin    Cal/Mol-Kelvin
 Total                   44.446             18.611             72.796
 Electronic               0.000              0.000              0.000
 Translational            0.889              2.981             38.901
 Rotational               0.889              2.981             25.205
 Vibrational             42.669             12.649              8.690
 Vibration     1          0.609              1.934              3.119
 Vibration     2          0.699              1.656              1.367
 Vibration     3          0.743              1.533              1.077
 Vibration     4          0.788              1.412              0.869
 Vibration     5          0.895              1.162              0.566

 Optimization completed.
    -- Stationary point found.
 Normal termination of Gaussian 09 at Fri Sep 10 15:30:10 2021.
