 Gaussian 09, Revision D.01,
 Gaussian 09:  ES64L-G09RevD.01 24-Apr-2013

 -------------------------
 #P OPT Freq B3LYP/6-31G**
 -------------------------

 -------
 Frag_70
 -------
 Symbolic Z-matrix:
 Charge =  0 Multiplicity = 1

 SCF Done:  E(RB3LYP) =  -343.572639328     A.U. after   12 cycles
 Optimization completed.
    -- Stationary point found.
 Normal termination of Gaussian 09 at Thu Jul 22 18:13:46 2021.

 ----------------------------------------------------------------------
 #P Geom=AllCheck Guess=TCheck SCRF=Check GenChk RB3LYP/6-31G(d,p) Freq
 ----------------------------------------------------------------------

 Structure from the checkpoint file:  "/vol2/users/liuj201281/HOFBenchmark/IsodesmicSplit/Sample60/Ring26/Running/Gau-80333.chk"
 -------
 Frag_70
 -------
 Charge =  0 Multiplicity = 1

                         Standard orientation:
 ---------------------------------------------------------------------
 Center     Atomic      Atomic             Coordinates (Angstroms)
 Number     Number       Type             X           Y           Z
 ---------------------------------------------------------------------
      1          6           0       -1.257146   -0.441179    0.178888
      2          8           0       -0.249504   -1.325614   -0.262913
      3          6           0        1.010715   -0.868017    0.178888
      4          8           0        1.272908    0.446824   -0.262813
      5          6           0        0.246418    1.309196    0.178988
      6          8           0       -1.023416    0.878790   -0.263013
      7          1           0       -2.200960   -0.772311   -0.254513
      8          1           0       -1.309799   -0.459458    1.284288
      9          1           0        1.769407   -1.519824   -0.254813
     10          1           0        1.053172   -0.904565    1.284288
     11          1           0        0.256712    1.363920    1.284388
     12          1           0        0.431643    2.292232   -0.254313
 ---------------------------------------------------------------------

 SCF Done:  E(RB3LYP) =  -343.572639328     A.U. after    1 cycles

 The electronic state is 1-A.
 Alpha  occ. eigenvalues --  -19.16701 -19.16698 -19.16697 -10.29117 -10.29116
 Alpha  occ. eigenvalues --  -10.29113  -1.11636  -1.02474  -1.02467  -0.71925
 Alpha  occ. eigenvalues --   -0.71922  -0.60709  -0.54033  -0.53100  -0.48850
 Alpha  occ. eigenvalues --   -0.48848  -0.44832  -0.43184  -0.43179  -0.33640
 Alpha  occ. eigenvalues --   -0.33639  -0.29183  -0.29181  -0.27868
 Alpha virt. eigenvalues --    0.09271   0.11562   0.11564   0.12553   0.14626
 Alpha virt. eigenvalues --    0.14628   0.17849   0.17852   0.19692   0.23899
 Alpha virt. eigenvalues --    0.25710   0.25712   0.50033   0.50034   0.52352

 Mulliken charges:
               1
     1  C    0.261639
     2  O   -0.466359
     3  C    0.261736
     4  O   -0.466319
     5  C    0.261726
     6  O   -0.466298
     7  H    0.124783
     8  H    0.079833
     9  H    0.124775
    10  H    0.079857
    11  H    0.079853
    12  H    0.124775
 Sum of Mulliken charges =   0.00000

 Dipole moment (field-independent basis, Debye):
    X=              0.0003    Y=              0.0005    Z=              1.9216  Tot=              1.9216
 Quadrupole moment (field-independent basis, Debye-Ang):
   XX=            -34.5114   YY=            -34.5123   ZZ=            -35.4926
   XY=             -0.0001   XZ=             -0.0002   YZ=              0.0008

  Exact polarizability:  42.122  -0.001  42.116  -0.001   0.002  34.782
 Approx polarizability:  56.688   0.000  56.678   0.000   0.002  50.267

                      1                      2                      3
                      A                      A                      A
 Frequencies --    289.1313               291.5850               457.3025
 Red. masses --      2.4752                 2.4823                 1.7572
 Frc consts  --      0.1219                 0.1243                 0.2165
 IR Inten    --      0.0865                 0.0913                19.0314

                      4                      5                      6
                      A                      A                      A
 Frequencies --    528.0705               528.6170               756.8813
 Red. masses --      7.3557                 7.3448                 6.4127
 Frc consts  --      1.2085                 1.2092                 2.1645
 IR Inten    --      8.0974                 8.0852                 0.4309

                      7                      8                      9
                      A                      A                      A
 Frequencies --    956.1561               958.3848               959.2550
 Red. masses --     10.9299                 4.0000                 3.7929
 Frc consts  --      5.8874                 2.1646                 2.0563
 IR Inten    --      3.0337                40.0653                43.4205

                     10                     11                     12
                      A                      A                      A
 Frequencies --    988.5786              1087.5615              1087.8306
 Red. masses --      5.1259                 2.1218                 2.1188
 Frc consts  --      2.9515                 1.4786                 1.4773
 IR Inten    --     80.3027                62.3983                62.3087

                     13                     14                     15
                      A                      A                      A
 Frequencies --   1193.1858              1194.2962              1246.3046
 Red. masses --      3.3100                 3.3084                 2.1077
 Frc consts  --      2.7764                 2.7803                 1.9289
 IR Inten    --    223.0597               222.9748                22.1841

                     16                     17                     18
                      A                      A                      A
 Frequencies --   1251.7362              1333.2392              1333.7992
 Red. masses --      1.0139                 1.1469                 1.1482
 Frc consts  --      0.9360                 1.2012                 1.2035
 IR Inten    --      0.0044                 0.7913                 0.8580

                     19                     20                     21
                      A                      A                      A
 Frequencies --   1405.2966              1456.6757              1456.9129
 Red. masses --      1.1412                 1.2218                 1.2232
 Frc consts  --      1.3279                 1.5275                 1.5297
 IR Inten    --      0.0015                36.7002                36.9863

                     22                     23                     24
                      A                      A                      A
 Frequencies --   1515.6269              1516.6272              1534.6418
 Red. masses --      1.0947                 1.0956                 1.1244
 Frc consts  --      1.4816                 1.4848                 1.5603
 IR Inten    --      0.7027                 0.8056                 4.7691

                     25                     26                     27
                      A                      A                      A
 Frequencies --   2933.1711              2933.5091              2952.7611
 Red. masses --      1.0703                 1.0703                 1.0719
 Frc consts  --      5.4255                 5.4267                 5.5062
 IR Inten    --     26.2059                26.2036               193.1847

                     28                     29                     30
                      A                      A                      A
 Frequencies --   3148.4945              3149.0980              3152.8322
 Red. masses --      1.0934                 1.0934                 1.0982
 Frc consts  --      6.3861                 6.3883                 6.4316
 IR Inten    --     35.7847                35.7465                12.3283

 - Thermochemistry -
 -------------------
 Temperature   298.150 Kelvin.  Pressure   1.00000 Atm.
 Atom     1 has atomic number  6 and mass  12.00000

 Molecular mass:    90.03169 amu.
 Principal axes and moments of inertia in atomic units:
                           1         2         3
     Eigenvalues --   343.83274 343.90765 619.54529
           X            0.99950  -0.03148  -0.00005
           Y            0.03148   0.99950  -0.00002
           Z            0.00005   0.00002   1.00000
 This molecule is an asymmetric top.
 Rotational symmetry number  1.
 Rotational temperatures (Kelvin)      0.25191     0.25185     0.13980
 Rotational constants (GHZ):           5.24889     5.24775     2.91301
 Zero-point vibrational energy     260771.3 (Joules/Mol)
                                   62.32584 (Kcal/Mol)
 Warning -- explicit consideration of   5 degrees of freedom as
           vibrations may cause significant error
 Vibrational temperatures:    415.99   419.53   657.96   759.77   760.56
          (Kelvin)           1088.98  1375.69  1378.90  1380.15  1422.34
                             1564.76  1565.14  1716.73  1718.32  1793.15
                             1800.97  1918.23  1919.04  2021.91  2095.83
                             2096.17  2180.65  2182.09  2208.00  4220.17
                             4220.66  4248.36  4529.98  4530.84  4536.22

 Zero-point correction=                           0.099323 (Hartree/Particle)
 Thermal correction to Energy=                    0.104112
 Thermal correction to Enthalpy=                  0.105056
 Thermal correction to Gibbs Free Energy=         0.071233
 Sum of electronic and zero-point Energies=           -343.473317
 Sum of electronic and thermal Energies=              -343.468527
 Sum of electronic and thermal Enthalpies=            -343.467583
 Sum of electronic and thermal Free Energies=         -343.501406

                     E (Thermal)             CV                S
                      KCal/Mol        Cal/Mol-Kelvin    Cal/Mol-Kelvin
 Total                   65.331             17.557             71.186
 Electronic               0.000              0.000              0.000
 Translational            0.889              2.981             39.405
 Rotational               0.889              2.981             25.797
 Vibrational             63.554             11.595              5.984
 Vibration     1          0.686              1.694              1.479
 Vibration     2          0.687              1.689              1.465
 Vibration     3          0.815              1.345              0.774
 Vibration     4          0.883              1.188              0.592
 Vibration     5          0.884              1.187              0.590

 Normal termination of Gaussian 09 at Thu Jul 22 18:14:00 2021.
