 Gaussian 09, Revision E.01,
 Gaussian 09:  ES64L-G09RevE.01 30-Nov-2015

 ----------------------------
 #P OPT Freq B3LYP/6-31G(d,p)
 ----------------------------

 --------
 Frag_853
 --------
 Symbolic Z-matrix:
 Charge =  0 Multiplicity = 1

 SCF Done:  E(RB3LYP) =  -340.989974191     A.U. after   12 cycles
 SCF Done:  E(RB3LYP) =  -340.990029472     A.U. after   10 cycles
 SCF Done:  E(RB3LYP) =  -340.989968204     A.U. after   10 cycles
 SCF Done:  E(RB3LYP) =  -340.990039236     A.U. after   10 cycles
 SCF Done:  E(RB3LYP) =  -340.990039666     A.U. after    7 cycles
 SCF Done:  E(RB3LYP) =  -340.990039855     A.U. after    7 cycles
 Optimization completed.
    -- Stationary point found.
 Normal termination of Gaussian 09 at Thu Sep  8 15:21:01 2022.

 ----------------------------------------------------------------------
 #P Geom=AllCheck Guess=TCheck SCRF=Check GenChk RB3LYP/6-31G(d,p) Freq
 ----------------------------------------------------------------------

 Structure from the checkpoint file:  "B3LYP6-31Gdp.Frag_853.chk"
 --------
 Frag_853
 --------
 Charge =  0 Multiplicity = 1

                         Standard orientation:
 ---------------------------------------------------------------------
 Center     Atomic      Atomic             Coordinates (Angstroms)
 Number     Number       Type             X           Y           Z
 ---------------------------------------------------------------------
      1          7           0       -1.987476   -0.003716    0.061418
      2          6           0       -0.822745   -0.699628   -0.495059
      3          6           0        0.447853    0.008509    0.016469
      4          7           0        1.703814   -0.651049   -0.261247
      5          8           0        0.445114    1.263845   -0.640677
      6          8           0        0.376404    0.136385    1.407934
      7          1           0       -2.087105    0.898627   -0.396456
      8          1           0       -2.842430   -0.528858   -0.094417
      9          1           0       -0.791579   -0.740085   -1.594775
     10          1           0       -0.817621   -1.725630   -0.113735
     11          1           0        1.788248   -1.492526    0.301226
     12          1           0        1.759614   -0.898883   -1.244918
     13          1           0        1.226580    1.726289   -0.302717
     14          1           0       -0.572864    0.289286    1.578079
 ---------------------------------------------------------------------

 SCF Done:  E(RB3LYP) =  -340.990039855     A.U. after    1 cycles

 The electronic state is 1-A.
 Alpha  occ. eigenvalues --  -19.13738 -19.13087 -14.32803 -14.31466 -10.30101
 Alpha  occ. eigenvalues --  -10.21147  -1.05807  -0.98172  -0.88675  -0.86770
 Alpha  occ. eigenvalues --   -0.69525  -0.59451  -0.55115  -0.50057  -0.47419
 Alpha  occ. eigenvalues --   -0.45986  -0.45131  -0.42875  -0.39049  -0.37598
 Alpha  occ. eigenvalues --   -0.32779  -0.29870  -0.27018  -0.25816  -0.24186
 Alpha virt. eigenvalues --    0.07227   0.09282   0.12067   0.13353   0.15510
 Alpha virt. eigenvalues --    0.15656   0.17061   0.19644   0.21554   0.24628
 Alpha virt. eigenvalues --    0.26293   0.29157   0.31001   0.54314   0.56285

 Mulliken charges:
               1
     1  N   -0.629063
     2  C   -0.066913
     3  C    0.563644
     4  N   -0.595934
     5  O   -0.542548
     6  O   -0.548484
     7  H    0.264560
     8  H    0.246391
     9  H    0.088498
    10  H    0.102372
    11  H    0.247462
    12  H    0.240724
    13  H    0.308173
    14  H    0.321118
 Sum of Mulliken charges =  -0.00000

 Dipole moment (field-independent basis, Debye):
    X=             -1.6853    Y=             -1.4462    Z=             -1.6088  Tot=              2.7423
 Quadrupole moment (field-independent basis, Debye-Ang):
   XX=            -33.0217   YY=            -32.3547   ZZ=            -38.3332
   XY=             -0.1108   XZ=             -0.7242   YZ=              1.4085

  Exact polarizability:  48.354  -1.052  41.755  -1.117  -0.094  39.780
 Approx polarizability:  61.126  -1.843  57.024  -1.094  -1.775  57.426

                      1                      2                      3
                      A                      A                      A
 Frequencies --    148.4013               243.5035               262.3199
 Red. masses --      2.8590                 2.7608                 1.0967
 Frc consts  --      0.0371                 0.0964                 0.0445
 IR Inten    --     10.6621                 1.8169                19.9724

                      4                      5                      6
                      A                      A                      A
 Frequencies --    321.8526               349.0361               400.0610
 Red. masses --      1.3753                 1.3766                 3.0318
 Frc consts  --      0.0839                 0.0988                 0.2859
 IR Inten    --     15.7294                71.7932                 4.8708

                      7                      8                      9
                      A                      A                      A
 Frequencies --    450.2603               513.1610               537.9128
 Red. masses --      2.1041                 3.0510                 2.4800
 Frc consts  --      0.2513                 0.4734                 0.4228
 IR Inten    --     19.1268                 7.1450                35.3657

                     10                     11                     12
                      A                      A                      A
 Frequencies --    631.2587               662.0399               794.3635
 Red. masses --      3.7278                 1.1871                 2.7569
 Frc consts  --      0.8752                 0.3066                 1.0250
 IR Inten    --     35.0146               110.0087                66.4753

                     13                     14                     15
                      A                      A                      A
 Frequencies --    844.6779               878.6200               949.0658
 Red. masses --      1.6072                 1.3082                 2.3392
 Frc consts  --      0.6756                 0.5950                 1.2414
 IR Inten    --    142.0015                98.2081               130.0107

                     16                     17                     18
                      A                      A                      A
 Frequencies --   1024.9558              1048.7650              1082.6057
 Red. masses --      2.4263                 1.6588                 2.5468
 Frc consts  --      1.5018                 1.0750                 1.7587
 IR Inten    --    125.7573                16.8382                27.8046

                     19                     20                     21
                      A                      A                      A
 Frequencies --   1125.0532              1230.3492              1291.9553
 Red. masses --      1.5680                 1.7633                 1.4877
 Frc consts  --      1.1693                 1.5726                 1.4631
 IR Inten    --     81.9519               122.6877                16.4446

                     22                     23                     24
                      A                      A                      A
 Frequencies --   1341.2329              1368.1601              1407.7086
 Red. masses --      1.4607                 1.7173                 1.3376
 Frc consts  --      1.5481                 1.8939                 1.5617
 IR Inten    --      2.6178                58.6951                45.8187

                     25                     26                     27
                      A                      A                      A
 Frequencies --   1472.9951              1507.8274              1641.4084
 Red. masses --      1.6330                 1.0966                 1.1430
 Frc consts  --      2.0875                 1.4689                 1.8144
 IR Inten    --    146.8266                12.5547                31.0947

                     28                     29                     30
                      A                      A                      A
 Frequencies --   1650.3104              3000.6859              3095.5409
 Red. masses --      1.1016                 1.0691                 1.0954
 Frc consts  --      1.7677                 5.6718                 6.1842
 IR Inten    --     56.2308                60.9237                28.4579

                     31                     32                     33
                      A                      A                      A
 Frequencies --   3509.4041              3513.4121              3600.2368
 Red. masses --      1.0491                 1.0484                 1.0942
 Frc consts  --      7.6123                 7.6246                 8.3563
 IR Inten    --      1.1396                 0.8754                 3.4049

                     34                     35                     36
                      A                      A                      A
 Frequencies --   3614.4161              3649.5809              3790.1210
 Red. masses --      1.0945                 1.0646                 1.0649
 Frc consts  --      8.4248                 8.3546                 9.0128
 IR Inten    --      2.8733               113.8461                26.4709

 - Thermochemistry -
 -------------------
 Temperature   298.150 Kelvin.  Pressure   1.00000 Atm.
 Atom     1 has atomic number  7 and mass  14.00307

 Molecular mass:    92.05858 amu.
 Principal axes and moments of inertia in atomic units:
                           1         2         3
     Eigenvalues --   348.42172 646.12646 658.66189
           X            0.99996   0.00051  -0.00845
           Y            0.00693  -0.62119   0.78363
           Z            0.00485   0.78366   0.62118
 This molecule is an asymmetric top.
 Rotational symmetry number  1.
 Rotational temperatures (Kelvin)      0.24859     0.13405     0.13150
 Rotational constants (GHZ):           5.17976     2.79317     2.74001
 Zero-point vibrational energy     316730.8 (Joules/Mol)
                                   75.70048 (Kcal/Mol)
 Warning -- explicit consideration of   9 degrees of freedom as
           vibrations may cause significant error
 Vibrational temperatures:    213.52   350.35   377.42   463.07   502.18
          (Kelvin)            575.60   647.82   738.32   773.94   908.24
                              952.53  1142.91  1215.30  1264.14  1365.49
                             1474.68  1508.94  1557.63  1618.70  1770.20
                             1858.83  1929.73  1968.47  2025.38  2119.31
                             2169.42  2361.62  2374.43  4317.31  4453.79
                             5049.24  5055.01  5179.93  5200.33  5250.93
                             5453.13

 Zero-point correction=                           0.120636 (Hartree/Particle)
 Thermal correction to Energy=                    0.127524
 Thermal correction to Enthalpy=                  0.128468
 Thermal correction to Gibbs Free Energy=         0.090760
 Sum of electronic and zero-point Energies=           -340.869403
 Sum of electronic and thermal Energies=              -340.862516
 Sum of electronic and thermal Enthalpies=            -340.861572
 Sum of electronic and thermal Free Energies=         -340.899280

                     E (Thermal)             CV                S
                      KCal/Mol        Cal/Mol-Kelvin    Cal/Mol-Kelvin
 Total                   80.022             26.048             79.362
 Electronic               0.000              0.000              0.000
 Translational            0.889              2.981             39.471
 Rotational               0.889              2.981             26.497
 Vibrational             78.245             20.087             13.394
 Vibration     1          0.618              1.904              2.693
 Vibration     2          0.659              1.774              1.777
 Vibration     3          0.670              1.742              1.646
 Vibration     4          0.707              1.632              1.301
 Vibration     5          0.726              1.577              1.171
 Vibration     6          0.766              1.470              0.962
 Vibration     7          0.809              1.360              0.795
 Vibration     8          0.868              1.221              0.626
 Vibration     9          0.893              1.166              0.570

 Normal termination of Gaussian 09 at Thu Sep  8 15:21:12 2022.
