 Gaussian 09, Revision E.01,
 Gaussian 09:  ES64L-G09RevE.01 30-Nov-2015

 ----------------------------
 #P OPT Freq B3LYP/6-31G(d,p)
 ----------------------------

 --------
 Frag_522
 --------
 Symbolic Z-matrix:
 Charge =  0 Multiplicity = 1

 SCF Done:  E(RB3LYP) =  -265.713738006     A.U. after   13 cycles
 SCF Done:  E(RB3LYP) =  -265.713774844     A.U. after    8 cycles
 SCF Done:  E(RB3LYP) =  -265.713777255     A.U. after    8 cycles
 Optimization completed.
    -- Stationary point found.
 Normal termination of Gaussian 09 at Thu Sep  8 15:11:31 2022.

 ----------------------------------------------------------------------
 #P Geom=AllCheck Guess=TCheck SCRF=Check GenChk RB3LYP/6-31G(d,p) Freq
 ----------------------------------------------------------------------

 Structure from the checkpoint file:  "B3LYP6-31Gdp.Frag_522.chk"
 --------
 Frag_522
 --------
 Charge =  0 Multiplicity = 1

                         Standard orientation:
 ---------------------------------------------------------------------
 Center     Atomic      Atomic             Coordinates (Angstroms)
 Number     Number       Type             X           Y           Z
 ---------------------------------------------------------------------
      1          6           0        0.660080    1.350104    0.096416
      2          7           0        0.405011   -0.030436   -0.300482
      3          7           0        1.513679   -0.900942   -0.081664
      4          6           0       -0.779195   -0.592656    0.340179
      5          8           0       -1.945980    0.048528   -0.122175
      6          1           0        1.438927    1.782249   -0.539827
      7          1           0       -0.257918    1.929066   -0.027888
      8          1           0        0.984283    1.433402    1.151896
      9          1           0        2.186034   -0.731921   -0.826259
     10          1           0        1.984066   -0.663306    0.799658
     11          1           0       -0.785900   -0.451857    1.435358
     12          1           0       -0.761521   -1.668097    0.126171
     13          1           0       -1.936266   -0.042807   -1.086262
 ---------------------------------------------------------------------

 SCF Done:  E(RB3LYP) =  -265.713777255     A.U. after    1 cycles

 The electronic state is 1-A.
 Alpha  occ. eigenvalues --  -19.14341 -14.35113 -14.34455 -10.24706 -10.20338
 Alpha  occ. eigenvalues --   -1.02666  -0.96362  -0.78902  -0.69848  -0.61142
 Alpha  occ. eigenvalues --   -0.50900  -0.50217  -0.48759  -0.43746  -0.43122
 Alpha  occ. eigenvalues --   -0.40460  -0.37948  -0.33939  -0.27725  -0.25448
 Alpha  occ. eigenvalues --   -0.22887
 Alpha virt. eigenvalues --    0.07461   0.09083   0.13168   0.14450   0.15449
 Alpha virt. eigenvalues --    0.16904   0.17379   0.17916   0.19320   0.22306
 Alpha virt. eigenvalues --    0.26235   0.27451   0.51612   0.53584   0.55748

 Mulliken charges:
               1
     1  C   -0.169351
     2  N   -0.339438
     3  N   -0.454933
     4  C    0.219838
     5  O   -0.535434
     6  H    0.103662
     7  H    0.130042
     8  H    0.076825
     9  H    0.255240
    10  H    0.225193
    11  H    0.079732
    12  H    0.104158
    13  H    0.304467
 Sum of Mulliken charges =  -0.00000

 Dipole moment (field-independent basis, Debye):
    X=              1.8410    Y=              0.6686    Z=             -0.3323  Tot=              1.9867
 Quadrupole moment (field-independent basis, Debye-Ang):
   XX=            -30.6697   YY=            -33.1134   ZZ=            -29.2049
   XY=              1.9632   XZ=              2.3556   YZ=             -0.3081

  Exact polarizability:  46.352  -1.055  39.903   0.839  -0.331  38.462
 Approx polarizability:  59.754  -3.454  51.585   1.228  -0.062  55.010

                      1                      2                      3
                      A                      A                      A
 Frequencies --    133.7406               255.4029               292.9390
 Red. masses --      2.5637                 1.3694                 1.4375
 Frc consts  --      0.0270                 0.0526                 0.0727
 IR Inten    --      7.8293                 2.9920                 7.9872

                      4                      5                      6
                      A                      A                      A
 Frequencies --    345.7942               365.6162               434.8303
 Red. masses --      1.4457                 1.5614                 1.8833
 Frc consts  --      0.1019                 0.1230                 0.2098
 IR Inten    --     33.9116                27.7816                64.9309

                      7                      8                      9
                      A                      A                      A
 Frequencies --    440.2533               553.4249               836.0420
 Red. masses --      1.8176                 3.3132                 4.4204
 Frc consts  --      0.2076                 0.5979                 1.8204
 IR Inten    --     49.1775                25.7450                30.1401

                     10                     11                     12
                      A                      A                      A
 Frequencies --    942.2187              1019.8545              1076.8631
 Red. masses --      1.8248                 1.4515                 1.7221
 Frc consts  --      0.9545                 0.8895                 1.1766
 IR Inten    --    105.2929                15.9013               110.4398

                     13                     14                     15
                      A                      A                      A
 Frequencies --   1106.1640              1144.2630              1178.1590
 Red. masses --      3.5713                 1.3672                 1.9338
 Frc consts  --      2.5747                 1.0547                 1.5815
 IR Inten    --     51.3629                13.0121                12.5962

                     16                     17                     18
                      A                      A                      A
 Frequencies --   1262.9648              1286.0389              1341.0423
 Red. masses --      1.7050                 1.6941                 1.4874
 Frc consts  --      1.6023                 1.6508                 1.5760
 IR Inten    --      8.1353                 6.4974                18.3995

                     19                     20                     21
                      A                      A                      A
 Frequencies --   1383.5512              1429.6992              1461.0776
 Red. masses --      1.2614                 1.1942                 1.2134
 Frc consts  --      1.4226                 1.4382                 1.5261
 IR Inten    --     13.2536                40.1498                28.5908

                     22                     23                     24
                      A                      A                      A
 Frequencies --   1505.3165              1512.4578              1538.5061
 Red. masses --      1.0592                 1.0523                 1.0909
 Frc consts  --      1.4142                 1.4182                 1.5213
 IR Inten    --     13.5808                 7.4390                 0.2547

                     25                     26                     27
                      A                      A                      A
 Frequencies --   1682.9887              2935.0169              2968.8257
 Red. masses --      1.0835                 1.0598                 1.0677
 Frc consts  --      1.8081                 5.3789                 5.5445
 IR Inten    --     18.3113                66.8451                94.1099

                     28                     29                     30
                      A                      A                      A
 Frequencies --   3063.7982              3081.9541              3140.7218
 Red. masses --      1.0959                 1.0751                 1.1012
 Frc consts  --      6.0608                 6.0166                 6.3999
 IR Inten    --     45.2923                36.3908                13.4203

                     31                     32                     33
                      A                      A                      A
 Frequencies --   3361.3195              3534.2207              3786.6869
 Red. masses --      1.0573                 1.0834                 1.0652
 Frc consts  --      7.0385                 7.9729                 8.9994
 IR Inten    --     26.5453                 0.2459                14.3419

 - Thermochemistry -
 -------------------
 Temperature   298.150 Kelvin.  Pressure   1.00000 Atm.
 Atom     1 has atomic number  6 and mass  12.00000

 Molecular mass:    76.06366 amu.
 Principal axes and moments of inertia in atomic units:
                           1         2         3
     Eigenvalues --   213.32310 477.31451 624.08065
           X            0.99947   0.03134   0.00915
           Y           -0.03133   0.99951  -0.00146
           Z           -0.00920   0.00117   0.99996
 This molecule is an asymmetric top.
 Rotational symmetry number  1.
 Rotational temperatures (Kelvin)      0.40602     0.18146     0.13879
 Rotational constants (GHZ):           8.46013     3.78103     2.89184
 Zero-point vibrational energy     301469.4 (Joules/Mol)
                                   72.05292 (Kcal/Mol)
 Warning -- explicit consideration of   8 degrees of freedom as
           vibrations may cause significant error
 Vibrational temperatures:    192.42   367.47   421.47   497.52   526.04
          (Kelvin)            625.62   633.43   796.25  1202.88  1355.64
                             1467.34  1549.36  1591.52  1646.34  1695.11
                             1817.12  1850.32  1929.46  1990.62  2057.02
                             2102.16  2165.81  2176.09  2213.56  2421.44
                             4222.83  4271.47  4408.12  4434.24  4518.79
                             4836.18  5084.95  5448.19

 Zero-point correction=                           0.114824 (Hartree/Particle)
 Thermal correction to Energy=                    0.120993
 Thermal correction to Enthalpy=                  0.121938
 Thermal correction to Gibbs Free Energy=         0.085889
 Sum of electronic and zero-point Energies=           -265.598954
 Sum of electronic and thermal Energies=              -265.592784
 Sum of electronic and thermal Enthalpies=            -265.591840
 Sum of electronic and thermal Free Energies=         -265.627888

                     E (Thermal)             CV                S
                      KCal/Mol        Cal/Mol-Kelvin    Cal/Mol-Kelvin
 Total                   75.925             21.786             75.870
 Electronic               0.000              0.000              0.000
 Translational            0.889              2.981             38.903
 Rotational               0.889              2.981             25.655
 Vibrational             74.147             15.824             11.313
 Vibration     1          0.613              1.920              2.892
 Vibration     2          0.666              1.754              1.693
 Vibration     3          0.688              1.687              1.457
 Vibration     4          0.724              1.584              1.185
 Vibration     5          0.739              1.543              1.098
 Vibration     6          0.795              1.394              0.843
 Vibration     7          0.800              1.382              0.826
 Vibration     8          0.909              1.132              0.537

 Normal termination of Gaussian 09 at Thu Sep  8 15:11:41 2022.
