 Gaussian 09, Revision E.01,
 Gaussian 09:  ES64L-G09RevE.01 30-Nov-2015

 --------------------------------
 #P OPT=calcfc Freq B3LYP/6-31G**
 --------------------------------

 --------
 Frag_291
 --------
 Symbolic Z-matrix:
 Charge =  0 Multiplicity = 1

 SCF Done:  E(RB3LYP) =  -237.099476415     A.U. after   12 cycles
 SCF Done:  E(RB3LYP) =  -237.102028844     A.U. after   10 cycles
 SCF Done:  E(RB3LYP) =  -237.102062733     A.U. after    9 cycles
 SCF Done:  E(RB3LYP) =  -237.102063328     A.U. after    7 cycles
 SCF Done:  E(RB3LYP) =  -237.102063313     A.U. after    5 cycles
 Optimization completed.
    -- Stationary point found.
 Normal termination of Gaussian 09 at Fri Sep 10 18:53:51 2021.

 ----------------------------------------------------------------------
 #P Geom=AllCheck Guess=TCheck SCRF=Check GenChk RB3LYP/6-31G(d,p) Freq
 ----------------------------------------------------------------------

 Structure from the checkpoint file:  "/public/home/users/caep010/.cache/gau_scr/Gau-92363.chk"
 --------
 Frag_291
 --------
 Charge =  0 Multiplicity = 1

                         Standard orientation:
 ---------------------------------------------------------------------
 Center     Atomic      Atomic             Coordinates (Angstroms)
 Number     Number       Type             X           Y           Z
 ---------------------------------------------------------------------
      1          6           0        1.001786    1.201383    0.843942
      2          6           0        0.711251    0.314081   -0.377546
      3          6           0        1.810204   -0.747380   -0.542544
      4          6           0       -0.711251   -0.314081   -0.377546
      5          6           0       -1.810204    0.747380   -0.542544
      6          6           0       -1.001786   -1.201383    0.843942
      7          1           0        0.253038    1.989308    0.971123
      8          1           0        1.031582    0.615485    1.769243
      9          1           0        1.976283    1.690279    0.738217
     10          1           0        0.753683    0.960931   -1.266729
     11          1           0        2.791974   -0.276843   -0.663345
     12          1           0        1.871521   -1.406092    0.330784
     13          1           0        1.630715   -1.375211   -1.422411
     14          1           0       -0.753683   -0.960931   -1.266729
     15          1           0       -2.791974    0.276843   -0.663345
     16          1           0       -1.630715    1.375211   -1.422411
     17          1           0       -1.871521    1.406092    0.330784
     18          1           0       -1.031582   -0.615485    1.769243
     19          1           0       -0.253038   -1.989308    0.971123
     20          1           0       -1.976283   -1.690279    0.738217
 ---------------------------------------------------------------------

 SCF Done:  E(RB3LYP) =  -237.102063313     A.U. after    1 cycles

 The electronic state is 1-A.
 Alpha  occ. eigenvalues --  -10.18225 -10.18206 -10.16796 -10.16796 -10.16768
 Alpha  occ. eigenvalues --  -10.16768  -0.81092  -0.74064  -0.68015  -0.67222
 Alpha  occ. eigenvalues --   -0.60655  -0.52965  -0.46421  -0.43920  -0.43666
 Alpha  occ. eigenvalues --   -0.40173  -0.39265  -0.38233  -0.36858  -0.36858
 Alpha  occ. eigenvalues --   -0.34167  -0.34046  -0.30890  -0.30829  -0.30078
 Alpha virt. eigenvalues --    0.07871   0.12309   0.12351   0.13714   0.14548
 Alpha virt. eigenvalues --    0.14776   0.16615   0.17189   0.18129   0.18789
 Alpha virt. eigenvalues --    0.20220   0.20946   0.21726   0.23537   0.23687

 Mulliken charges:
               1
     1  C   -0.315101
     2  C   -0.041518
     3  C   -0.313620
     4  C   -0.041518
     5  C   -0.313620
     6  C   -0.315101
     7  H    0.099286
     8  H    0.101435
     9  H    0.097234
    10  H    0.079255
    11  H    0.096404
    12  H    0.100654
    13  H    0.095973
    14  H    0.079255
    15  H    0.096404
    16  H    0.095973
    17  H    0.100654
    18  H    0.101435
    19  H    0.099286
    20  H    0.097234
 Sum of Mulliken charges =  -0.00000

 Dipole moment (field-independent basis, Debye):
    X=             -0.0000    Y=              0.0000    Z=             -0.0707  Tot=              0.0707
 Quadrupole moment (field-independent basis, Debye-Ang):
   XX=            -41.6708   YY=            -41.6668   ZZ=            -41.4701
   XY=              0.2729   XZ=              0.0000   YZ=              0.0000

  Exact polarizability:  70.460   0.299  64.168   0.000   0.000  61.191
 Approx polarizability:  89.102   0.773  87.393   0.000   0.000  87.479

                      1                      2                      3
                      A                      A                      A
 Frequencies --     61.5191               197.4944               235.9818
 Red. masses --      2.0370                 1.0193                 1.0845
 Frc consts  --      0.0045                 0.0234                 0.0356
 IR Inten    --      0.0030                 0.0016                 0.0001

                      4                      5                      6
                      A                      A                      A
 Frequencies --    236.2415               245.8189               267.1938
 Red. masses --      1.0527                 1.0667                 2.5649
 Frc consts  --      0.0346                 0.0380                 0.1079
 IR Inten    --      0.1544                 0.0101                 0.0250

                      7                      8                      9
                      A                      A                      A
 Frequencies --    282.6486               339.9500               395.8725
 Red. masses --      2.5727                 2.2766                 2.0092
 Frc consts  --      0.1211                 0.1550                 0.1855
 IR Inten    --      0.0185                 0.0112                 0.0152

                     10                     11                     12
                      A                      A                      A
 Frequencies --    475.2465               543.2417               727.2397
 Red. masses --      2.4923                 2.0856                 2.5711
 Frc consts  --      0.3317                 0.3626                 0.8012
 IR Inten    --      0.6316                 1.4678                 0.4904

                     13                     14                     15
                      A                      A                      A
 Frequencies --    877.0969               927.1407               937.3121
 Red. masses --      2.3256                 1.1732                 1.2002
 Frc consts  --      1.0541                 0.5942                 0.6213
 IR Inten    --      0.7063                 1.2190                 0.2447

                     16                     17                     18
                      A                      A                      A
 Frequencies --    944.6565               968.3458               970.9977
 Red. masses --      1.8531                 1.4830                 1.4012
 Frc consts  --      0.9743                 0.8193                 0.7784
 IR Inten    --      0.0463                 0.0165                 0.2208

                     19                     20                     21
                      A                      A                      A
 Frequencies --   1047.1968              1055.0297              1154.4092
 Red. masses --      1.4409                 1.8144                 1.7801
 Frc consts  --      0.9310                 1.1899                 1.3977
 IR Inten    --      1.2067                 3.1613                14.9046

                     22                     23                     24
                      A                      A                      A
 Frequencies --   1187.2655              1199.3897              1224.7512
 Red. masses --      1.9743                 1.9563                 1.8224
 Frc consts  --      1.6397                 1.6581                 1.6106
 IR Inten    --      0.1512                 0.0260                 0.0587

                     25                     26                     27
                      A                      A                      A
 Frequencies --   1337.0988              1340.7939              1381.9019
 Red. masses --      1.2242                 1.4969                 1.4205
 Frc consts  --      1.2895                 1.5855                 1.5982
 IR Inten    --      3.5626                 0.6912                 0.3764

                     28                     29                     30
                      A                      A                      A
 Frequencies --   1389.9780              1414.6619              1419.5650
 Red. masses --      1.3113                 1.3048                 1.2728
 Frc consts  --      1.4927                 1.5385                 1.5112
 IR Inten    --      2.4803                 3.4663                 7.0820

                     31                     32                     33
                      A                      A                      A
 Frequencies --   1431.9386              1441.0054              1498.7274
 Red. masses --      1.2629                 1.2202                 1.0463
 Frc consts  --      1.5257                 1.4929                 1.3847
 IR Inten    --      8.8440                 2.4330                 0.0704

                     34                     35                     36
                      A                      A                      A
 Frequencies --   1500.8164              1502.5788              1514.4486
 Red. masses --      1.0483                 1.0424                 1.0415
 Frc consts  --      1.3912                 1.3866                 1.4073
 IR Inten    --      1.7962                 0.0345                 9.5759

                     37                     38                     39
                      A                      A                      A
 Frequencies --   1520.7945              1524.5237              1525.3564
 Red. masses --      1.0492                 1.0512                 1.0649
 Frc consts  --      1.4298                 1.4395                 1.4598
 IR Inten    --      0.8402                 7.5883                 0.0031

                     40                     41                     42
                      A                      A                      A
 Frequencies --   1526.1735              3000.2420              3008.5387
 Red. masses --      1.0462                 1.0832                 1.0842
 Frc consts  --      1.4357                 5.7446                 5.7819
 IR Inten    --      5.4406                18.4526                37.0674

                     43                     44                     45
                      A                      A                      A
 Frequencies --   3035.1625              3036.2577              3040.3488
 Red. masses --      1.0353                 1.0356                 1.0362
 Frc consts  --      5.6192                 5.6249                 5.6433
 IR Inten    --     11.7908                50.5132                15.2990

                     46                     47                     48
                      A                      A                      A
 Frequencies --   3046.0288              3101.0679              3102.6724
 Red. masses --      1.0367                 1.1022                 1.1022
 Frc consts  --      5.6674                 6.2450                 6.2515
 IR Inten    --     12.3728                 4.4881                 2.2694

                     49                     50                     51
                      A                      A                      A
 Frequencies --   3104.6007              3106.1210              3107.6319
 Red. masses --      1.1026                 1.1020                 1.1014
 Frc consts  --      6.2617                 6.2642                 6.2667
 IR Inten    --      2.3312                23.3098               126.8149

                     52                     53                     54
                      A                      A                      A
 Frequencies --   3111.3059              3117.2343              3117.9265
 Red. masses --      1.1008                 1.1016                 1.1005
 Frc consts  --      6.2782                 6.3069                 6.3034
 IR Inten    --     76.9780                 0.0917                62.7954

 - Thermochemistry -
 -------------------
 Temperature   298.150 Kelvin.  Pressure   1.00000 Atm.
 Atom     1 has atomic number  6 and mass  12.00000

 Molecular mass:    86.10955 amu.
 Principal axes and moments of inertia in atomic units:
                           1         2         3
     Eigenvalues --   428.57634 712.79525 817.84428
           X            0.99994  -0.01107   0.00000
           Y            0.01107   0.99994   0.00000
           Z           -0.00000  -0.00000   1.00000
 This molecule is an asymmetric top.
 Rotational symmetry number  1.
 Rotational temperatures (Kelvin)      0.20210     0.12151     0.10591
 Rotational constants (GHZ):           4.21101     2.53192     2.20671
 Zero-point vibrational energy     495299.1 (Joules/Mol)
                                  118.37932 (Kcal/Mol)
 Warning -- explicit consideration of  11 degrees of freedom as
           vibrations may cause significant error
 Vibrational temperatures:     88.51   284.15   339.52   339.90   353.68
          (Kelvin)            384.43   406.67   489.11   569.57   683.77
                              781.60  1046.33  1261.95  1333.95  1348.58
                             1359.15  1393.23  1397.05  1506.68  1517.95
                             1660.94  1708.21  1725.65  1762.14  1923.78
                             1929.10  1988.25  1999.87  2035.38  2042.43
                             2060.24  2073.28  2156.33  2159.34  2161.87
                             2178.95  2188.08  2193.45  2194.64  2195.82
                             4316.67  4328.61  4366.92  4368.49  4374.38
                             4382.55  4461.74  4464.05  4466.82  4469.01
                             4471.18  4476.47  4485.00  4486.00

 Zero-point correction=                           0.188649 (Hartree/Particle)
 Thermal correction to Energy=                    0.197005
 Thermal correction to Enthalpy=                  0.197949
 Thermal correction to Gibbs Free Energy=         0.156876
 Sum of electronic and zero-point Energies=           -236.913414
 Sum of electronic and thermal Energies=              -236.905059
 Sum of electronic and thermal Enthalpies=            -236.904115
 Sum of electronic and thermal Free Energies=         -236.945187

                     E (Thermal)             CV                S
                      KCal/Mol        Cal/Mol-Kelvin    Cal/Mol-Kelvin
 Total                  123.622             30.517             86.444
 Electronic               0.000              0.000              0.000
 Translational            0.889              2.981             39.272
 Rotational               0.889              2.981             27.016
 Vibrational            121.845             24.555             20.156
 Vibration     1          0.597              1.973              4.408
 Vibration     2          0.637              1.843              2.156
 Vibration     3          0.655              1.786              1.833
 Vibration     4          0.655              1.785              1.831
 Vibration     5          0.660              1.770              1.760
 Vibration     6          0.672              1.733              1.614
 Vibration     7          0.682              1.706              1.518
 Vibration     8          0.720              1.596              1.212
 Vibration     9          0.763              1.479              0.978
 Vibration    10          0.832              1.305              0.723
 Vibration    11          0.898              1.154              0.558

 Optimization completed.
    -- Stationary point found.
 Normal termination of Gaussian 09 at Fri Sep 10 18:54:09 2021.
