 Gaussian 09, Revision E.01,
 Gaussian 09:  ES64L-G09RevE.01 30-Nov-2015

 ----------------------------
 #P OPT Freq B3LYP/6-31G(d,p)
 ----------------------------

 --------
 Frag_579
 --------
 Symbolic Z-matrix:
 Charge =  0 Multiplicity = 1

 SCF Done:  E(RB3LYP) =  -348.224809864     A.U. after   12 cycles
 SCF Done:  E(RB3LYP) =  -348.224856159     A.U. after    8 cycles
 SCF Done:  E(RB3LYP) =  -348.224862067     A.U. after    8 cycles
 SCF Done:  E(RB3LYP) =  -348.224866582     A.U. after    8 cycles
 SCF Done:  E(RB3LYP) =  -348.224870483     A.U. after    9 cycles
 SCF Done:  E(RB3LYP) =  -348.224873511     A.U. after    8 cycles
 SCF Done:  E(RB3LYP) =  -348.224874977     A.U. after    7 cycles
 SCF Done:  E(RB3LYP) =  -348.224875246     A.U. after    6 cycles
 Optimization completed.
    -- Stationary point found.
 Normal termination of Gaussian 09 at Thu Sep  8 15:14:15 2022.

 ----------------------------------------------------------------------
 #P Geom=AllCheck Guess=TCheck SCRF=Check GenChk RB3LYP/6-31G(d,p) Freq
 ----------------------------------------------------------------------

 Structure from the checkpoint file:  "B3LYP6-31Gdp.Frag_579.chk"
 --------
 Frag_579
 --------
 Charge =  0 Multiplicity = 1

                         Standard orientation:
 ---------------------------------------------------------------------
 Center     Atomic      Atomic             Coordinates (Angstroms)
 Number     Number       Type             X           Y           Z
 ---------------------------------------------------------------------
      1          6           0       -1.645182   -1.164004   -0.101843
      2          6           0       -0.824814    0.078327   -0.478748
      3          6           0       -1.515890    1.351265    0.037583
      4          6           0        0.654437   -0.052142   -0.004318
      5          6           0        1.559364    1.065297   -0.524357
      6          8           0        0.723783   -0.135486    1.422921
      7          8           0        1.218626   -1.253478   -0.476390
      8          1           0       -1.249278   -2.064389   -0.580129
      9          1           0       -2.685450   -1.053295   -0.423076
     10          1           0       -1.640193   -1.317126    0.982640
     11          1           0       -0.776730    0.138200   -1.573945
     12          1           0       -1.621433    1.336452    1.130275
     13          1           0       -0.981595    2.264182   -0.241247
     14          1           0       -2.527958    1.428014   -0.371696
     15          1           0        1.248979    2.044103   -0.148746
     16          1           0        2.579187    0.867313   -0.188601
     17          1           0        1.547806    1.094167   -1.617520
     18          1           0        0.318762    0.658774    1.795024
     19          1           0        0.881143   -1.957139    0.094869
 ---------------------------------------------------------------------

 SCF Done:  E(RB3LYP) =  -348.224875246     A.U. after    1 cycles

 The electronic state is 1-A.
 Alpha  occ. eigenvalues --  -19.14652 -19.14047 -10.28324 -10.18936 -10.18373
 Alpha  occ. eigenvalues --  -10.17403 -10.17186  -1.05550  -0.98455  -0.79609
 Alpha  occ. eigenvalues --   -0.73187  -0.68655  -0.62469  -0.57085  -0.52456
 Alpha  occ. eigenvalues --   -0.48926  -0.45175  -0.44758  -0.40737  -0.39689
 Alpha  occ. eigenvalues --   -0.38984  -0.38509  -0.36593  -0.35752  -0.33940
 Alpha  occ. eigenvalues --   -0.33654  -0.32613  -0.29118  -0.25724
 Alpha virt. eigenvalues --    0.06046   0.09669   0.11462   0.12489   0.14116
 Alpha virt. eigenvalues --    0.15058   0.15871   0.16916   0.17620   0.18926
 Alpha virt. eigenvalues --    0.19915   0.21099   0.23353   0.24144   0.25582

 Mulliken charges:
               1
     1  C   -0.334542
     2  C   -0.052319
     3  C   -0.335716
     4  C    0.489365
     5  C   -0.318741
     6  O   -0.561953
     7  O   -0.546434
     8  H    0.103415
     9  H    0.100188
    10  H    0.109496
    11  H    0.094433
    12  H    0.090202
    13  H    0.106767
    14  H    0.110319
    15  H    0.089930
    16  H    0.126041
    17  H    0.112036
    18  H    0.304996
    19  H    0.312518
 Sum of Mulliken charges =  -0.00000

 Dipole moment (field-independent basis, Debye):
    X=             -1.6294    Y=              1.2312    Z=              0.3613  Tot=              2.0739
 Quadrupole moment (field-independent basis, Debye-Ang):
   XX=            -46.9328   YY=            -41.7120   ZZ=            -45.2433
   XY=              1.5630   XZ=             -0.0664   YZ=              0.4134

  Exact polarizability:  63.577   0.605  62.960  -1.310   0.232  56.080
 Approx polarizability:  80.881  -2.251  84.919  -1.697   0.967  84.137

                      1                      2                      3
                      A                      A                      A
 Frequencies --     70.0163               206.3079               211.3453
 Red. masses --      2.5648                 1.1611                 1.0492
 Frc consts  --      0.0074                 0.0291                 0.0276
 IR Inten    --      0.6139                29.2978                42.3486

                      4                      5                      6
                      A                      A                      A
 Frequencies --    225.2715               258.3621               271.6014
 Red. masses --      1.2429                 1.2006                 2.1637
 Frc consts  --      0.0372                 0.0472                 0.0940
 IR Inten    --      1.6536                 4.0016                37.1949

                      7                      8                      9
                      A                      A                      A
 Frequencies --    290.5997               298.3138               364.0421
 Red. masses --      2.3036                 1.2806                 2.0182
 Frc consts  --      0.1146                 0.0671                 0.1576
 IR Inten    --      0.1634               120.5837                 7.5863

                     10                     11                     12
                      A                      A                      A
 Frequencies --    380.0583               419.9099               491.3633
 Red. masses --      2.9018                 2.3044                 3.2827
 Frc consts  --      0.2470                 0.2394                 0.4670
 IR Inten    --      6.0788                15.8145                11.4524

                     13                     14                     15
                      A                      A                      A
 Frequencies --    528.6520               584.2119               720.9873
 Red. masses --      3.3306                 2.8042                 3.2406
 Frc consts  --      0.5484                 0.5639                 0.9925
 IR Inten    --      7.4064                 8.5163                 3.2324

                     16                     17                     18
                      A                      A                      A
 Frequencies --    882.1078               932.0408               939.5882
 Red. masses --      2.4732                 1.2226                 1.8423
 Frc consts  --      1.1339                 0.6258                 0.9583
 IR Inten    --      6.5610                 1.4840                16.0879

                     19                     20                     21
                      A                      A                      A
 Frequencies --    960.3686               967.7377              1030.8341
 Red. masses --      2.0276                 1.4356                 1.8146
 Frc consts  --      1.1018                 0.7921                 1.1361
 IR Inten    --     38.5327                 3.2015                47.5273

                     22                     23                     24
                      A                      A                      A
 Frequencies --   1091.8744              1111.7019              1149.9376
 Red. masses --      1.9224                 1.5577                 1.8472
 Frc consts  --      1.3504                 1.1343                 1.4391
 IR Inten    --     60.7473                40.7727                36.9619

                     25                     26                     27
                      A                      A                      A
 Frequencies --   1191.8578              1234.6588              1290.2867
 Red. masses --      1.9941                 2.4502                 1.5251
 Frc consts  --      1.6690                 2.2006                 1.4960
 IR Inten    --     17.5618                40.4335               104.7961

                     28                     29                     30
                      A                      A                      A
 Frequencies --   1353.4030              1367.7450              1389.2701
 Red. masses --      1.3375                 1.6833                 1.4159
 Frc consts  --      1.4434                 1.8554                 1.6101
 IR Inten    --      4.9168                40.9065                32.6072

                     31                     32                     33
                      A                      A                      A
 Frequencies --   1412.0812              1427.1374              1436.6052
 Red. masses --      1.2752                 1.3151                 1.4826
 Frc consts  --      1.4982                 1.5781                 1.8028
 IR Inten    --     10.1282                27.7051                20.7802

                     34                     35                     36
                      A                      A                      A
 Frequencies --   1499.6157              1503.5265              1507.9320
 Red. masses --      1.0538                 1.0535                 1.0521
 Frc consts  --      1.3963                 1.4032                 1.4095
 IR Inten    --      0.9541                 2.7416                 0.3911

                     37                     38                     39
                      A                      A                      A
 Frequencies --   1513.5321              1526.4083              1534.4228
 Red. masses --      1.0495                 1.0487                 1.0514
 Frc consts  --      1.4165                 1.4395                 1.4586
 IR Inten    --      3.7513                 4.7373                10.8904

                     40                     41                     42
                      A                      A                      A
 Frequencies --   3031.6096              3041.7663              3047.5234
 Red. masses --      1.0470                 1.0765                 1.0367
 Frc consts  --      5.6696                 5.8685                 5.6726
 IR Inten    --     14.7001                20.2416                25.2054

                     43                     44                     45
                      A                      A                      A
 Frequencies --   3062.0726              3100.0969              3118.2278
 Red. masses --      1.0363                 1.0951                 1.1019
 Frc consts  --      5.7248                 6.2007                 6.3125
 IR Inten    --      9.1252                27.0067                28.4663

                     46                     47                     48
                      A                      A                      A
 Frequencies --   3122.0928              3123.3785              3136.9115
 Red. masses --      1.1023                 1.1018                 1.1020
 Frc consts  --      6.3303                 6.3328                 6.3893
 IR Inten    --     23.7509                37.7386                26.1263

                     49                     50                     51
                      A                      A                      A
 Frequencies --   3153.1836              3812.5492              3825.3498
 Red. masses --      1.1031                 1.0655                 1.0652
 Frc consts  --      6.4618                 9.1251                 9.1835
 IR Inten    --     16.7833                20.4087                14.3343

 - Thermochemistry -
 -------------------
 Temperature   298.150 Kelvin.  Pressure   1.00000 Atm.
 Atom     1 has atomic number  6 and mass  12.00000

 Molecular mass:   104.08373 amu.
 Principal axes and moments of inertia in atomic units:
                           1         2         3
     Eigenvalues --   561.39279 793.21914 971.89845
           X            0.99778   0.06488  -0.01483
           Y           -0.06510   0.99776  -0.01526
           Z            0.01381   0.01620   0.99977
 This molecule is an asymmetric top.
 Rotational symmetry number  1.
 Warning -- assumption of classical behavior for rotation
           may cause significant error
 Rotational temperatures (Kelvin)      0.15428     0.10919     0.08912
 Rotational constants (GHZ):           3.21476     2.27521     1.85692
 Zero-point vibrational energy     443518.3 (Joules/Mol)
                                  106.00343 (Kcal/Mol)
 Warning -- explicit consideration of  14 degrees of freedom as
           vibrations may cause significant error
 Vibrational temperatures:    100.74   296.83   304.08   324.12   371.72
          (Kelvin)            390.77   418.11   429.21   523.77   546.82
                              604.16   706.96   760.61   840.55  1037.34
                             1269.15  1341.00  1351.86  1381.75  1392.36
                             1483.14  1570.96  1599.49  1654.50  1714.82
                             1776.40  1856.43  1947.24  1967.88  1998.85
                             2031.67  2053.33  2066.95  2157.61  2163.24
                             2169.58  2177.63  2196.16  2207.69  4361.80
                             4376.42  4384.70  4405.63  4460.34  4486.43
                             4491.99  4493.84  4513.31  4536.72  5485.40
                             5503.82

 Zero-point correction=                           0.168927 (Hartree/Particle)
 Thermal correction to Energy=                    0.178085
 Thermal correction to Enthalpy=                  0.179030
 Thermal correction to Gibbs Free Energy=         0.136293
 Sum of electronic and zero-point Energies=           -348.055948
 Sum of electronic and thermal Energies=              -348.046790
 Sum of electronic and thermal Enthalpies=            -348.045846
 Sum of electronic and thermal Free Energies=         -348.088582

                     E (Thermal)             CV                S
                      KCal/Mol        Cal/Mol-Kelvin    Cal/Mol-Kelvin
 Total                  111.750             34.054             89.947
 Electronic               0.000              0.000              0.000
 Translational            0.889              2.981             39.837
 Rotational               0.889              2.981             27.561
 Vibrational            109.973             28.093             22.548
 Vibration     1          0.598              1.968              4.153
 Vibration     2          0.641              1.831              2.076
 Vibration     3          0.643              1.824              2.032
 Vibration     4          0.650              1.803              1.916
 Vibration     5          0.667              1.749              1.673
 Vibration     6          0.675              1.726              1.586
 Vibration     7          0.687              1.691              1.470
 Vibration     8          0.691              1.677              1.426
 Vibration     9          0.738              1.546              1.105
 Vibration    10          0.750              1.513              1.039
 Vibration    11          0.783              1.427              0.892
 Vibration    12          0.847              1.269              0.680
 Vibration    13          0.884              1.187              0.590
 Vibration    14          0.941              1.065              0.478

 Normal termination of Gaussian 09 at Thu Sep  8 15:14:35 2022.
