 Gaussian 09, Revision E.01,
 Gaussian 09:  ES64L-G09RevE.01 30-Nov-2015

 --------------------------------
 #P OPT=calcfc Freq B3LYP/6-31G**
 --------------------------------

 --------
 Frag_313
 --------
 Symbolic Z-matrix:
 Charge =  0 Multiplicity = 1

 SCF Done:  E(RB3LYP) =  -205.310068890     A.U. after   14 cycles
 SCF Done:  E(RB3LYP) =  -205.329570042     A.U. after   14 cycles
 SCF Done:  E(RB3LYP) =  -205.320487561     A.U. after   14 cycles
 SCF Done:  E(RB3LYP) =  -205.330731743     A.U. after   11 cycles
 SCF Done:  E(RB3LYP) =  -205.331296642     A.U. after   14 cycles
 SCF Done:  E(RB3LYP) =  -205.334716101     A.U. after   12 cycles
 SCF Done:  E(RB3LYP) =  -205.334211241     A.U. after   14 cycles
 SCF Done:  E(RB3LYP) =  -205.335476623     A.U. after   11 cycles
 SCF Done:  E(RB3LYP) =  -205.336194830     A.U. after   12 cycles
 SCF Done:  E(RB3LYP) =  -205.336493356     A.U. after   11 cycles
 SCF Done:  E(RB3LYP) =  -205.336519427     A.U. after   10 cycles
 SCF Done:  E(RB3LYP) =  -205.336526172     A.U. after    9 cycles
 SCF Done:  E(RB3LYP) =  -205.336527617     A.U. after    9 cycles
 SCF Done:  E(RB3LYP) =  -205.336527946     A.U. after    8 cycles
 Optimization completed.
    -- Stationary point found.
 Normal termination of Gaussian 09 at Fri Sep 10 19:25:32 2021.

 ----------------------------------------------------------------------
 #P Geom=AllCheck Guess=TCheck SCRF=Check GenChk RB3LYP/6-31G(d,p) Freq
 ----------------------------------------------------------------------

 Structure from the checkpoint file:  "/public/home/users/caep010/.cache/gau_scr/Gau-197600.chk"
 --------
 Frag_313
 --------
 Charge =  0 Multiplicity = 1

                         Standard orientation:
 ---------------------------------------------------------------------
 Center     Atomic      Atomic             Coordinates (Angstroms)
 Number     Number       Type             X           Y           Z
 ---------------------------------------------------------------------
      1          7           0        1.322224   -0.556125    0.060945
      2          6           0        0.617186    0.637841    0.017360
      3          7           0       -0.659520    0.751668   -0.015802
      4          7           0       -1.321292   -0.511466   -0.083761
      5          1           0        2.292592   -0.491023   -0.214022
      6          1           0        0.829174   -1.314812   -0.401159
      7          1           0        1.202787    1.553001    0.068696
      8          1           0       -2.314584   -0.305193   -0.041830
      9          1           0       -1.102972   -1.057556    0.754489
 ---------------------------------------------------------------------

 SCF Done:  E(RB3LYP) =  -205.336527946     A.U. after    1 cycles

 The electronic state is 1-A.
 Alpha  occ. eigenvalues --  -14.34661 -14.34235 -14.32592 -10.23654  -0.97214
 Alpha  occ. eigenvalues --   -0.89268  -0.77558  -0.58897  -0.53580  -0.49814
 Alpha  occ. eigenvalues --   -0.46893  -0.40317  -0.38051  -0.30757  -0.25885
 Alpha  occ. eigenvalues --   -0.20111
 Alpha virt. eigenvalues --    0.04111   0.07446   0.11555   0.12851   0.16145
 Alpha virt. eigenvalues --    0.17934   0.20489   0.31366   0.37371   0.56641
 Alpha virt. eigenvalues --    0.57343   0.62896   0.64613   0.66930   0.69346

 Mulliken charges:
               1
     1  N   -0.607932
     2  C    0.262600
     3  N   -0.322265
     4  N   -0.489757
     5  H    0.261576
     6  H    0.276884
     7  H    0.107547
     8  H    0.264576
     9  H    0.246770
 Sum of Mulliken charges =  -0.00000

 Dipole moment (field-independent basis, Debye):
    X=              1.4946    Y=             -1.4188    Z=              0.2039  Tot=              2.0709
 Quadrupole moment (field-independent basis, Debye-Ang):
   XX=            -17.7212   YY=            -24.4682   ZZ=            -25.7777
   XY=              2.0721   XZ=             -3.0902   YZ=             -0.1599

  Exact polarizability:  46.923   1.583  31.221  -0.393  -0.748  17.278
 Approx polarizability:  71.484  -0.871  44.547   1.557  -1.551  24.116

                      1                      2                      3
                      A                      A                      A
 Frequencies --    206.9732               301.1579               473.6369
 Red. masses --      1.1135                 3.3003                 1.2390
 Frc consts  --      0.0281                 0.1764                 0.1638
 IR Inten    --     20.0091                 0.9048                36.4668

                      4                      5                      6
                      A                      A                      A
 Frequencies --    567.3701               697.3998               711.9486
 Red. masses --      2.0877                 1.3343                 2.8339
 Frc consts  --      0.3960                 0.3824                 0.8463
 IR Inten    --     51.8536               269.4086                 8.4301

                      7                      8                      9
                      A                      A                      A
 Frequencies --    880.4173               918.1321              1041.6461
 Red. masses --      2.3599                 1.5723                 1.7689
 Frc consts  --      1.0778                 0.7809                 1.1308
 IR Inten    --     65.9383                15.8650                26.0288

                     10                     11                     12
                      A                      A                      A
 Frequencies --   1111.6812              1262.6135              1328.9571
 Red. masses --      1.5520                 2.0515                 1.3219
 Frc consts  --      1.1301                 1.9269                 1.3755
 IR Inten    --     49.3316                34.9778                 7.4539

                     13                     14                     15
                      A                      A                      A
 Frequencies --   1394.1077              1624.5423              1670.9326
 Red. masses --      1.2446                 1.2024                 1.1196
 Frc consts  --      1.4252                 1.8696                 1.8417
 IR Inten    --      0.6306                43.2700                32.3145

                     16                     17                     18
                      A                      A                      A
 Frequencies --   1747.9821              3184.5696              3411.3785
 Red. masses --      4.3361                 1.0914                 1.0566
 Frc consts  --      7.8059                 6.5212                 7.2449
 IR Inten    --    121.4350                15.6946                 4.7579

                     19                     20                     21
                      A                      A                      A
 Frequencies --   3525.5504              3569.3746              3659.5352
 Red. masses --      1.0497                 1.0860                 1.0958
 Frc consts  --      7.6872                 8.1517                 8.6460
 IR Inten    --     12.3874                 3.8770                23.1077

 - Thermochemistry -
 -------------------
 Temperature   298.150 Kelvin.  Pressure   1.00000 Atm.
 Atom     1 has atomic number  7 and mass  14.00307

 Molecular mass:    59.04835 amu.
 Principal axes and moments of inertia in atomic units:
                           1         2         3
     Eigenvalues --    97.31386 266.54952 357.32245
           X            0.99930   0.03136  -0.02017
           Y           -0.03143   0.99950  -0.00314
           Z            0.02006   0.00378   0.99979
 This molecule is an asymmetric top.
 Rotational symmetry number  1.
 Rotational temperatures (Kelvin)      0.89005     0.32494     0.24240
 Rotational constants (GHZ):          18.54557     6.77075     5.05074
 Zero-point vibrational energy     199117.9 (Joules/Mol)
                                   47.59031 (Kcal/Mol)
 Warning -- explicit consideration of   4 degrees of freedom as
           vibrations may cause significant error
 Vibrational temperatures:    297.79   433.30   681.46   816.32  1003.40
          (Kelvin)           1024.33  1266.72  1320.99  1498.69  1599.46
                             1816.62  1912.07  2005.81  2337.35  2404.10
                             2514.95  4581.88  4908.21  5072.47  5135.53
                             5265.25

 Zero-point correction=                           0.075840 (Hartree/Particle)
 Thermal correction to Energy=                    0.080487
 Thermal correction to Enthalpy=                  0.081431
 Thermal correction to Gibbs Free Energy=         0.049256
 Sum of electronic and zero-point Energies=           -205.260688
 Sum of electronic and thermal Energies=              -205.256041
 Sum of electronic and thermal Enthalpies=            -205.255096
 Sum of electronic and thermal Free Energies=         -205.287272

                     E (Thermal)             CV                S
                      KCal/Mol        Cal/Mol-Kelvin    Cal/Mol-Kelvin
 Total                   50.507             15.651             67.720
 Electronic               0.000              0.000              0.000
 Translational            0.889              2.981             38.148
 Rotational               0.889              2.981             23.742
 Vibrational             48.729              9.689              5.829
 Vibration     1          0.641              1.830              2.070
 Vibration     2          0.693              1.672              1.410
 Vibration     3          0.830              1.309              0.727
 Vibration     4          0.923              1.102              0.509

 Optimization completed.
    -- Stationary point found.
 Normal termination of Gaussian 09 at Fri Sep 10 19:25:39 2021.
