 Gaussian 09, Revision E.01,
 Gaussian 09:  ES64L-G09RevE.01 30-Nov-2015

 ----------------------------
 #P OPT Freq B3LYP/6-31G(d,p)
 ----------------------------

 --------
 Frag_498
 --------
 Symbolic Z-matrix:
 Charge =  0 Multiplicity = 1

 SCF Done:  E(RB3LYP) =  -212.588319782     A.U. after   13 cycles
 SCF Done:  E(RB3LYP) =  -212.588350226     A.U. after    8 cycles
 SCF Done:  E(RB3LYP) =  -212.588352204     A.U. after    7 cycles
 Optimization completed.
    -- Stationary point found.
 Normal termination of Gaussian 09 at Thu Sep  8 14:54:58 2022.

 ----------------------------------------------------------------------
 #P Geom=AllCheck Guess=TCheck SCRF=Check GenChk RB3LYP/6-31G(d,p) Freq
 ----------------------------------------------------------------------

 Structure from the checkpoint file:  "B3LYP6-31Gdp.Frag_498.chk"
 --------
 Frag_498
 --------
 Charge =  0 Multiplicity = 1

                         Standard orientation:
 ---------------------------------------------------------------------
 Center     Atomic      Atomic             Coordinates (Angstroms)
 Number     Number       Type             X           Y           Z
 ---------------------------------------------------------------------
      1          6           0       -2.009775   -0.000015    0.122456
      2          7           0       -0.903705   -0.000009   -0.495260
      3          6           0        0.326200    0.000002    0.296590
      4          6           0        1.120881    1.268247   -0.038145
      5          6           0        1.120836   -1.268257   -0.038162
      6          1           0       -2.100048   -0.000063    1.220454
      7          1           0       -2.942493    0.000296   -0.445476
      8          1           0        0.097185   -0.000010    1.378461
      9          1           0        2.063750    1.287637    0.517877
     10          1           0        1.346176    1.304268   -1.108540
     11          1           0        0.551378    2.166431    0.219158
     12          1           0        2.063663   -1.287698    0.517928
     13          1           0        0.551278   -2.166426    0.219068
     14          1           0        1.346194   -1.304235   -1.108544
 ---------------------------------------------------------------------

 SCF Done:  E(RB3LYP) =  -212.588352204     A.U. after    1 cycles

 The electronic state is 1-A.
 Alpha  occ. eigenvalues --  -14.32882 -10.22272 -10.21494 -10.17388 -10.17387
 Alpha  occ. eigenvalues --   -0.91766  -0.77299  -0.68352  -0.62525  -0.55667
 Alpha  occ. eigenvalues --   -0.48186  -0.46281  -0.42166  -0.41806  -0.38284
 Alpha  occ. eigenvalues --   -0.36933  -0.35086  -0.33158  -0.29758  -0.24980
 Alpha virt. eigenvalues --   -0.00278   0.10071   0.11644   0.14405   0.15650
 Alpha virt. eigenvalues --    0.15727   0.17847   0.18561   0.19491   0.20254
 Alpha virt. eigenvalues --    0.21271   0.24739   0.25632   0.34033   0.49694

 Mulliken charges:
               1
     1  C   -0.029617
     2  N   -0.304258
     3  C    0.039414
     4  C   -0.299747
     5  C   -0.299746
     6  H    0.080081
     7  H    0.103460
     8  H    0.067444
     9  H    0.099796
    10  H    0.116796
    11  H    0.104895
    12  H    0.099791
    13  H    0.104895
    14  H    0.116794
 Sum of Mulliken charges =   0.00000

 Dipole moment (field-independent basis, Debye):
    X=             -0.0684    Y=              0.0001    Z=              1.2912  Tot=              1.2930
 Quadrupole moment (field-independent basis, Debye-Ang):
   XX=            -29.3088   YY=            -32.7080   ZZ=            -33.5465
   XY=             -0.0003   XZ=             -1.2628   YZ=             -0.0001

  Exact polarizability:  64.951  -0.001  42.447  -2.039  -0.001  45.358
 Approx polarizability:  86.418   0.000  54.104  -6.491  -0.001  68.648

                      1                      2                      3
                      A                      A                      A
 Frequencies --    105.9556               219.5394               248.7714
 Red. masses --      2.9255                 1.0265                 1.0581
 Frc consts  --      0.0194                 0.0292                 0.0386
 IR Inten    --      6.1408                 0.0363                 0.5365

                      4                      5                      6
                      A                      A                      A
 Frequencies --    340.1530               367.7676               380.4917
 Red. masses --      2.2933                 2.2064                 2.1662
 Frc consts  --      0.1563                 0.1758                 0.1848
 IR Inten    --      0.5063                 2.8949                 8.0706

                      7                      8                      9
                      A                      A                      A
 Frequencies --    539.0587               752.7323               811.3402
 Red. masses --      2.6336                 1.2981                 2.3012
 Frc consts  --      0.4509                 0.4334                 0.8925
 IR Inten    --      1.3235                 2.4986                 2.5007

                     10                     11                     12
                      A                      A                      A
 Frequencies --    939.2252               940.2063               963.9497
 Red. masses --      1.1764                 2.3132                 1.4913
 Frc consts  --      0.6114                 1.2048                 0.8165
 IR Inten    --      0.3285                 3.9969                 0.1289

                     13                     14                     15
                      A                      A                      A
 Frequencies --   1061.1357              1141.9445              1144.0423
 Red. masses --      1.3586                 2.0237                 1.5133
 Frc consts  --      0.9013                 1.5549                 1.1670
 IR Inten    --     15.1155                 3.7345                 3.3119

                     16                     17                     18
                      A                      A                      A
 Frequencies --   1194.0607              1244.0718              1365.9003
 Red. masses --      1.8490                 1.8249                 1.3786
 Frc consts  --      1.5532                 1.6641                 1.5154
 IR Inten    --      7.0456                20.7079                 7.9653

                     19                     20                     21
                      A                      A                      A
 Frequencies --   1380.9081              1410.2310              1428.7658
 Red. masses --      1.2613                 1.2880                 1.2409
 Frc consts  --      1.4171                 1.5092                 1.4925
 IR Inten    --     22.2778                 6.9006                 5.7082

                     22                     23                     24
                      A                      A                      A
 Frequencies --   1495.7260              1503.5481              1506.4980
 Red. masses --      1.0467                 1.0462                 1.1217
 Frc consts  --      1.3797                 1.3935                 1.4999
 IR Inten    --      0.7434                 0.1147                10.8751

                     25                     26                     27
                      A                      A                      A
 Frequencies --   1509.5743              1528.6551              1748.2012
 Red. masses --      1.0675                 1.0687                 6.3064
 Frc consts  --      1.4333                 1.4714                11.3557
 IR Inten    --      1.4014                 7.8193                24.5045

                     28                     29                     30
                      A                      A                      A
 Frequencies --   2942.3776              2997.6669              3045.1634
 Red. masses --      1.0829                 1.0651                 1.0343
 Frc consts  --      5.5239                 5.6392                 5.6509
 IR Inten    --     49.6750                56.2630                26.1691

                     31                     32                     33
                      A                      A                      A
 Frequencies --   3049.2249              3120.7451              3123.7531
 Red. masses --      1.0351                 1.1030                 1.1028
 Frc consts  --      5.6702                 6.3289                 6.3400
 IR Inten    --     16.1764                11.6957                36.8845

                     34                     35                     36
                      A                      A                      A
 Frequencies --   3124.8850              3128.8816              3140.4323
 Red. masses --      1.1035                 1.1026                 1.1038
 Frc consts  --      6.3486                 6.3597                 6.4137
 IR Inten    --     11.6796                45.8177                40.4040

 - Thermochemistry -
 -------------------
 Temperature   298.150 Kelvin.  Pressure   1.00000 Atm.
 Atom     1 has atomic number  6 and mass  12.00000

 Molecular mass:    71.07350 amu.
 Principal axes and moments of inertia in atomic units:
                           1         2         3
     Eigenvalues --   236.46372 459.41856 614.58835
           X            0.99988  -0.00001  -0.01562
           Y            0.00001   1.00000  -0.00000
           Z            0.01562   0.00000   0.99988
 This molecule is an asymmetric top.
 Rotational symmetry number  1.
 Rotational temperatures (Kelvin)      0.36629     0.18853     0.14093
 Rotational constants (GHZ):           7.63221     3.92832     2.93650
 Zero-point vibrational energy     328647.6 (Joules/Mol)
                                   78.54865 (Kcal/Mol)
 Warning -- explicit consideration of   7 degrees of freedom as
           vibrations may cause significant error
 Vibrational temperatures:    152.45   315.87   357.93   489.40   529.13
          (Kelvin)            547.44   775.58  1083.01  1167.34  1351.33
                             1352.75  1386.91  1526.74  1643.00  1646.02
                             1717.98  1789.94  1965.22  1986.82  2029.01
                             2055.67  2152.01  2163.27  2167.51  2171.94
                             2199.39  2515.27  4233.42  4312.97  4381.31
                             4387.15  4490.05  4494.38  4496.01  4501.76
                             4518.38

 Zero-point correction=                           0.125175 (Hartree/Particle)
 Thermal correction to Energy=                    0.131452
 Thermal correction to Enthalpy=                  0.132396
 Thermal correction to Gibbs Free Energy=         0.096031
 Sum of electronic and zero-point Energies=           -212.463177
 Sum of electronic and thermal Energies=              -212.456900
 Sum of electronic and thermal Enthalpies=            -212.455956
 Sum of electronic and thermal Free Energies=         -212.492321

                     E (Thermal)             CV                S
                      KCal/Mol        Cal/Mol-Kelvin    Cal/Mol-Kelvin
 Total                   82.487             21.987             76.536
 Electronic               0.000              0.000              0.000
 Translational            0.889              2.981             38.700
 Rotational               0.889              2.981             25.704
 Vibrational             80.710             16.026             12.132
 Vibration     1          0.605              1.944              3.342
 Vibration     2          0.647              1.811              1.963
 Vibration     3          0.662              1.765              1.739
 Vibration     4          0.720              1.595              1.211
 Vibration     5          0.740              1.539              1.089
 Vibration     6          0.750              1.512              1.037
 Vibration     7          0.894              1.164              0.567

 Optimization completed.
    -- Stationary point found.
 Normal termination of Gaussian 09 at Thu Sep  8 14:55:08 2022.
