 Gaussian 09, Revision E.01,
 Gaussian 09:  ES64L-G09RevE.01 30-Nov-2015

 ----------------------------
 #P OPT Freq B3LYP/6-31G(d,p)
 ----------------------------

 --------
 Frag_902
 --------
 Symbolic Z-matrix:
 Charge =  0 Multiplicity = 1

 SCF Done:  E(RB3LYP) =  -360.845440367     A.U. after   13 cycles
 SCF Done:  E(RB3LYP) =  -360.845500917     A.U. after   10 cycles
 SCF Done:  E(RB3LYP) =  -360.845236889     A.U. after   10 cycles
 SCF Done:  E(RB3LYP) =  -360.845511044     A.U. after    7 cycles
 SCF Done:  E(RB3LYP) =  -360.845516049     A.U. after    8 cycles
 SCF Done:  E(RB3LYP) =  -360.845517779     A.U. after    7 cycles
 SCF Done:  E(RB3LYP) =  -360.845518148     A.U. after    7 cycles
 Optimization completed.
    -- Stationary point found.
 Normal termination of Gaussian 09 at Thu Sep  8 14:56:43 2022.

 ----------------------------------------------------------------------
 #P Geom=AllCheck Guess=TCheck SCRF=Check GenChk RB3LYP/6-31G(d,p) Freq
 ----------------------------------------------------------------------

 Structure from the checkpoint file:  "B3LYP6-31Gdp.Frag_902.chk"
 --------
 Frag_902
 --------
 Charge =  0 Multiplicity = 1

                         Standard orientation:
 ---------------------------------------------------------------------
 Center     Atomic      Atomic             Coordinates (Angstroms)
 Number     Number       Type             X           Y           Z
 ---------------------------------------------------------------------
      1          7           0        1.724944   -0.585382   -0.282382
      2          6           0        0.632938    0.378781   -0.423495
      3          8           0        0.655901    1.270563    0.672282
      4          6           0       -0.705439   -0.390473   -0.398868
      5          8           0       -1.778714    0.485543   -0.457319
      6          8           0       -0.747105   -1.124540    0.818123
      7          1           0        1.842293   -1.123273   -1.139594
      8          1           0        2.593124   -0.080651   -0.120420
      9          1           0        0.688662    1.010017   -1.320801
     10          1           0        0.443853    0.720478    1.446534
     11          1           0       -0.800553   -1.060575   -1.266415
     12          1           0       -1.574206    1.201444    0.166235
     13          1           0        0.126568   -1.552141    0.880623
 ---------------------------------------------------------------------

 SCF Done:  E(RB3LYP) =  -360.845518148     A.U. after    1 cycles

 The electronic state is 1-A.
 Alpha  occ. eigenvalues --  -19.16397 -19.14986 -19.14668 -14.34185 -10.28210
 Alpha  occ. eigenvalues --  -10.27086  -1.07270  -1.03239  -0.99411  -0.89259
 Alpha  occ. eigenvalues --   -0.70544  -0.62410  -0.55073  -0.52548  -0.50766
 Alpha  occ. eigenvalues --   -0.47747  -0.46223  -0.45269  -0.37770  -0.36237
 Alpha  occ. eigenvalues --   -0.33923  -0.31266  -0.29635  -0.27993  -0.26383
 Alpha virt. eigenvalues --    0.06434   0.08526   0.11775   0.12660   0.14339
 Alpha virt. eigenvalues --    0.15062   0.16339   0.18942   0.21184   0.24832
 Alpha virt. eigenvalues --    0.26525   0.30997   0.52814   0.54135   0.56410

 Mulliken charges:
               1
     1  N   -0.623208
     2  C    0.224527
     3  O   -0.539406
     4  C    0.385238
     5  O   -0.518250
     6  O   -0.547864
     7  H    0.248315
     8  H    0.259190
     9  H    0.101564
    10  H    0.308152
    11  H    0.080523
    12  H    0.308197
    13  H    0.313021
 Sum of Mulliken charges =  -0.00000

 Dipole moment (field-independent basis, Debye):
    X=              3.0764    Y=             -0.4468    Z=             -0.9342  Tot=              3.2460
 Quadrupole moment (field-independent basis, Debye-Ang):
   XX=            -37.0578   YY=            -36.7509   ZZ=            -33.1344
   XY=             -3.2619   XZ=             -2.6147   YZ=              2.2965

  Exact polarizability:  42.179  -2.499  39.291  -0.072   1.601  38.482
 Approx polarizability:  54.969  -3.265  55.723   0.629   2.133  55.090

                      1                      2                      3
                      A                      A                      A
 Frequencies --    139.6477               246.6718               263.3856
 Red. masses --      5.4005                 2.2274                 2.6758
 Frc consts  --      0.0621                 0.0799                 0.1094
 IR Inten    --     16.4272                 5.5510                 8.3632

                      4                      5                      6
                      A                      A                      A
 Frequencies --    305.8572               417.1351               473.6687
 Red. masses --      1.6539                 2.1800                 2.5215
 Frc consts  --      0.0912                 0.2235                 0.3333
 IR Inten    --     21.4086                23.5267                24.4430

                      7                      8                      9
                      A                      A                      A
 Frequencies --    486.1270               542.1545               598.8096
 Red. masses --      1.6087                 1.2872                 3.0483
 Frc consts  --      0.2240                 0.2229                 0.6440
 IR Inten    --     55.3280                68.9543                 1.9178

                     10                     11                     12
                      A                      A                      A
 Frequencies --    648.7251               756.4779               842.3795
 Red. masses --      1.2943                 2.8226                 2.6405
 Frc consts  --      0.3209                 0.9517                 1.1040
 IR Inten    --    231.3825                34.6982                66.3281

                     13                     14                     15
                      A                      A                      A
 Frequencies --    930.5165              1011.0112              1054.9437
 Red. masses --      1.4816                 2.9732                 2.9418
 Frc consts  --      0.7558                 1.7906                 1.9289
 IR Inten    --    131.1225                60.4665                17.0322

                     16                     17                     18
                      A                      A                      A
 Frequencies --   1097.5463              1123.8135              1206.3701
 Red. masses --      2.9126                 3.5850                 1.2514
 Frc consts  --      2.0672                 2.6676                 1.0730
 IR Inten    --     13.6628               215.5905                65.4119

                     19                     20                     21
                      A                      A                      A
 Frequencies --   1242.0645              1337.6181              1366.7964
 Red. masses --      1.1008                 1.3910                 1.5256
 Frc consts  --      1.0006                 1.4664                 1.6792
 IR Inten    --     67.7499                69.8827                17.1304

                     22                     23                     24
                      A                      A                      A
 Frequencies --   1375.5670              1398.9767              1451.4386
 Red. masses --      1.3503                 1.4885                 1.2232
 Frc consts  --      1.5054                 1.7164                 1.5183
 IR Inten    --     24.6556                46.1415                56.2927

                     25                     26                     27
                      A                      A                      A
 Frequencies --   1482.9558              1643.3263              3018.2591
 Red. masses --      1.4149                 1.1038                 1.0854
 Frc consts  --      1.8333                 1.7563                 5.8260
 IR Inten    --     82.5468                47.8055                57.8225

                     28                     29                     30
                      A                      A                      A
 Frequencies --   3040.3052              3488.5853              3580.0855
 Red. masses --      1.0865                 1.0501                 1.0926
 Frc consts  --      5.9174                 7.5295                 8.2505
 IR Inten    --     66.4163                 0.9460                 3.3000

                     31                     32                     33
                      A                      A                      A
 Frequencies --   3688.8179              3720.0851              3749.6211
 Red. masses --      1.0645                 1.0643                 1.0645
 Frc consts  --      8.5340                 8.6777                 8.8178
 IR Inten    --     53.7034                32.2069                31.3327

 - Thermochemistry -
 -------------------
 Temperature   298.150 Kelvin.  Pressure   1.00000 Atm.
 Atom     1 has atomic number  7 and mass  14.00307

 Molecular mass:    93.04259 amu.
 Principal axes and moments of inertia in atomic units:
                           1         2         3
     Eigenvalues --   356.87337 595.92790 710.15531
           X            0.99915  -0.03638  -0.01961
           Y            0.03711   0.99858   0.03819
           Z            0.01820  -0.03889   0.99908
 This molecule is an asymmetric top.
 Rotational symmetry number  1.
 Rotational temperatures (Kelvin)      0.24270     0.14534     0.12196
 Rotational constants (GHZ):           5.05709     3.02846     2.54133
 Zero-point vibrational energy     285487.3 (Joules/Mol)
                                   68.23309 (Kcal/Mol)
 Warning -- explicit consideration of   9 degrees of freedom as
           vibrations may cause significant error
 Vibrational temperatures:    200.92   354.91   378.95   440.06   600.16
          (Kelvin)            681.50   699.43   780.04   861.55   933.37
                             1088.40  1211.99  1338.80  1454.62  1517.83
                             1579.12  1616.91  1735.70  1787.05  1924.53
                             1966.51  1979.13  2012.81  2088.29  2133.64
                             2364.38  4342.60  4374.32  5019.29  5150.94
                             5307.38  5352.37  5394.86

 Zero-point correction=                           0.108736 (Hartree/Particle)
 Thermal correction to Energy=                    0.115263
 Thermal correction to Enthalpy=                  0.116207
 Thermal correction to Gibbs Free Energy=         0.078989
 Sum of electronic and zero-point Energies=           -360.736782
 Sum of electronic and thermal Energies=              -360.730255
 Sum of electronic and thermal Enthalpies=            -360.729311
 Sum of electronic and thermal Free Energies=         -360.766529

                     E (Thermal)             CV                S
                      KCal/Mol        Cal/Mol-Kelvin    Cal/Mol-Kelvin
 Total                   72.329             24.250             78.333
 Electronic               0.000              0.000              0.000
 Translational            0.889              2.981             39.503
 Rotational               0.889              2.981             26.515
 Vibrational             70.551             18.289             12.314
 Vibration     1          0.615              1.914              2.809
 Vibration     2          0.661              1.768              1.754
 Vibration     3          0.670              1.740              1.639
 Vibration     4          0.696              1.663              1.385
 Vibration     5          0.780              1.433              0.902
 Vibration     6          0.830              1.308              0.727
 Vibration     7          0.842              1.281              0.694
 Vibration     8          0.897              1.157              0.561
 Vibration     9          0.957              1.034              0.452

 Optimization completed.
    -- Stationary point found.
 Normal termination of Gaussian 09 at Thu Sep  8 14:56:54 2022.
