 Gaussian 09, Revision E.01,
 Gaussian 09:  ES64L-G09RevE.01 30-Nov-2015

 ----------------------------
 #P OPT Freq B3LYP/6-31G(d,p)
 ----------------------------

 --------
 Frag_833
 --------
 Symbolic Z-matrix:
 Charge =  0 Multiplicity = 1

 SCF Done:  E(RB3LYP) =  -186.863248715     A.U. after   14 cycles
 SCF Done:  E(RB3LYP) =  -186.863363543     A.U. after   11 cycles
 SCF Done:  E(RB3LYP) =  -186.863368775     A.U. after    9 cycles
 SCF Done:  E(RB3LYP) =  -186.863371083     A.U. after    8 cycles
 SCF Done:  E(RB3LYP) =  -186.863371359     A.U. after    8 cycles
 Optimization completed.
    -- Stationary point found.
 Normal termination of Gaussian 09 at Thu Sep  8 14:57:57 2022.

 ----------------------------------------------------------------------
 #P Geom=AllCheck Guess=TCheck SCRF=Check GenChk RB3LYP/6-31G(d,p) Freq
 ----------------------------------------------------------------------

 Structure from the checkpoint file:  "B3LYP6-31Gdp.Frag_833.chk"
 --------
 Frag_833
 --------
 Charge =  0 Multiplicity = 1

                         Standard orientation:
 ---------------------------------------------------------------------
 Center     Atomic      Atomic             Coordinates (Angstroms)
 Number     Number       Type             X           Y           Z
 ---------------------------------------------------------------------
      1          6           0        1.538664    0.282301   -0.000043
      2          7           0        0.558586   -0.540055   -0.000003
      3          6           0       -0.705529   -0.083129    0.000010
      4          7           0       -1.840115    0.191946    0.000001
      5          1           0        1.425150    1.369817    0.000062
      6          1           0        2.546740   -0.128089    0.000149
 ---------------------------------------------------------------------

 SCF Done:  E(RB3LYP) =  -186.863371359     A.U. after    1 cycles

 The electronic state is 1-A.
 Alpha  occ. eigenvalues --  -14.40913 -14.34432 -10.29274 -10.26190  -0.99679
 Alpha  occ. eigenvalues --   -0.90137  -0.71932  -0.57415  -0.50771  -0.43400
 Alpha  occ. eigenvalues --   -0.38515  -0.36469  -0.31852  -0.29572
 Alpha virt. eigenvalues --   -0.08985   0.03836   0.09426   0.10770   0.11859
 Alpha virt. eigenvalues --    0.15878   0.27937   0.43356   0.47816   0.53590
 Alpha virt. eigenvalues --    0.55247   0.57114   0.59397   0.61912   0.66769

 Mulliken charges:
               1
     1  C    0.006457
     2  N   -0.360811
     3  C    0.507793
     4  N   -0.439723
     5  H    0.140986
     6  H    0.145298
 Sum of Mulliken charges =  -0.00000

 Dipole moment (field-independent basis, Debye):
    X=              4.2054    Y=              1.0234    Z=              0.0001  Tot=              4.3282
 Quadrupole moment (field-independent basis, Debye-Ang):
   XX=            -24.0412   YY=            -22.7402   ZZ=            -22.3709
   XY=              2.4856   XZ=              0.0003   YZ=              0.0001

  Exact polarizability:  54.911   1.405  23.172   0.000  -0.000  13.912
 Approx polarizability: 100.034   1.422  35.563  -0.001  -0.001  19.435

                      1                      2                      3
                      A                      A                      A
 Frequencies --    247.3330               364.6470               617.5631
 Red. masses --      4.0897                 2.8870                 6.4276
 Frc consts  --      0.1474                 0.2262                 1.4443
 IR Inten    --      5.5950                 9.2444                 4.4069

                      4                      5                      6
                      A                      A                      A
 Frequencies --    775.3986               961.3247              1089.5452
 Red. masses --      1.6577                 6.0098                 1.3441
 Frc consts  --      0.5872                 3.2723                 0.9401
 IR Inten    --      1.0827                 5.4301                17.8254

                      7                      8                      9
                      A                      A                      A
 Frequencies --   1229.6631              1513.8149              1712.8506
 Red. masses --      1.4783                 1.1890                 5.3776
 Frc consts  --      1.3170                 1.6053                 9.2957
 IR Inten    --      9.1271                10.5771                31.0680

                     10                     11                     12
                      A                      A                      A
 Frequencies --   2314.4468              3087.2997              3208.5733
 Red. masses --     12.5811                 1.0587                 1.1169
 Frc consts  --     39.7067                 5.9451                 6.7745
 IR Inten    --     26.6494                14.9368                 8.2563

 - Thermochemistry -
 -------------------
 Temperature   298.150 Kelvin.  Pressure   1.00000 Atm.
 Atom     1 has atomic number  6 and mass  12.00000

 Molecular mass:    54.02180 amu.
 Principal axes and moments of inertia in atomic units:
                           1         2         3
     Eigenvalues --    26.73061 337.45151 364.18212
           X            0.99981   0.01960   0.00001
           Y           -0.01960   0.99981   0.00001
           Z           -0.00001  -0.00001   1.00000
 This molecule is an asymmetric top.
 Rotational symmetry number  1.
 Rotational temperatures (Kelvin)      3.24025     0.25667     0.23783
 Rotational constants (GHZ):          67.51591     5.34815     4.95560
 Zero-point vibrational energy     102415.1 (Joules/Mol)
                                   24.47779 (Kcal/Mol)
 Warning -- explicit consideration of   3 degrees of freedom as
           vibrations may cause significant error
 Vibrational temperatures:    355.86   524.65   888.53  1115.62  1383.13
          (Kelvin)           1567.61  1769.21  2178.04  2464.41  3329.97
                             4441.93  4616.42

 Zero-point correction=                           0.039008 (Hartree/Particle)
 Thermal correction to Energy=                    0.043003
 Thermal correction to Enthalpy=                  0.043947
 Thermal correction to Gibbs Free Energy=         0.013386
 Sum of electronic and zero-point Energies=           -186.824364
 Sum of electronic and thermal Energies=              -186.820369
 Sum of electronic and thermal Enthalpies=            -186.819424
 Sum of electronic and thermal Free Energies=         -186.849986

                     E (Thermal)             CV                S
                      KCal/Mol        Cal/Mol-Kelvin    Cal/Mol-Kelvin
 Total                   26.985             11.968             64.322
 Electronic               0.000              0.000              0.000
 Translational            0.889              2.981             37.883
 Rotational               0.889              2.981             22.712
 Vibrational             25.207              6.006              3.728
 Vibration     1          0.661              1.767              1.750
 Vibration     2          0.738              1.545              1.102
 Vibration     3          0.977              0.995              0.420

 Optimization completed.
    -- Stationary point found.
 Normal termination of Gaussian 09 at Thu Sep  8 14:58:02 2022.
