 Gaussian 09, Revision E.01,
 Gaussian 09:  ES64L-G09RevE.01 30-Nov-2015

 ----------------------------
 #P OPT Freq B3LYP/6-31G(d,p)
 ----------------------------

 --------
 Frag_955
 --------
 Symbolic Z-matrix:
 Charge =  0 Multiplicity = 1

 SCF Done:  E(RB3LYP) =  -280.552080080     A.U. after   14 cycles
 SCF Done:  E(RB3LYP) =  -280.552160736     A.U. after    9 cycles
 SCF Done:  E(RB3LYP) =  -280.552171818     A.U. after    9 cycles
 SCF Done:  E(RB3LYP) =  -280.552173297     A.U. after    9 cycles
 SCF Done:  E(RB3LYP) =  -280.552173916     A.U. after    8 cycles
 SCF Done:  E(RB3LYP) =  -280.552173997     A.U. after    8 cycles
 Optimization completed.
    -- Stationary point found.
 Normal termination of Gaussian 09 at Thu Sep  8 15:24:34 2022.

 ----------------------------------------------------------------------
 #P Geom=AllCheck Guess=TCheck SCRF=Check GenChk RB3LYP/6-31G(d,p) Freq
 ----------------------------------------------------------------------

 Structure from the checkpoint file:  "B3LYP6-31Gdp.Frag_955.chk"
 --------
 Frag_955
 --------
 Charge =  0 Multiplicity = 1

                         Standard orientation:
 ---------------------------------------------------------------------
 Center     Atomic      Atomic             Coordinates (Angstroms)
 Number     Number       Type             X           Y           Z
 ---------------------------------------------------------------------
      1          7           0        0.371790    1.346536    0.083017
      2          6           0        0.408566   -0.033902    0.010129
      3          7           0        1.686406   -0.589865   -0.102818
      4          7           0       -0.612790   -0.822720    0.042598
      5          8           0       -1.813763   -0.034334   -0.025179
      6          1           0        1.047699    1.804947   -0.514074
      7          1           0       -0.568271    1.707258   -0.020029
      8          1           0        2.318521   -0.249888    0.615637
      9          1           0        1.635098   -1.602355   -0.087287
     10          1           0       -2.492179   -0.719538   -0.013170
 ---------------------------------------------------------------------

 SCF Done:  E(RB3LYP) =  -280.552173997     A.U. after    1 cycles

 The electronic state is 1-A.
 Alpha  occ. eigenvalues --  -19.16283 -14.34165 -14.34090 -14.33898 -10.26956
 Alpha  occ. eigenvalues --   -1.04727  -0.95239  -0.86986  -0.80008  -0.58676
 Alpha  occ. eigenvalues --   -0.53698  -0.51937  -0.46761  -0.44714  -0.42496
 Alpha  occ. eigenvalues --   -0.39620  -0.32630  -0.27237  -0.26512  -0.19988
 Alpha virt. eigenvalues --    0.05603   0.07913   0.08035   0.13029   0.14582
 Alpha virt. eigenvalues --    0.16557   0.16657   0.27464   0.35857   0.42546
 Alpha virt. eigenvalues --    0.58258   0.60183   0.62952   0.65499   0.68138

 Mulliken charges:
               1
     1  N   -0.625789
     2  C    0.611399
     3  N   -0.626634
     4  N   -0.308601
     5  O   -0.466195
     6  H    0.265475
     7  H    0.289658
     8  H    0.262523
     9  H    0.270314
    10  H    0.327852
 Sum of Mulliken charges =  -0.00000

 Dipole moment (field-independent basis, Debye):
    X=              0.9866    Y=              0.5591    Z=              0.0089  Tot=              1.1340
 Quadrupole moment (field-independent basis, Debye-Ang):
   XX=            -22.7505   YY=            -25.9696   ZZ=            -31.0688
   XY=              0.4848   XZ=              1.9226   YZ=             -2.2359

  Exact polarizability:  51.264   3.255  37.837   0.298  -0.058  18.123
 Approx polarizability:  75.248   8.776  56.432  -0.320   0.843  25.526

                      1                      2                      3
                      A                      A                      A
 Frequencies --    179.4817               292.5805               317.7625
 Red. masses --      1.3923                 2.5171                 2.6645
 Frc consts  --      0.0264                 0.1270                 0.1585
 IR Inten    --     98.0474                50.2362                11.6506

                      4                      5                      6
                      A                      A                      A
 Frequencies --    363.2181               424.8770               451.5206
 Red. masses --      1.2518                 1.1370                 2.7192
 Frc consts  --      0.0973                 0.1209                 0.3266
 IR Inten    --     15.9937                59.2970                 8.2095

                      7                      8                      9
                      A                      A                      A
 Frequencies --    574.3637               632.7169               735.7201
 Red. masses --      2.3456                 3.8161                 1.7234
 Frc consts  --      0.4559                 0.9001                 0.5496
 IR Inten    --     77.4699                44.3460               213.3628

                     10                     11                     12
                      A                      A                      A
 Frequencies --    813.4617               927.8084               976.4431
 Red. masses --      1.5456                 6.4548                 4.2988
 Frc consts  --      0.6026                 3.2738                 2.4148
 IR Inten    --    267.3359                20.7963                74.9479

                     13                     14                     15
                      A                      A                      A
 Frequencies --   1140.4614              1182.7558              1351.5331
 Red. masses --      1.3308                 1.4217                 1.3406
 Frc consts  --      1.0198                 1.1718                 1.4428
 IR Inten    --      4.4371                34.1642                92.1654

                     16                     17                     18
                      A                      A                      A
 Frequencies --   1473.1972              1625.6912              1640.1909
 Red. masses --      2.9824                 1.1901                 1.2154
 Frc consts  --      3.8136                 1.8531                 1.9265
 IR Inten    --     34.5915                24.1243               133.1386

                     19                     20                     21
                      A                      A                      A
 Frequencies --   1763.8555              3522.7567              3562.4002
 Red. masses --      5.1619                 1.0492                 1.0466
 Frc consts  --      9.4621                 7.6713                 7.8253
 IR Inten    --    173.3305                 7.2866                18.9113

                     22                     23                     24
                      A                      A                      A
 Frequencies --   3633.6439              3673.9812              3850.3901
 Red. masses --      1.0945                 1.0988                 1.0680
 Frc consts  --      8.5147                 8.7382                 9.3288
 IR Inten    --     14.6168                30.1316                61.9936

 - Thermochemistry -
 -------------------
 Temperature   298.150 Kelvin.  Pressure   1.00000 Atm.
 Atom     1 has atomic number  7 and mass  14.00307

 Molecular mass:    75.04326 amu.
 Principal axes and moments of inertia in atomic units:
                           1         2         3
     Eigenvalues --   178.85379 422.51640 594.84660
           X            0.99996  -0.00647   0.00681
           Y            0.00661   0.99978  -0.01995
           Z           -0.00668   0.02000   0.99978
 This molecule is an asymmetric top.
 Rotational symmetry number  1.
 Rotational temperatures (Kelvin)      0.48427     0.20500     0.14561
 Rotational constants (GHZ):          10.09060     4.27141     3.03396
 Zero-point vibrational energy     210009.3 (Joules/Mol)
                                   50.19342 (Kcal/Mol)
 Warning -- explicit consideration of   7 degrees of freedom as
           vibrations may cause significant error
 Vibrational temperatures:    258.23   420.96   457.19   522.59   611.30
          (Kelvin)            649.64   826.38   910.34  1058.54  1170.39
                             1334.91  1404.88  1640.87  1701.72  1944.55
                             2119.60  2339.00  2359.87  2537.79  5068.45
                             5125.49  5228.00  5286.03  5539.85

 Zero-point correction=                           0.079988 (Hartree/Particle)
 Thermal correction to Energy=                    0.085779
 Thermal correction to Enthalpy=                  0.086723
 Thermal correction to Gibbs Free Energy=         0.051660
 Sum of electronic and zero-point Energies=           -280.472186
 Sum of electronic and thermal Energies=              -280.466395
 Sum of electronic and thermal Enthalpies=            -280.465451
 Sum of electronic and thermal Free Energies=         -280.500514

                     E (Thermal)             CV                S
                      KCal/Mol        Cal/Mol-Kelvin    Cal/Mol-Kelvin
 Total                   53.827             20.579             73.796
 Electronic               0.000              0.000              0.000
 Translational            0.889              2.981             38.862
 Rotational               0.889              2.981             25.311
 Vibrational             52.050             14.617              9.623
 Vibration     1          0.629              1.868              2.334
 Vibration     2          0.688              1.688              1.459
 Vibration     3          0.704              1.640              1.322
 Vibration     4          0.737              1.548              1.108
 Vibration     5          0.787              1.416              0.876
 Vibration     6          0.810              1.358              0.791
 Vibration     7          0.931              1.087              0.496

 Optimization completed.
    -- Stationary point found.
 Normal termination of Gaussian 09 at Thu Sep  8 15:24:41 2022.
