 Gaussian 09, Revision E.01,
 Gaussian 09:  ES64L-G09RevE.01 30-Nov-2015

 ----------------------------
 #P OPT Freq B3LYP/6-31G(d,p)
 ----------------------------

 --------
 Frag_450
 --------
 Symbolic Z-matrix:
 Charge =  0 Multiplicity = 1

 SCF Done:  E(RB3LYP) =  -308.446094169     A.U. after   12 cycles
 SCF Done:  E(RB3LYP) =  -308.446119380     A.U. after    9 cycles
 SCF Done:  E(RB3LYP) =  -308.446122340     A.U. after    8 cycles
 SCF Done:  E(RB3LYP) =  -308.446123818     A.U. after    7 cycles
 SCF Done:  E(RB3LYP) =  -308.446124089     A.U. after    7 cycles
 Optimization completed.
    -- Stationary point found.
 Normal termination of Gaussian 09 at Thu Sep  8 15:03:39 2022.

 ----------------------------------------------------------------------
 #P Geom=AllCheck Guess=TCheck SCRF=Check GenChk RB3LYP/6-31G(d,p) Freq
 ----------------------------------------------------------------------

 Structure from the checkpoint file:  "B3LYP6-31Gdp.Frag_450.chk"
 --------
 Frag_450
 --------
 Charge =  0 Multiplicity = 1

                         Standard orientation:
 ---------------------------------------------------------------------
 Center     Atomic      Atomic             Coordinates (Angstroms)
 Number     Number       Type             X           Y           Z
 ---------------------------------------------------------------------
      1          6           0       -1.636271    1.120390   -0.052826
      2          7           0       -0.810757   -0.018592   -0.439352
      3          7           0       -1.424680   -1.251981   -0.050136
      4          6           0        0.617486    0.010595    0.001415
      5          6           0        1.250368    1.337961   -0.453152
      6          6           0        0.770163   -0.146697    1.529941
      7          6           0        1.338625   -1.143941   -0.715210
      8          1           0       -2.619134    1.009464   -0.522854
      9          1           0       -1.206525    2.057650   -0.411311
     10          1           0       -1.796743    1.208400    1.038962
     11          1           0       -1.905932   -1.145756    0.849125
     12          1           0       -2.138706   -1.464791   -0.742773
     13          1           0        1.035153    1.523881   -1.510238
     14          1           0        0.899838    2.194980    0.129814
     15          1           0        2.336406    1.286138   -0.331260
     16          1           0        0.262477    0.657279    2.074509
     17          1           0        1.826657   -0.117029    1.815990
     18          1           0        0.361553   -1.104972    1.863662
     19          1           0        2.397015   -1.163815   -0.434655
     20          1           0        1.268930   -1.016459   -1.800036
     21          1           0        0.884846   -2.100806   -0.453528
 ---------------------------------------------------------------------

 SCF Done:  E(RB3LYP) =  -308.446124089     A.U. after    1 cycles

 The electronic state is 1-A.
 Alpha  occ. eigenvalues --  -14.33948 -14.33416 -10.21246 -10.19955 -10.16775
 Alpha  occ. eigenvalues --  -10.16428 -10.15406  -0.95986  -0.81020  -0.75207
 Alpha  occ. eigenvalues --   -0.67856  -0.67441  -0.64738  -0.53039  -0.48993
 Alpha  occ. eigenvalues --   -0.47041  -0.46523  -0.43197  -0.41935  -0.39694
 Alpha  occ. eigenvalues --   -0.39327  -0.37223  -0.36995  -0.35323  -0.34300
 Alpha  occ. eigenvalues --   -0.32288  -0.31732  -0.24375  -0.21042
 Alpha virt. eigenvalues --    0.07238   0.10916   0.12531   0.13397   0.14533
 Alpha virt. eigenvalues --    0.14610   0.16116   0.16837   0.17736   0.19334
 Alpha virt. eigenvalues --    0.19363   0.20418   0.20926   0.21590   0.22949

 Mulliken charges:
               1
     1  C   -0.158631
     2  N   -0.331697
     3  N   -0.451946
     4  C    0.200437
     5  C   -0.318527
     6  C   -0.320593
     7  C   -0.292423
     8  H    0.098826
     9  H    0.112665
    10  H    0.075074
    11  H    0.222657
    12  H    0.253014
    13  H    0.110176
    14  H    0.095430
    15  H    0.100295
    16  H    0.091124
    17  H    0.098888
    18  H    0.110137
    19  H    0.083760
    20  H    0.097110
    21  H    0.124226
 Sum of Mulliken charges =   0.00000

 Dipole moment (field-independent basis, Debye):
    X=             -1.1045    Y=              0.7684    Z=              0.6357  Tot=              1.4881
 Quadrupole moment (field-independent basis, Debye-Ang):
   XX=            -41.6085   YY=            -47.4515   ZZ=            -46.9907
   XY=              1.1522   XZ=             -0.1600   YZ=             -0.1199

  Exact polarizability:  75.015   0.871  69.030  -0.495   0.061  64.226
 Approx polarizability:  97.645   2.541  95.011  -0.398   0.172  91.647

                      1                      2                      3
                      A                      A                      A
 Frequencies --     92.1850               205.7197               232.6097
 Red. masses --      2.5688                 1.0469                 1.2821
 Frc consts  --      0.0129                 0.0261                 0.0409
 IR Inten    --      0.4966                 0.4446                 3.0209

                      4                      5                      6
                      A                      A                      A
 Frequencies --    253.2166               268.3632               281.2551
 Red. masses --      1.0762                 1.4537                 1.5920
 Frc consts  --      0.0407                 0.0617                 0.0742
 IR Inten    --      0.3085                 1.7709                 2.3838

                      7                      8                      9
                      A                      A                      A
 Frequencies --    316.4830               339.6544               360.2996
 Red. masses --      1.7446                 1.1960                 2.3836
 Frc consts  --      0.1030                 0.0813                 0.1823
 IR Inten    --      1.7309                35.4519                 1.7582

                     10                     11                     12
                      A                      A                      A
 Frequencies --    383.2302               404.8163               474.2452
 Red. masses --      1.9708                 2.2013                 2.2177
 Frc consts  --      0.1705                 0.2125                 0.2939
 IR Inten    --      1.2547                 0.7682                 1.1979

                     13                     14                     15
                      A                      A                      A
 Frequencies --    494.1770               518.1707               690.8733
 Red. masses --      2.8403                 2.8871                 3.6149
 Frc consts  --      0.4087                 0.4567                 1.0166
 IR Inten    --      5.7036                 4.2270                 4.7580

                     16                     17                     18
                      A                      A                      A
 Frequencies --    821.3789               897.2513               918.8066
 Red. masses --      2.7763                 2.1069                 1.6975
 Frc consts  --      1.1036                 0.9994                 0.8443
 IR Inten    --      9.7848                70.7302                 1.4140

                     19                     20                     21
                      A                      A                      A
 Frequencies --    932.1832               962.7057              1027.3658
 Red. masses --      1.6146                 1.2123                 1.4894
 Frc consts  --      0.8266                 0.6620                 0.9262
 IR Inten    --      0.6168                 0.5009                 7.0594

                     22                     23                     24
                      A                      A                      A
 Frequencies --   1043.2343              1062.7431              1139.5445
 Red. masses --      1.4055                 1.3635                 1.7021
 Frc consts  --      0.9013                 0.9073                 1.3023
 IR Inten    --      1.5300                20.4873                13.5890

                     25                     26                     27
                      A                      A                      A
 Frequencies --   1160.0456              1217.3991              1253.2979
 Red. masses --      2.3583                 1.9968                 2.5074
 Frc consts  --      1.8698                 1.7436                 2.3205
 IR Inten    --      2.1285                33.2853                13.6469

                     28                     29                     30
                      A                      A                      A
 Frequencies --   1279.0322              1287.6509              1320.5356
 Red. masses --      2.9469                 2.7087                 1.2541
 Frc consts  --      2.8404                 2.6461                 1.2885
 IR Inten    --     15.2173                12.9993                 7.9088

                     31                     32                     33
                      A                      A                      A
 Frequencies --   1400.5345              1406.0035              1432.3736
 Red. masses --      1.2707                 1.2728                 1.2358
 Frc consts  --      1.4686                 1.4824                 1.4939
 IR Inten    --     11.5915                 8.9162                11.0726

                     34                     35                     36
                      A                      A                      A
 Frequencies --   1460.3543              1484.7373              1500.3741
 Red. masses --      1.1698                 1.0497                 1.0526
 Frc consts  --      1.4699                 1.3634                 1.3961
 IR Inten    --      0.8230                 0.2806                10.4581

                     37                     38                     39
                      A                      A                      A
 Frequencies --   1504.0549              1509.1626              1511.0705
 Red. masses --      1.0486                 1.0505                 1.0514
 Frc consts  --      1.3976                 1.4096                 1.4144
 IR Inten    --      4.7459                 1.7182                 1.1417

                     40                     41                     42
                      A                      A                      A
 Frequencies --   1519.5428              1524.6814              1539.0951
 Red. masses --      1.0550                 1.0530                 1.0558
 Frc consts  --      1.4353                 1.4423                 1.4735
 IR Inten    --      1.0294                 1.8938                 5.6572

                     43                     44                     45
                      A                      A                      A
 Frequencies --   1676.8458              2933.4916              3041.1253
 Red. masses --      1.0804                 1.0609                 1.0356
 Frc consts  --      1.7898                 5.3787                 5.6433
 IR Inten    --     13.1066                73.4734                24.2277

                     46                     47                     48
                      A                      A                      A
 Frequencies --   3045.8376              3053.0222              3073.4499
 Red. masses --      1.0358                 1.0378                 1.0762
 Frc consts  --      5.6617                 5.6993                 5.9897
 IR Inten    --     22.1826                17.8829                44.6728

                     49                     50                     51
                      A                      A                      A
 Frequencies --   3106.7978              3115.7543              3118.4172
 Red. masses --      1.1014                 1.1022                 1.1022
 Frc consts  --      6.2638                 6.3044                 6.3150
 IR Inten    --     14.6892                13.9269                44.4491

                     52                     53                     54
                      A                      A                      A
 Frequencies --   3123.8254              3125.8590              3137.4300
 Red. masses --      1.1024                 1.1020                 1.0971
 Frc consts  --      6.3379                 6.3443                 6.3630
 IR Inten    --     17.7757                48.4515                28.2980

                     55                     56                     57
                      A                      A                      A
 Frequencies --   3155.9796              3375.7440              3532.5518
 Red. masses --      1.0997                 1.0564                 1.0847
 Frc consts  --      6.4536                 7.0928                 7.9748
 IR Inten    --     15.5628                21.0286                 0.2171

 - Thermochemistry -
 -------------------
 Temperature   298.150 Kelvin.  Pressure   1.00000 Atm.
 Atom     1 has atomic number  6 and mass  12.00000

 Molecular mass:   102.11570 amu.
 Principal axes and moments of inertia in atomic units:
                           1         2         3
     Eigenvalues --   576.76849 786.76345 938.66884
           X            0.99945  -0.03005  -0.01390
           Y            0.03005   0.99955  -0.00032
           Z            0.01391  -0.00010   0.99990
 This molecule is an asymmetric top.
 Rotational symmetry number  1.
 Warning -- assumption of classical behavior for rotation
           may cause significant error
 Rotational temperatures (Kelvin)      0.15017     0.11009     0.09227
 Rotational constants (GHZ):           3.12906     2.29388     1.92266
 Zero-point vibrational energy     508691.6 (Joules/Mol)
                                  121.58020 (Kcal/Mol)
 Warning -- explicit consideration of  14 degrees of freedom as
           vibrations may cause significant error
 Vibrational temperatures:    132.63   295.98   334.67   364.32   386.11
          (Kelvin)            404.66   455.35   488.69   518.39   551.38
                              582.44   682.33   711.01   745.53   994.01
                             1181.78  1290.94  1321.96  1341.20  1385.12
                             1478.15  1500.98  1529.05  1639.55  1669.04
                             1751.56  1803.21  1840.24  1852.64  1899.95
                             2015.05  2022.92  2060.86  2101.12  2136.20
                             2158.70  2164.00  2171.35  2174.09  2186.28
                             2193.67  2214.41  2412.60  4220.63  4375.50
                             4382.28  4392.61  4422.00  4469.98  4482.87
                             4486.70  4494.48  4497.41  4514.06  4540.75
                             4856.94  5082.55

 Zero-point correction=                           0.193750 (Hartree/Particle)
 Thermal correction to Energy=                    0.202869
 Thermal correction to Enthalpy=                  0.203813
 Thermal correction to Gibbs Free Energy=         0.161512
 Sum of electronic and zero-point Energies=           -308.252374
 Sum of electronic and thermal Energies=              -308.243256
 Sum of electronic and thermal Enthalpies=            -308.242311
 Sum of electronic and thermal Free Energies=         -308.284612

                     E (Thermal)             CV                S
                      KCal/Mol        Cal/Mol-Kelvin    Cal/Mol-Kelvin
 Total                  127.302             34.893             89.030
 Electronic               0.000              0.000              0.000
 Translational            0.889              2.981             39.780
 Rotational               0.889              2.981             27.546
 Vibrational            125.524             28.931             21.704
 Vibration     1          0.602              1.955              3.613
 Vibration     2          0.640              1.832              2.081
 Vibration     3          0.653              1.791              1.859
 Vibration     4          0.664              1.757              1.708
 Vibration     5          0.673              1.731              1.607
 Vibration     6          0.681              1.708              1.526
 Vibration     7          0.703              1.642              1.328
 Vibration     8          0.720              1.596              1.214
 Vibration     9          0.735              1.554              1.121
 Vibration    10          0.752              1.506              1.026
 Vibration    11          0.770              1.460              0.945
 Vibration    12          0.831              1.307              0.726
 Vibration    13          0.850              1.263              0.673
 Vibration    14          0.873              1.210              0.614

 Optimization completed.
    -- Stationary point found.
 Normal termination of Gaussian 09 at Thu Sep  8 15:04:00 2022.
