 Gaussian 09, Revision E.01,
 Gaussian 09:  ES64L-G09RevE.01 30-Nov-2015

 ----------------------------
 #P OPT Freq B3LYP/6-31G(d,p)
 ----------------------------

 ---------
 Frag_1037
 ---------
 Symbolic Z-matrix:
 Charge =  0 Multiplicity = 1

 SCF Done:  E(RB3LYP) =  -304.984875078     A.U. after   14 cycles
 SCF Done:  E(RB3LYP) =  -304.984932731     A.U. after   10 cycles
 SCF Done:  E(RB3LYP) =  -304.984893564     A.U. after   11 cycles
 SCF Done:  E(RB3LYP) =  -304.984945456     A.U. after   10 cycles
 SCF Done:  E(RB3LYP) =  -304.984948914     A.U. after    8 cycles
 SCF Done:  E(RB3LYP) =  -304.984949587     A.U. after    8 cycles
 Optimization completed.
    -- Stationary point found.
 Normal termination of Gaussian 09 at Thu Sep  8 14:49:52 2022.

 ----------------------------------------------------------------------
 #P Geom=AllCheck Guess=TCheck SCRF=Check GenChk RB3LYP/6-31G(d,p) Freq
 ----------------------------------------------------------------------

 Structure from the checkpoint file:  "B3LYP6-31Gdp.Frag_1037.chk"
 ---------
 Frag_1037
 ---------
 Charge =  0 Multiplicity = 1

                         Standard orientation:
 ---------------------------------------------------------------------
 Center     Atomic      Atomic             Coordinates (Angstroms)
 Number     Number       Type             X           Y           Z
 ---------------------------------------------------------------------
      1          6           0        1.678914   -0.691972   -0.478221
      2          6           0        0.380092   -0.016514   -0.036647
      3          6           0        0.484719    1.516484   -0.198586
      4          8           0        0.218310   -0.175126    1.437105
      5          7           0       -0.676755   -0.670922   -0.737378
      6          7           0       -1.906460   -0.109220   -0.159499
      7          1           0        2.524288   -0.316413    0.104612
      8          1           0        1.865564   -0.506403   -1.539637
      9          1           0        1.597701   -1.774628   -0.339324
     10          1           0        0.611865    1.765578   -1.255685
     11          1           0       -0.410833    2.030608    0.172001
     12          1           0        1.329966    1.919908    0.366676
     13          1           0        0.196148   -1.137072    1.559294
     14          1           0       -1.779267   -0.019819    0.866526
     15          1           0       -2.659451   -0.765457   -0.356756
     16          1           0       -2.202302    0.817716   -0.515691
 ---------------------------------------------------------------------

 SCF Done:  E(RB3LYP) =  -304.984949587     A.U. after    1 cycles

 The electronic state is 1-A.
 Alpha  occ. eigenvalues --  -19.11923 -14.44424 -14.25658 -10.22899 -10.15752
 Alpha  occ. eigenvalues --  -10.15111  -1.00496  -0.96701  -0.78817  -0.69831
 Alpha  occ. eigenvalues --   -0.67035  -0.56812  -0.54986  -0.53230  -0.48462
 Alpha  occ. eigenvalues --   -0.42374  -0.41084  -0.37631  -0.36163  -0.34800
 Alpha  occ. eigenvalues --   -0.34175  -0.32562  -0.26573  -0.23186  -0.15524
 Alpha virt. eigenvalues --    0.03709   0.09448   0.10129   0.12319   0.14596
 Alpha virt. eigenvalues --    0.16173   0.16609   0.18229   0.19078   0.21795
 Alpha virt. eigenvalues --    0.22625   0.24529   0.26045   0.27823   0.33576

 Mulliken charges:
               1
     1  C   -0.306506
     2  C    0.355854
     3  C   -0.302011
     4  O   -0.576495
     5  N   -0.511168
     6  N   -0.397095
     7  H    0.096419
     8  H    0.107567
     9  H    0.095568
    10  H    0.104271
    11  H    0.059930
    12  H    0.107385
    13  H    0.283351
    14  H    0.288482
    15  H    0.315487
    16  H    0.278960
 Sum of Mulliken charges =  -0.00000

 Dipole moment (field-independent basis, Debye):
    X=             -3.7210    Y=              0.6009    Z=              0.7025  Tot=              3.8342
 Quadrupole moment (field-independent basis, Debye-Ang):
   XX=            -25.9497   YY=            -37.9866   ZZ=            -42.5044
   XY=             -0.9450   XZ=             -1.3740   YZ=             -4.1346

  Exact polarizability:  62.472  -2.337  52.123  -0.452  -0.457  47.580
 Approx polarizability:  81.519  -3.615  72.039   0.338   2.195  71.694

                      1                      2                      3
                      A                      A                      A
 Frequencies --    171.3340               208.4055               239.7604
 Red. masses --      1.6708                 1.3295                 1.1236
 Frc consts  --      0.0289                 0.0340                 0.0381
 IR Inten    --     29.3771                17.6930                 6.2995

                      4                      5                      6
                      A                      A                      A
 Frequencies --    275.8205               290.4653               349.2634
 Red. masses --      2.6316                 1.0948                 2.2960
 Frc consts  --      0.1180                 0.0544                 0.1650
 IR Inten    --     21.0107                 2.4200                 3.4299

                      7                      8                      9
                      A                      A                      A
 Frequencies --    380.4603               422.8155               463.2541
 Red. masses --      2.9453                 2.4698                 1.6452
 Frc consts  --      0.2512                 0.2601                 0.2080
 IR Inten    --     27.5680                 7.7521                51.2953

                     10                     11                     12
                      A                      A                      A
 Frequencies --    532.6447               614.2878               697.4795
 Red. masses --      2.1561                 2.4164                 5.4246
 Frc consts  --      0.3604                 0.5372                 1.5548
 IR Inten    --     30.7530                33.1508                36.8332

                     13                     14                     15
                      A                      A                      A
 Frequencies --    766.2940               835.8801               927.3892
 Red. masses --      5.3676                 2.9571                 1.4986
 Frc consts  --      1.8570                 1.2173                 0.7594
 IR Inten    --     32.5025                64.9628                 4.6312

                     16                     17                     18
                      A                      A                      A
 Frequencies --    960.9917              1000.7095              1070.5554
 Red. masses --      1.8302                 1.3232                 1.2888
 Frc consts  --      0.9958                 0.7807                 0.8702
 IR Inten    --     29.8989                 1.3079                28.8313

                     19                     20                     21
                      A                      A                      A
 Frequencies --   1086.2700              1140.6762              1187.9121
 Red. masses --      1.3892                 1.5992                 2.1194
 Frc consts  --      0.9658                 1.2259                 1.7621
 IR Inten    --     28.5037                87.5423                12.7233

                     22                     23                     24
                      A                      A                      A
 Frequencies --   1269.8214              1335.0389              1405.2161
 Red. masses --      3.1386                 1.7029                 1.4103
 Frc consts  --      2.9817                 1.7882                 1.6408
 IR Inten    --     59.1399                46.3496                21.5922

                     25                     26                     27
                      A                      A                      A
 Frequencies --   1416.3221              1425.9200              1491.5378
 Red. masses --      1.2622                 1.1556                 1.0483
 Frc consts  --      1.4918                 1.3844                 1.3741
 IR Inten    --     14.5723                46.2037                 0.6823

                     28                     29                     30
                      A                      A                      A
 Frequencies --   1492.2436              1513.7993              1521.4597
 Red. masses --      1.0571                 1.0639                 1.0501
 Frc consts  --      1.3869                 1.4364                 1.4322
 IR Inten    --      1.1660                 0.4460                 4.2844

                     31                     32                     33
                      A                      A                      A
 Frequencies --   1635.8996              1684.9816              3036.5056
 Red. masses --      1.0563                 1.0558                 1.0397
 Frc consts  --      1.6655                 1.7662                 5.6482
 IR Inten    --     16.2819                40.0647                30.8739

                     34                     35                     36
                      A                      A                      A
 Frequencies --   3051.5677              3100.9066              3125.2538
 Red. masses --      1.0352                 1.0949                 1.1017
 Frc consts  --      5.6795                 6.2029                 6.3399
 IR Inten    --     11.3552                36.2630                27.6034

                     37                     38                     39
                      A                      A                      A
 Frequencies --   3131.6074              3138.6319              3190.7596
 Red. masses --      1.1039                 1.1035                 1.0387
 Frc consts  --      6.3786                 6.4048                 6.2305
 IR Inten    --      4.7541                45.0594               122.3634

                     40                     41                     42
                      A                      A                      A
 Frequencies --   3226.0003              3537.1088              3761.2922
 Red. masses --      1.0914                 1.0805                 1.0653
 Frc consts  --      6.6920                 7.9644                 8.8796
 IR Inten    --     19.3293                42.9221                 3.2454

 - Thermochemistry -
 -------------------
 Temperature   298.150 Kelvin.  Pressure   1.00000 Atm.
 Atom     1 has atomic number  6 and mass  12.00000

 Molecular mass:    90.07931 amu.
 Principal axes and moments of inertia in atomic units:
                           1         2         3
     Eigenvalues --   390.45775 636.23286 658.79354
           X            0.99903  -0.03447  -0.02748
           Y            0.02539   0.95951  -0.28053
           Z            0.03603   0.27956   0.95945
 This molecule is an asymmetric top.
 Rotational symmetry number  1.
 Rotational temperatures (Kelvin)      0.22183     0.13614     0.13147
 Rotational constants (GHZ):           4.62212     2.83660     2.73946
 Zero-point vibrational energy     371527.5 (Joules/Mol)
                                   88.79720 (Kcal/Mol)
 Warning -- explicit consideration of  11 degrees of freedom as
           vibrations may cause significant error
 Vibrational temperatures:    246.51   299.85   344.96   396.84   417.91
          (Kelvin)            502.51   547.40   608.34   666.52   766.36
                              883.82  1003.52  1102.52  1202.64  1334.30
                             1382.65  1439.80  1540.29  1562.90  1641.18
                             1709.14  1826.99  1920.82  2021.79  2037.77
                             2051.58  2145.99  2147.00  2178.02  2189.04
                             2353.69  2424.31  4368.85  4390.52  4461.51
                             4496.54  4505.68  4515.79  4590.79  4641.49
                             5089.10  5411.65

 Zero-point correction=                           0.141507 (Hartree/Particle)
 Thermal correction to Energy=                    0.149024
 Thermal correction to Enthalpy=                  0.149968
 Thermal correction to Gibbs Free Energy=         0.111189
 Sum of electronic and zero-point Energies=           -304.843442
 Sum of electronic and thermal Energies=              -304.835926
 Sum of electronic and thermal Enthalpies=            -304.834981
 Sum of electronic and thermal Free Energies=         -304.873761

                     E (Thermal)             CV                S
                      KCal/Mol        Cal/Mol-Kelvin    Cal/Mol-Kelvin
 Total                   93.514             28.309             81.618
 Electronic               0.000              0.000              0.000
 Translational            0.889              2.981             39.407
 Rotational               0.889              2.981             26.595
 Vibrational             91.737             22.347             15.616
 Vibration     1          0.626              1.878              2.421
 Vibration     2          0.642              1.828              2.058
 Vibration     3          0.657              1.780              1.805
 Vibration     4          0.677              1.718              1.559
 Vibration     5          0.686              1.691              1.471
 Vibration     6          0.727              1.577              1.170
 Vibration     7          0.750              1.512              1.037
 Vibration     8          0.785              1.421              0.882
 Vibration     9          0.821              1.332              0.757
 Vibration    10          0.888              1.178              0.581
 Vibration    11          0.974              1.002              0.426

 Optimization completed.
    -- Stationary point found.
 Normal termination of Gaussian 09 at Thu Sep  8 14:50:05 2022.
