 Gaussian 09, Revision E.01,
 Gaussian 09:  ES64L-G09RevE.01 30-Nov-2015

 ----------------------------
 #P OPT Freq B3LYP/6-31G(d,p)
 ----------------------------

 --------
 Frag_587
 --------
 Symbolic Z-matrix:
 Charge =  0 Multiplicity = 1

 SCF Done:  E(RB3LYP) =  -344.386962032     A.U. after   13 cycles
 SCF Done:  E(RB3LYP) =  -344.387003881     A.U. after   10 cycles
 SCF Done:  E(RB3LYP) =  -344.387009913     A.U. after    8 cycles
 SCF Done:  E(RB3LYP) =  -344.387011709     A.U. after    9 cycles
 SCF Done:  E(RB3LYP) =  -344.387013429     A.U. after    7 cycles
 SCF Done:  E(RB3LYP) =  -344.387014485     A.U. after    7 cycles
 SCF Done:  E(RB3LYP) =  -344.387015096     A.U. after    7 cycles
 SCF Done:  E(RB3LYP) =  -344.387015499     A.U. after    7 cycles
 Optimization completed.
    -- Stationary point found.
 Normal termination of Gaussian 09 at Thu Sep  8 15:23:55 2022.

 ----------------------------------------------------------------------
 #P Geom=AllCheck Guess=TCheck SCRF=Check GenChk RB3LYP/6-31G(d,p) Freq
 ----------------------------------------------------------------------

 Structure from the checkpoint file:  "B3LYP6-31Gdp.Frag_587.chk"
 --------
 Frag_587
 --------
 Charge =  0 Multiplicity = 1

                         Standard orientation:
 ---------------------------------------------------------------------
 Center     Atomic      Atomic             Coordinates (Angstroms)
 Number     Number       Type             X           Y           Z
 ---------------------------------------------------------------------
      1          6           0        1.481103   -1.012397   -0.731569
      2          6           0        0.633342    0.039441   -0.017033
      3          6           0        0.823397   -0.044867    1.504837
      4          8           0        1.121805    1.307114   -0.488751
      5          6           0       -0.864364   -0.094230   -0.443819
      6          7           0       -1.719862    1.055469   -0.108627
      7          7           0       -1.421496   -1.348292    0.044613
      8          1           0        1.424312   -0.862689   -1.814088
      9          1           0        1.118653   -2.015270   -0.499153
     10          1           0        2.529712   -0.922680   -0.433034
     11          1           0        0.580856   -1.039152    1.891470
     12          1           0        1.866275    0.169995    1.753194
     13          1           0        0.200037    0.688723    2.033277
     14          1           0        0.699604    1.992403    0.046733
     15          1           0       -0.858740   -0.142237   -1.539396
     16          1           0       -1.405101    1.890363   -0.597651
     17          1           0       -1.702229    1.253166    0.890861
     18          1           0       -1.506539   -1.315909    1.059125
     19          1           0       -2.372653   -1.431544   -0.307720
 ---------------------------------------------------------------------

 SCF Done:  E(RB3LYP) =  -344.387015499     A.U. after    1 cycles

 The electronic state is 1-A.
 Alpha  occ. eigenvalues --  -19.13900 -14.31691 -14.31284 -10.23601 -10.23242
 Alpha  occ. eigenvalues --  -10.18035 -10.16259  -1.01509  -0.91255  -0.83624
 Alpha  occ. eigenvalues --   -0.76731  -0.69129  -0.64159  -0.56008  -0.51967
 Alpha  occ. eigenvalues --   -0.48730  -0.46366  -0.45609  -0.44608  -0.41785
 Alpha  occ. eigenvalues --   -0.39220  -0.37176  -0.36752  -0.36190  -0.34782
 Alpha  occ. eigenvalues --   -0.31901  -0.27569  -0.24580  -0.23655
 Alpha virt. eigenvalues --    0.05360   0.09219   0.11225   0.11750   0.13089
 Alpha virt. eigenvalues --    0.14917   0.15792   0.17411   0.17965   0.19717
 Alpha virt. eigenvalues --    0.20242   0.22040   0.22765   0.23902   0.25149

 Mulliken charges:
               1
     1  C   -0.298600
     2  C    0.265553
     3  C   -0.343705
     4  O   -0.551220
     5  C    0.153062
     6  N   -0.603978
     7  N   -0.582567
     8  H    0.106260
     9  H    0.123818
    10  H    0.100304
    11  H    0.113829
    12  H    0.121005
    13  H    0.075098
    14  H    0.283879
    15  H    0.104347
    16  H    0.233654
    17  H    0.222497
    18  H    0.230286
    19  H    0.246479
 Sum of Mulliken charges =  -0.00000

 Dipole moment (field-independent basis, Debye):
    X=             -0.7887    Y=              0.8859    Z=              1.8985  Tot=              2.2385
 Quadrupole moment (field-independent basis, Debye-Ang):
   XX=            -47.6012   YY=            -43.6376   ZZ=            -42.8267
   XY=             -0.6538   XZ=             -0.1105   YZ=              1.2674

  Exact polarizability:  62.503  -0.671  62.059  -0.351   0.429  59.128
 Approx polarizability:  82.108   0.638  87.558  -1.625  -1.074  83.967

                      1                      2                      3
                      A                      A                      A
 Frequencies --     94.3407               197.5079               233.5501
 Red. masses --      3.0506                 1.0592                 1.0742
 Frc consts  --      0.0160                 0.0243                 0.0345
 IR Inten    --      1.1358                17.1243                84.4117

                      4                      5                      6
                      A                      A                      A
 Frequencies --    253.2504               271.7431               279.9380
 Red. masses --      1.8123                 1.4843                 2.7291
 Frc consts  --      0.0685                 0.0646                 0.1260
 IR Inten    --     30.4174                 7.2493                 3.3353

                      7                      8                      9
                      A                      A                      A
 Frequencies --    314.6372               345.2806               360.2538
 Red. masses --      1.1209                 2.1591                 2.2512
 Frc consts  --      0.0654                 0.1517                 0.1721
 IR Inten    --     36.2112                16.7776                18.7954

                     10                     11                     12
                      A                      A                      A
 Frequencies --    401.4021               433.4310               481.3601
 Red. masses --      1.4249                 2.9216                 2.6456
 Frc consts  --      0.1353                 0.3234                 0.3612
 IR Inten    --     50.6644                 8.2793                18.8874

                     13                     14                     15
                      A                      A                      A
 Frequencies --    522.0132               572.0827               717.1348
 Red. masses --      2.4747                 2.4242                 2.7429
 Frc consts  --      0.3973                 0.4675                 0.8311
 IR Inten    --     15.2238                17.2291                30.5478

                     16                     17                     18
                      A                      A                      A
 Frequencies --    854.0893               883.2681               893.2118
 Red. masses --      1.5363                 2.2784                 1.7908
 Frc consts  --      0.6603                 1.0473                 0.8418
 IR Inten    --    185.8465                12.2949               105.2017

                     19                     20                     21
                      A                      A                      A
 Frequencies --    940.6945               969.3436              1007.5610
 Red. masses --      1.4583                 2.2172                 1.3791
 Frc consts  --      0.7603                 1.2274                 0.8249
 IR Inten    --      1.0558                37.0875                 8.2556

                     22                     23                     24
                      A                      A                      A
 Frequencies --   1029.2780              1079.7670              1131.0162
 Red. masses --      1.4848                 1.8251                 2.2620
 Frc consts  --      0.9268                 1.2537                 1.7048
 IR Inten    --     40.8556                53.4252                14.3761

                     25                     26                     27
                      A                      A                      A
 Frequencies --   1149.5183              1214.0169              1261.1941
 Red. masses --      1.3611                 2.2827                 2.5001
 Frc consts  --      1.0596                 1.9822                 2.3430
 IR Inten    --     36.0063                63.2292                 5.3537

                     28                     29                     30
                      A                      A                      A
 Frequencies --   1291.5916              1356.1829              1399.9281
 Red. masses --      1.7140                 1.5136                 1.3035
 Frc consts  --      1.6847                 1.6402                 1.5052
 IR Inten    --      7.1476                30.6400                 4.4340

                     31                     32                     33
                      A                      A                      A
 Frequencies --   1417.1723              1426.0711              1432.4449
 Red. masses --      1.5009                 1.2409                 1.2776
 Frc consts  --      1.7760                 1.4868                 1.5446
 IR Inten    --     15.3254                18.2147                12.5577

                     34                     35                     36
                      A                      A                      A
 Frequencies --   1497.4800              1500.4179              1519.3787
 Red. masses --      1.0512                 1.0541                 1.0623
 Frc consts  --      1.3889                 1.3981                 1.4449
 IR Inten    --      0.8861                 0.9257                 5.5475

                     37                     38                     39
                      A                      A                      A
 Frequencies --   1522.2279              1650.4477              1675.2716
 Red. masses --      1.0557                 1.1024                 1.0924
 Frc consts  --      1.4413                 1.7693                 1.8064
 IR Inten    --      3.1478                20.4146                28.5337

                     40                     41                     42
                      A                      A                      A
 Frequencies --   3030.0049              3054.3864              3058.8435
 Red. masses --      1.0431                 1.0591                 1.0625
 Frc consts  --      5.6426                 5.8216                 5.8573
 IR Inten    --     29.8300                 8.9196                32.8139

                     43                     44                     45
                      A                      A                      A
 Frequencies --   3103.4520              3124.0633              3132.7776
 Red. masses --      1.0922                 1.1027                 1.1026
 Frc consts  --      6.1978                 6.3407                 6.3756
 IR Inten    --     26.6520                25.4297                18.8433

                     46                     47                     48
                      A                      A                      A
 Frequencies --   3156.9930              3470.6494              3484.9447
 Red. masses --      1.1017                 1.0482                 1.0498
 Frc consts  --      6.4695                 7.4393                 7.5120
 IR Inten    --     14.3530                 3.0187                 0.8354

                     49                     50                     51
                      A                      A                      A
 Frequencies --   3565.0892              3574.4743              3799.5132
 Red. masses --      1.0912                 1.0931                 1.0657
 Frc consts  --      8.1711                 8.2289                 9.0642
 IR Inten    --      0.3241                 0.4716                 3.7871

 - Thermochemistry -
 -------------------
 Temperature   298.150 Kelvin.  Pressure   1.00000 Atm.
 Atom     1 has atomic number  6 and mass  12.00000

 Molecular mass:   104.09496 amu.
 Principal axes and moments of inertia in atomic units:
                           1         2         3
     Eigenvalues --   572.12391 804.52154 953.63271
           X            0.99825  -0.05919   0.00167
           Y            0.05904   0.99713   0.04729
           Z           -0.00447  -0.04711   0.99888
 This molecule is an asymmetric top.
 Rotational symmetry number  1.
 Warning -- assumption of classical behavior for rotation
           may cause significant error
 Rotational temperatures (Kelvin)      0.15139     0.10766     0.09083
 Rotational constants (GHZ):           3.15446     2.24325     1.89249
 Zero-point vibrational energy     449405.2 (Joules/Mol)
                                  107.41043 (Kcal/Mol)
 Warning -- explicit consideration of  14 degrees of freedom as
           vibrations may cause significant error
 Vibrational temperatures:    135.74   284.17   336.03   364.37   390.98
          (Kelvin)            402.77   452.69   496.78   518.32   577.53
                              623.61   692.57   751.06   823.10  1031.80
                             1228.84  1270.82  1285.13  1353.45  1394.67
                             1449.65  1480.90  1553.54  1627.28  1653.90
                             1746.70  1814.57  1858.31  1951.24  2014.18
                             2038.99  2051.80  2060.97  2154.54  2158.76
                             2186.04  2190.14  2374.62  2410.34  4359.50
                             4394.58  4400.99  4465.17  4494.82  4507.36
                             4542.20  4993.48  5014.05  5129.36  5142.86
                             5466.65

 Zero-point correction=                           0.171169 (Hartree/Particle)
 Thermal correction to Energy=                    0.180144
 Thermal correction to Enthalpy=                  0.181088
 Thermal correction to Gibbs Free Energy=         0.138971
 Sum of electronic and zero-point Energies=           -344.215846
 Sum of electronic and thermal Energies=              -344.206871
 Sum of electronic and thermal Enthalpies=            -344.205927
 Sum of electronic and thermal Free Energies=         -344.248044

                     E (Thermal)             CV                S
                      KCal/Mol        Cal/Mol-Kelvin    Cal/Mol-Kelvin
 Total                  113.042             34.147             88.642
 Electronic               0.000              0.000              0.000
 Translational            0.889              2.981             39.838
 Rotational               0.889              2.981             27.575
 Vibrational            111.265             28.186             21.229
 Vibration     1          0.603              1.953              3.568
 Vibration     2          0.637              1.843              2.156
 Vibration     3          0.654              1.790              1.851
 Vibration     4          0.664              1.757              1.708
 Vibration     5          0.675              1.725              1.585
 Vibration     6          0.680              1.711              1.534
 Vibration     7          0.702              1.646              1.338
 Vibration     8          0.724              1.585              1.188
 Vibration     9          0.735              1.554              1.121
 Vibration    10          0.767              1.467              0.958
 Vibration    11          0.794              1.397              0.848
 Vibration    12          0.838              1.291              0.706
 Vibration    13          0.877              1.201              0.605
 Vibration    14          0.928              1.092              0.500

 Optimization completed.
    -- Stationary point found.
 Normal termination of Gaussian 09 at Thu Sep  8 15:24:14 2022.
