 Gaussian 09, Revision E.01,
 Gaussian 09:  ES64L-G09RevE.01 30-Nov-2015

 ----------------------------
 #P OPT Freq B3LYP/6-31G(d,p)
 ----------------------------

 --------
 Frag_600
 --------
 Symbolic Z-matrix:
 Charge =  0 Multiplicity = 1

 SCF Done:  E(RB3LYP) =  -322.529565750     A.U. after   15 cycles
 SCF Done:  E(RB3LYP) =  -322.529679368     A.U. after   11 cycles
 SCF Done:  E(RB3LYP) =  -322.529620609     A.U. after   12 cycles
 SCF Done:  E(RB3LYP) =  -322.529693369     A.U. after   11 cycles
 SCF Done:  E(RB3LYP) =  -322.529694289     A.U. after    8 cycles
 SCF Done:  E(RB3LYP) =  -322.529694314     A.U. after    8 cycles
 Optimization completed.
    -- Stationary point found.
 Normal termination of Gaussian 09 at Thu Sep  8 15:11:57 2022.

 ----------------------------------------------------------------------
 #P Geom=AllCheck Guess=TCheck SCRF=Check GenChk RB3LYP/6-31G(d,p) Freq
 ----------------------------------------------------------------------

 Structure from the checkpoint file:  "B3LYP6-31Gdp.Frag_600.chk"
 --------
 Frag_600
 --------
 Charge =  0 Multiplicity = 1

                         Standard orientation:
 ---------------------------------------------------------------------
 Center     Atomic      Atomic             Coordinates (Angstroms)
 Number     Number       Type             X           Y           Z
 ---------------------------------------------------------------------
      1          6           0        1.783287    0.782684   -0.000399
      2          6           0        0.690127   -0.244371    0.000198
      3          8           0        0.881043   -1.452241    0.000457
      4          6           0       -0.756400    0.224005    0.000109
      5          7           0       -1.033369    1.464412    0.000402
      6          8           0       -1.636972   -0.794429   -0.000462
      7          1           0        2.754247    0.287018   -0.000434
      8          1           0        1.682111    1.432084   -0.875095
      9          1           0        1.682477    1.432672    0.873901
     10          1           0       -2.047670    1.605742    0.000194
     11          1           0       -1.092225   -1.608940   -0.000791
 ---------------------------------------------------------------------

 SCF Done:  E(RB3LYP) =  -322.529694314     A.U. after    1 cycles

 The electronic state is 1-A.
 Alpha  occ. eigenvalues --  -19.19332 -19.17652 -14.32855 -10.30465 -10.29492
 Alpha  occ. eigenvalues --  -10.20217  -1.09847  -1.05814  -0.90533  -0.76505
 Alpha  occ. eigenvalues --   -0.66028  -0.58609  -0.52291  -0.50211  -0.46878
 Alpha  occ. eigenvalues --   -0.44828  -0.42595  -0.41603  -0.37753  -0.37406
 Alpha  occ. eigenvalues --   -0.31403  -0.28744  -0.27535
 Alpha virt. eigenvalues --   -0.07302   0.06608   0.09534   0.11372   0.12411
 Alpha virt. eigenvalues --    0.14753   0.16936   0.20578   0.27207   0.30494
 Alpha virt. eigenvalues --    0.32050   0.40108   0.50913   0.53291   0.56195

 Mulliken charges:
               1
     1  C   -0.375262
     2  C    0.416605
     3  O   -0.462395
     4  C    0.454361
     5  N   -0.551079
     6  O   -0.513425
     7  H    0.136237
     8  H    0.156594
     9  H    0.156614
    10  H    0.244078
    11  H    0.337672
 Sum of Mulliken charges =  -0.00000

 Dipole moment (field-independent basis, Debye):
    X=              0.4720    Y=              0.3515    Z=             -0.0018  Tot=              0.5885
 Quadrupole moment (field-independent basis, Debye-Ang):
   XX=            -32.9575   YY=            -37.5714   ZZ=            -33.8611
   XY=              2.1468   XZ=             -0.0006   YZ=              0.0011

  Exact polarizability:  47.683  -3.282  55.180   0.000   0.003  24.867
 Approx polarizability:  60.021  -8.434 101.193   0.002   0.006  36.256

                      1                      2                      3
                      A                      A                      A
 Frequencies --     82.6628               126.4006               271.7313
 Red. masses --      1.3783                 2.4985                 3.6592
 Frc consts  --      0.0055                 0.0235                 0.1592
 IR Inten    --      3.6278                 1.1856                21.4824

                      4                      5                      6
                      A                      A                      A
 Frequencies --    379.6789               403.8000               513.5461
 Red. masses --      3.2484                 4.4973                 4.0391
 Frc consts  --      0.2759                 0.4320                 0.6276
 IR Inten    --      0.0065                15.2372                14.8357

                      7                      8                      9
                      A                      A                      A
 Frequencies --    600.3461               660.3921               699.8783
 Red. masses --      4.6150                 1.7427                 1.4269
 Frc consts  --      0.9800                 0.4478                 0.4118
 IR Inten    --     11.5207                51.1220                79.3258

                     10                     11                     12
                      A                      A                      A
 Frequencies --    747.7078               914.8779               988.4115
 Red. masses --      3.5584                 1.3293                 1.9062
 Frc consts  --      1.1721                 0.6555                 1.0972
 IR Inten    --     21.4749                56.2565                12.0848

                     13                     14                     15
                      A                      A                      A
 Frequencies --   1047.9667              1119.2810              1208.9573
 Red. masses --      1.7871                 2.8016                 1.8562
 Frc consts  --      1.1563                 2.0679                 1.5985
 IR Inten    --     19.5056                32.6377                30.5671

                     16                     17                     18
                      A                      A                      A
 Frequencies --   1282.3978              1399.5709              1451.8490
 Red. masses --      1.4611                 1.3114                 2.5153
 Frc consts  --      1.4158                 1.5134                 3.1237
 IR Inten    --    178.7385               125.4755               229.0128

                     19                     20                     21
                      A                      A                      A
 Frequencies --   1468.2142              1472.0438              1769.3568
 Red. masses --      1.0930                 1.0475                 8.4213
 Frc consts  --      1.3881                 1.3374                15.5331
 IR Inten    --      6.6388                 8.4141                12.4106

                     22                     23                     24
                      A                      A                      A
 Frequencies --   1789.0352              3066.4391              3131.1925
 Red. masses --      9.4975                 1.0354                 1.0984
 Frc consts  --     17.9101                 5.7362                 6.3452
 IR Inten    --    190.9225                 0.0749                 1.0675

                     25                     26                     27
                      A                      A                      A
 Frequencies --   3176.4950              3471.2450              3604.2992
 Red. masses --      1.1060                 1.0743                 1.0640
 Frc consts  --      6.5750                 7.6271                 8.1436
 IR Inten    --      7.7902                 2.2225               116.9665

 - Thermochemistry -
 -------------------
 Temperature   298.150 Kelvin.  Pressure   1.00000 Atm.
 Atom     1 has atomic number  6 and mass  12.00000

 Molecular mass:    87.03203 amu.
 Principal axes and moments of inertia in atomic units:
                           1         2         3
     Eigenvalues --   332.19908 505.48577 826.67544
           X            0.99630   0.08600  -0.00002
           Y           -0.08600   0.99630   0.00000
           Z            0.00002   0.00000   1.00000
 This molecule is an asymmetric top.
 Rotational symmetry number  1.
 Rotational temperatures (Kelvin)      0.26073     0.17135     0.10477
 Rotational constants (GHZ):           5.43271     3.57031     2.18313
 Zero-point vibrational energy     220398.6 (Joules/Mol)
                                   52.67654 (Kcal/Mol)
 Warning -- explicit consideration of   7 degrees of freedom as
           vibrations may cause significant error
 Vibrational temperatures:    118.93   181.86   390.96   546.27   580.98
          (Kelvin)            738.88   863.76   950.16  1006.97  1075.78
                             1316.30  1422.10  1507.79  1610.39  1739.42
                             1845.08  2013.67  2088.88  2112.43  2117.94
                             2545.71  2574.02  4411.92  4505.08  4570.26
                             4994.34  5185.78

 Zero-point correction=                           0.083945 (Hartree/Particle)
 Thermal correction to Energy=                    0.090234
 Thermal correction to Enthalpy=                  0.091178
 Thermal correction to Gibbs Free Energy=         0.053819
 Sum of electronic and zero-point Energies=           -322.445749
 Sum of electronic and thermal Energies=              -322.439460
 Sum of electronic and thermal Enthalpies=            -322.438516
 Sum of electronic and thermal Free Energies=         -322.475875

                     E (Thermal)             CV                S
                      KCal/Mol        Cal/Mol-Kelvin    Cal/Mol-Kelvin
 Total                   56.623             21.512             78.628
 Electronic               0.000              0.000              0.000
 Translational            0.889              2.981             39.304
 Rotational               0.889              2.981             26.432
 Vibrational             54.845             15.550             12.892
 Vibration     1          0.600              1.961              3.827
 Vibration     2          0.611              1.927              3.000
 Vibration     3          0.675              1.725              1.585
 Vibration     4          0.750              1.513              1.040
 Vibration     5          0.769              1.462              0.949
 Vibration     6          0.869              1.220              0.625
 Vibration     7          0.958              1.031              0.449

 Optimization completed.
    -- Stationary point found.
 Normal termination of Gaussian 09 at Thu Sep  8 15:12:05 2022.
