 Gaussian 09, Revision E.01,
 Gaussian 09:  ES64L-G09RevE.01 30-Nov-2015

 ----------------------------
 #P OPT Freq B3LYP/6-31G(d,p)
 ----------------------------

 ---------
 Frag_1129
 ---------
 Symbolic Z-matrix:
 Charge =  0 Multiplicity = 1

 SCF Done:  E(RB3LYP) =  -303.790899753     A.U. after   15 cycles
 SCF Done:  E(RB3LYP) =  -303.790969855     A.U. after   12 cycles
 SCF Done:  E(RB3LYP) =  -303.790966183     A.U. after   12 cycles
 SCF Done:  E(RB3LYP) =  -303.790990780     A.U. after   10 cycles
 SCF Done:  E(RB3LYP) =  -303.790991062     A.U. after    8 cycles
 SCF Done:  E(RB3LYP) =  -303.790991179     A.U. after    8 cycles
 SCF Done:  E(RB3LYP) =  -303.790991039     A.U. after    8 cycles
 SCF Done:  E(RB3LYP) =  -303.790990953     A.U. after    8 cycles
 Optimization completed.
    -- Stationary point found.
 Normal termination of Gaussian 09 at Thu Sep  8 14:52:01 2022.

 ----------------------------------------------------------------------
 #P Geom=AllCheck Guess=TCheck SCRF=Check GenChk RB3LYP/6-31G(d,p) Freq
 ----------------------------------------------------------------------

 Structure from the checkpoint file:  "B3LYP6-31Gdp.Frag_1129.chk"
 ---------
 Frag_1129
 ---------
 Charge =  0 Multiplicity = 1

                         Standard orientation:
 ---------------------------------------------------------------------
 Center     Atomic      Atomic             Coordinates (Angstroms)
 Number     Number       Type             X           Y           Z
 ---------------------------------------------------------------------
      1          6           0        1.818048    0.410727   -0.645136
      2          7           0        0.801789   -0.036602    0.036828
      3          8           0        0.871129   -0.641662    1.153678
      4          6           0       -0.603879    0.167845   -0.475576
      5          6           0       -1.311874    1.143374    0.468449
      6          7           0       -1.177780   -1.162918   -0.569504
      7          1           0        1.645959    0.897444   -1.593086
      8          1           0        2.805754    0.262598   -0.232175
      9          1           0       -0.522151    0.598219   -1.478765
     10          1           0       -2.352016    1.269410    0.152186
     11          1           0       -0.831085    2.127201    0.461659
     12          1           0       -1.290103    0.746033    1.485663
     13          1           0       -2.181133   -1.089507   -0.715672
     14          1           0       -1.026097   -1.613141    0.333079
 ---------------------------------------------------------------------

 SCF Done:  E(RB3LYP) =  -303.790990953     A.U. after    1 cycles

 The electronic state is 1-A.
 Alpha  occ. eigenvalues --  -19.12144 -14.47352 -14.32051 -10.26470 -10.22209
 Alpha  occ. eigenvalues --  -10.18876  -1.10269  -0.90394  -0.84893  -0.74944
 Alpha  occ. eigenvalues --   -0.66650  -0.57724  -0.53579  -0.49331  -0.48002
 Alpha  occ. eigenvalues --   -0.45152  -0.43976  -0.41541  -0.39922  -0.38407
 Alpha  occ. eigenvalues --   -0.37135  -0.25499  -0.24063  -0.22368
 Alpha virt. eigenvalues --   -0.02008   0.07804   0.09968   0.12761   0.13944
 Alpha virt. eigenvalues --    0.15118   0.15614   0.16929   0.18618   0.19101
 Alpha virt. eigenvalues --    0.22313   0.26646   0.28097   0.31236   0.49478

 Mulliken charges:
               1
     1  C   -0.095075
     2  N    0.127079
     3  O   -0.501009
     4  C    0.144269
     5  C   -0.313826
     6  N   -0.584250
     7  H    0.118468
     8  H    0.136011
     9  H    0.104710
    10  H    0.105518
    11  H    0.110828
    12  H    0.141853
    13  H    0.241381
    14  H    0.264043
 Sum of Mulliken charges =  -0.00000

 Dipole moment (field-independent basis, Debye):
    X=             -1.4922    Y=              2.1767    Z=             -1.7013  Tot=              3.1399
 Quadrupole moment (field-independent basis, Debye-Ang):
   XX=            -30.9389   YY=            -38.3309   ZZ=            -39.2936
   XY=              2.1826   XZ=             -2.9207   YZ=             -1.7699

  Exact polarizability:  60.550   4.843  44.212  -4.995  -7.731  48.922
 Approx polarizability:  81.042  12.454  67.083 -14.133 -24.201  89.185

                      1                      2                      3
                      A                      A                      A
 Frequencies --     83.5932               239.3748               242.5250
 Red. masses --      3.6669                 1.1382                 1.0637
 Frc consts  --      0.0151                 0.0384                 0.0369
 IR Inten    --      9.0174                56.0422                 0.9320

                      4                      5                      6
                      A                      A                      A
 Frequencies --    282.4360               337.3681               367.8608
 Red. masses --      2.4888                 4.1836                 2.6661
 Frc consts  --      0.1170                 0.2805                 0.2126
 IR Inten    --     18.0464                 1.8897                 2.0901

                      7                      8                      9
                      A                      A                      A
 Frequencies --    511.0328               627.2818               647.9705
 Red. masses --      2.6155                 2.1228                 1.9801
 Frc consts  --      0.4024                 0.4921                 0.4898
 IR Inten    --     13.5004                 4.1231                10.9052

                     10                     11                     12
                      A                      A                      A
 Frequencies --    713.9807               763.8541               800.2976
 Red. masses --      1.6315                 2.7034                 1.6140
 Frc consts  --      0.4900                 0.9294                 0.6091
 IR Inten    --     10.5193                 0.7480                45.8823

                     13                     14                     15
                      A                      A                      A
 Frequencies --    891.3642               941.0966              1028.8240
 Red. masses --      2.0188                 1.2592                 1.5184
 Frc consts  --      0.9450                 0.6571                 0.9470
 IR Inten    --     94.5547                77.8829                14.5978

                     16                     17                     18
                      A                      A                      A
 Frequencies --   1101.9164              1119.0341              1161.5046
 Red. masses --      2.0039                 2.7964                 1.4011
 Frc consts  --      1.4336                 2.0632                 1.1137
 IR Inten    --     38.9267                43.3534                 5.4475

                     19                     20                     21
                      A                      A                      A
 Frequencies --   1253.6137              1349.2527              1358.7942
 Red. masses --      1.8468                 2.5286                 1.3159
 Frc consts  --      1.7100                 2.7121                 1.4315
 IR Inten    --     27.2795                39.6895                12.3786

                     22                     23                     24
                      A                      A                      A
 Frequencies --   1397.8501              1413.1340              1484.2974
 Red. masses --      1.3105                 1.2831                 1.3441
 Frc consts  --      1.5087                 1.5096                 1.7447
 IR Inten    --     29.7683                10.7566                 9.5729

                     25                     26                     27
                      A                      A                      A
 Frequencies --   1497.5453              1516.4073              1632.0766
 Red. masses --      1.0584                 1.0634                 1.3003
 Frc consts  --      1.3984                 1.4406                 2.0407
 IR Inten    --      2.1795                 3.5641               122.7248

                     28                     29                     30
                      A                      A                      A
 Frequencies --   1671.0888              3050.1677              3076.4682
 Red. masses --      3.3341                 1.0361                 1.0863
 Frc consts  --      5.4857                 5.6794                 6.0575
 IR Inten    --     45.8499                15.1583                23.2677

                     31                     32                     33
                      A                      A                      A
 Frequencies --   3121.0788              3152.4142              3203.4206
 Red. masses --      1.1027                 1.1024                 1.0517
 Frc consts  --      6.3287                 6.4549                 6.3590
 IR Inten    --     24.1543                 9.5247                 1.2065

                     34                     35                     36
                      A                      A                      A
 Frequencies --   3330.7666              3481.1252              3579.9691
 Red. masses --      1.1254                 1.0502                 1.0910
 Frc consts  --      7.3562                 7.4986                 8.2381
 IR Inten    --      0.6579                 8.3129                 5.7137

 - Thermochemistry -
 -------------------
 Temperature   298.150 Kelvin.  Pressure   1.00000 Atm.
 Atom     1 has atomic number  6 and mass  12.00000

 Molecular mass:    88.06366 amu.
 Principal axes and moments of inertia in atomic units:
                           1         2         3
     Eigenvalues --   354.18484 621.05299 661.71466
           X            0.99900   0.00138  -0.04463
           Y           -0.00105   0.99997   0.00736
           Z            0.04464  -0.00731   0.99898
 This molecule is an asymmetric top.
 Rotational symmetry number  1.
 Rotational temperatures (Kelvin)      0.24454     0.13946     0.13089
 Rotational constants (GHZ):           5.09548     2.90594     2.72737
 Zero-point vibrational energy     313605.7 (Joules/Mol)
                                   74.95357 (Kcal/Mol)
 Warning -- explicit consideration of   7 degrees of freedom as
           vibrations may cause significant error
 Vibrational temperatures:    120.27   344.41   348.94   406.36   485.40
          (Kelvin)            529.27   735.26   902.52   932.28  1027.26
                             1099.01  1151.45  1282.47  1354.03  1480.25
                             1585.41  1610.04  1671.14  1803.67  1941.27
                             1955.00  2011.19  2033.18  2135.57  2154.63
                             2181.77  2348.19  2404.32  4388.51  4426.35
                             4490.53  4535.62  4609.00  4792.22  5008.56
                             5150.77

 Zero-point correction=                           0.119446 (Hartree/Particle)
 Thermal correction to Energy=                    0.126244
 Thermal correction to Enthalpy=                  0.127188
 Thermal correction to Gibbs Free Energy=         0.089241
 Sum of electronic and zero-point Energies=           -303.671545
 Sum of electronic and thermal Energies=              -303.664747
 Sum of electronic and thermal Enthalpies=            -303.663803
 Sum of electronic and thermal Free Energies=         -303.701750

                     E (Thermal)             CV                S
                      KCal/Mol        Cal/Mol-Kelvin    Cal/Mol-Kelvin
 Total                   79.219             24.640             79.867
 Electronic               0.000              0.000              0.000
 Translational            0.889              2.981             39.339
 Rotational               0.889              2.981             26.479
 Vibrational             77.442             18.678             14.049
 Vibration     1          0.600              1.960              3.805
 Vibration     2          0.657              1.780              1.808
 Vibration     3          0.659              1.775              1.784
 Vibration     4          0.681              1.706              1.519
 Vibration     5          0.718              1.601              1.225
 Vibration     6          0.740              1.538              1.089
 Vibration     7          0.866              1.226              0.631

 Optimization completed.
    -- Stationary point found.
 Normal termination of Gaussian 09 at Thu Sep  8 14:52:13 2022.
