 Gaussian 09, Revision E.01,
 Gaussian 09:  ES64L-G09RevE.01 30-Nov-2015

 ----------------------------
 #P OPT Freq B3LYP/6-31G(d,p)
 ----------------------------

 ---------
 Frag_1025
 ---------
 Symbolic Z-matrix:
 Charge =  0 Multiplicity = 1

 SCF Done:  E(RB3LYP) =  -285.539779210     A.U. after   13 cycles
 SCF Done:  E(RB3LYP) =  -285.539880439     A.U. after   11 cycles
 SCF Done:  E(RB3LYP) =  -285.539906344     A.U. after    9 cycles
 SCF Done:  E(RB3LYP) =  -285.539911058     A.U. after    9 cycles
 SCF Done:  E(RB3LYP) =  -285.539911727     A.U. after    8 cycles
 Optimization completed.
    -- Stationary point found.
 Normal termination of Gaussian 09 at Thu Sep  8 14:52:36 2022.

 ----------------------------------------------------------------------
 #P Geom=AllCheck Guess=TCheck SCRF=Check GenChk RB3LYP/6-31G(d,p) Freq
 ----------------------------------------------------------------------

 Structure from the checkpoint file:  "B3LYP6-31Gdp.Frag_1025.chk"
 ---------
 Frag_1025
 ---------
 Charge =  0 Multiplicity = 1

                         Standard orientation:
 ---------------------------------------------------------------------
 Center     Atomic      Atomic             Coordinates (Angstroms)
 Number     Number       Type             X           Y           Z
 ---------------------------------------------------------------------
      1          6           0        1.709744   -0.656731   -0.028850
      2          6           0        0.418344    0.061307    0.338581
      3          7           0        0.441624    1.441168   -0.056779
      4          8           0       -0.613898   -0.736800   -0.291390
      5          8           0       -1.888559   -0.196194    0.172448
      6          1           0        1.674331   -1.700464    0.290496
      7          1           0        1.865934   -0.633125   -1.112647
      8          1           0        2.551846   -0.157910    0.455114
      9          1           0        0.241197    0.023762    1.419936
     10          1           0       -0.444287    1.876551    0.184274
     11          1           0        0.563641    1.517439   -1.064573
     12          1           0       -2.292906    0.022060   -0.681999
 ---------------------------------------------------------------------

 SCF Done:  E(RB3LYP) =  -285.539911727     A.U. after    1 cycles

 The electronic state is 1-A.
 Alpha  occ. eigenvalues --  -19.19879 -19.19367 -14.31862 -10.25998 -10.18136
 Alpha  occ. eigenvalues --   -1.10599  -0.92523  -0.86108  -0.72773  -0.59968
 Alpha  occ. eigenvalues --   -0.53228  -0.49554  -0.47302  -0.45059  -0.40908
 Alpha  occ. eigenvalues --   -0.38880  -0.37251  -0.35829  -0.30711  -0.27348
 Alpha  occ. eigenvalues --   -0.24299
 Alpha virt. eigenvalues --    0.02693   0.07562   0.10661   0.13268   0.13938
 Alpha virt. eigenvalues --    0.16831   0.18036   0.18227   0.21061   0.24861
 Alpha virt. eigenvalues --    0.28230   0.53193   0.53511   0.56752   0.58082

 Mulliken charges:
               1
     1  C   -0.330425
     2  C    0.279195
     3  N   -0.578635
     4  O   -0.315258
     5  O   -0.335932
     6  H    0.125692
     7  H    0.109909
     8  H    0.128753
     9  H    0.108271
    10  H    0.246887
    11  H    0.232615
    12  H    0.328928
 Sum of Mulliken charges =  -0.00000

 Dipole moment (field-independent basis, Debye):
    X=             -0.2702    Y=              0.8736    Z=             -1.4558  Tot=              1.7192
 Quadrupole moment (field-independent basis, Debye-Ang):
   XX=            -28.4035   YY=            -32.3315   ZZ=            -28.5818
   XY=             -4.4407   XZ=              2.5077   YZ=             -1.9378

  Exact polarizability:  45.917  -3.005  35.646  -0.175  -0.997  33.972
 Approx polarizability:  59.289  -3.760  48.262  -2.308   0.226  48.475

                      1                      2                      3
                      A                      A                      A
 Frequencies --    148.4084               203.6235               206.7345
 Red. masses --      4.4976                 1.1185                 1.0832
 Frc consts  --      0.0584                 0.0273                 0.0273
 IR Inten    --      4.9619                97.4221                41.9636

                      4                      5                      6
                      A                      A                      A
 Frequencies --    280.3405               358.7049               400.9261
 Red. masses --      3.3359                 1.6923                 1.4303
 Frc consts  --      0.1545                 0.1283                 0.1355
 IR Inten    --      0.5466                22.0000                25.3027

                      7                      8                      9
                      A                      A                      A
 Frequencies --    520.1780               533.1278               827.7188
 Red. masses --      2.6021                 3.2377                 2.7106
 Frc consts  --      0.4148                 0.5422                 1.0942
 IR Inten    --     23.0944                33.3482                 7.4816

                     10                     11                     12
                      A                      A                      A
 Frequencies --    855.2971               914.4441               947.7875
 Red. masses --      1.6805                 2.2200                11.3468
 Frc consts  --      0.7243                 1.0937                 6.0055
 IR Inten    --    201.3781                 9.5280                 3.4416

                     13                     14                     15
                      A                      A                      A
 Frequencies --   1019.8520              1105.8037              1184.2777
 Red. masses --      1.3045                 1.8857                 2.0151
 Frc consts  --      0.7994                 1.3586                 1.6651
 IR Inten    --      3.3641                75.5009                32.4853

                     16                     17                     18
                      A                      A                      A
 Frequencies --   1281.6530              1335.6511              1382.9902
 Red. masses --      1.7164                 1.1667                 1.2006
 Frc consts  --      1.6611                 1.2263                 1.3530
 IR Inten    --     14.5769                69.6564                 7.5232

                     19                     20                     21
                      A                      A                      A
 Frequencies --   1413.3056              1453.7103              1499.0677
 Red. masses --      1.2062                 1.5225                 1.0492
 Frc consts  --      1.4196                 1.8957                 1.3891
 IR Inten    --      4.2092                14.9273                 3.7190

                     22                     23                     24
                      A                      A                      A
 Frequencies --   1507.7937              1673.4523              3057.8372
 Red. masses --      1.0464                 1.1000                 1.0466
 Frc consts  --      1.4017                 1.8150                 5.7659
 IR Inten    --      1.6117                26.5837                 7.5138

                     25                     26                     27
                      A                      A                      A
 Frequencies --   3065.2535              3134.9213              3158.2747
 Red. masses --      1.0768                 1.0988                 1.1042
 Frc consts  --      5.9610                 6.3623                 6.4893
 IR Inten    --     32.7869                24.4509                12.4528

                     28                     29                     30
                      A                      A                      A
 Frequencies --   3494.8247              3591.2867              3772.7570
 Red. masses --      1.0492                 1.0922                 1.0685
 Frc consts  --      7.5500                 8.2997                 8.9607
 IR Inten    --      0.5498                 1.3281                28.2551

 - Thermochemistry -
 -------------------
 Temperature   298.150 Kelvin.  Pressure   1.00000 Atm.
 Atom     1 has atomic number  6 and mass  12.00000

 Molecular mass:    77.04768 amu.
 Principal axes and moments of inertia in atomic units:
                           1         2         3
     Eigenvalues --   217.85419 465.18907 622.72505
           X            0.99799  -0.06289   0.00773
           Y            0.06306   0.99768  -0.02574
           Z           -0.00609   0.02618   0.99964
 This molecule is an asymmetric top.
 Rotational symmetry number  1.
 Rotational temperatures (Kelvin)      0.39758     0.18619     0.13909
 Rotational constants (GHZ):           8.28417     3.87959     2.89813
 Zero-point vibrational energy     265152.3 (Joules/Mol)
                                   63.37292 (Kcal/Mol)
 Warning -- explicit consideration of   8 degrees of freedom as
           vibrations may cause significant error
 Vibrational temperatures:    213.53   292.97   297.44   403.35   516.10
          (Kelvin)            576.84   748.42   767.05  1190.90  1230.58
                             1315.68  1363.65  1467.34  1591.00  1703.91
                             1844.01  1921.70  1989.81  2033.43  2091.56
                             2156.82  2169.38  2407.72  4399.54  4410.21
                             4510.45  4544.05  5028.27  5167.05  5428.15

 Zero-point correction=                           0.100991 (Hartree/Particle)
 Thermal correction to Energy=                    0.107453
 Thermal correction to Enthalpy=                  0.108397
 Thermal correction to Gibbs Free Energy=         0.071723
 Sum of electronic and zero-point Energies=           -285.438921
 Sum of electronic and thermal Energies=              -285.432459
 Sum of electronic and thermal Enthalpies=            -285.431515
 Sum of electronic and thermal Free Energies=         -285.468188

                     E (Thermal)             CV                S
                      KCal/Mol        Cal/Mol-Kelvin    Cal/Mol-Kelvin
 Total                   67.428             22.363             77.186
 Electronic               0.000              0.000              0.000
 Translational            0.889              2.981             38.941
 Rotational               0.889              2.981             25.648
 Vibrational             65.650             16.401             12.597
 Vibration     1          0.618              1.904              2.693
 Vibration     2          0.639              1.835              2.100
 Vibration     3          0.641              1.830              2.072
 Vibration     4          0.680              1.710              1.532
 Vibration     5          0.734              1.557              1.128
 Vibration     6          0.767              1.468              0.959
 Vibration     7          0.875              1.205              0.610
 Vibration     8          0.888              1.177              0.580

 Normal termination of Gaussian 09 at Thu Sep  8 14:52:45 2022.
