 Gaussian 09, Revision E.01,
 Gaussian 09:  ES64L-G09RevE.01 30-Nov-2015

 ----------------------------
 #P OPT Freq B3LYP/6-31G(d,p)
 ----------------------------

 --------
 Frag_661
 --------
 Symbolic Z-matrix:
 Charge =  0 Multiplicity = 1

 SCF Done:  E(RB3LYP) =  -305.015747561     A.U. after   13 cycles
 SCF Done:  E(RB3LYP) =  -305.015797577     A.U. after   11 cycles
 SCF Done:  E(RB3LYP) =  -305.015802499     A.U. after    9 cycles
 SCF Done:  E(RB3LYP) =  -305.015807656     A.U. after    8 cycles
 SCF Done:  E(RB3LYP) =  -305.015808072     A.U. after    7 cycles
 Optimization completed.
    -- Stationary point found.
 Normal termination of Gaussian 09 at Thu Sep  8 15:09:00 2022.

 ----------------------------------------------------------------------
 #P Geom=AllCheck Guess=TCheck SCRF=Check GenChk RB3LYP/6-31G(d,p) Freq
 ----------------------------------------------------------------------

 Structure from the checkpoint file:  "B3LYP6-31Gdp.Frag_661.chk"
 --------
 Frag_661
 --------
 Charge =  0 Multiplicity = 1

                         Standard orientation:
 ---------------------------------------------------------------------
 Center     Atomic      Atomic             Coordinates (Angstroms)
 Number     Number       Type             X           Y           Z
 ---------------------------------------------------------------------
      1          6           0       -1.474927    1.223638   -0.006374
      2          6           0       -0.668776   -0.034963    0.314010
      3          7           0       -1.438133   -1.210996   -0.042377
      4          7           0        0.643946   -0.008034   -0.379246
      5          6           0        1.502766    1.112874   -0.019013
      6          8           0        1.341052   -1.207690   -0.012282
      7          1           0       -2.483134    1.102274    0.394953
      8          1           0       -1.036881    2.124498    0.429149
      9          1           0       -1.545016    1.361252   -1.090933
     10          1           0       -0.487480   -0.081335    1.407580
     11          1           0       -0.837776   -2.024479    0.076175
     12          1           0       -1.641029   -1.167726   -1.040893
     13          1           0        1.074157    2.043947   -0.395213
     14          1           0        2.476080    0.962739   -0.489453
     15          1           0        1.649370    1.209324    1.075049
     16          1           0        1.508224   -1.145063    0.951462
 ---------------------------------------------------------------------

 SCF Done:  E(RB3LYP) =  -305.015808072     A.U. after    1 cycles

 The electronic state is 1-A.
 Alpha  occ. eigenvalues --  -19.17465 -14.37490 -14.30678 -10.24160 -10.21089
 Alpha  occ. eigenvalues --  -10.18072  -1.06275  -0.89538  -0.82957  -0.72769
 Alpha  occ. eigenvalues --   -0.67257  -0.59327  -0.51786  -0.49265  -0.48055
 Alpha  occ. eigenvalues --   -0.44892  -0.43258  -0.39999  -0.39263  -0.38049
 Alpha  occ. eigenvalues --   -0.36624  -0.34385  -0.29045  -0.24551  -0.23650
 Alpha virt. eigenvalues --    0.06208   0.09336   0.10236   0.12781   0.14844
 Alpha virt. eigenvalues --    0.15312   0.16369   0.16519   0.18135   0.18913
 Alpha virt. eigenvalues --    0.19620   0.21003   0.25159   0.25957   0.28472

 Mulliken charges:
               1
     1  C   -0.334279
     2  C    0.184763
     3  N   -0.579763
     4  N   -0.182165
     5  C   -0.167587
     6  O   -0.432705
     7  H    0.130463
     8  H    0.106816
     9  H    0.115852
    10  H    0.062641
    11  H    0.247408
    12  H    0.236472
    13  H    0.120884
    14  H    0.132352
    15  H    0.071900
    16  H    0.286947
 Sum of Mulliken charges =  -0.00000

 Dipole moment (field-independent basis, Debye):
    X=              0.6869    Y=              1.4433    Z=              1.0458  Tot=              1.9101
 Quadrupole moment (field-independent basis, Debye-Ang):
   XX=            -40.3365   YY=            -37.1646   ZZ=            -37.1812
   XY=             -0.0388   XZ=              4.3753   YZ=             -0.8157

  Exact polarizability:  56.010   0.041  55.571   2.910  -0.832  46.644
 Approx polarizability:  71.028  -1.695  75.592   3.971  -1.187  70.449

                      1                      2                      3
                      A                      A                      A
 Frequencies --    114.5165               208.9492               242.3694
 Red. masses --      3.0993                 1.0984                 1.5124
 Frc consts  --      0.0239                 0.0283                 0.0523
 IR Inten    --      1.8422                 0.2131                 2.9647

                      4                      5                      6
                      A                      A                      A
 Frequencies --    299.4851               317.4103               364.2302
 Red. masses --      1.5323                 1.2778                 2.1634
 Frc consts  --      0.0810                 0.0759                 0.1691
 IR Inten    --     17.3324                36.9477                 4.9359

                      7                      8                      9
                      A                      A                      A
 Frequencies --    394.2504               442.0293               466.1856
 Red. masses --      2.4121                 2.2814                 1.2905
 Frc consts  --      0.2209                 0.2626                 0.1652
 IR Inten    --      7.6990                 3.2564                83.8806

                     10                     11                     12
                      A                      A                      A
 Frequencies --    523.9892               562.5468               769.5690
 Red. masses --      3.0825                 2.5284                 2.9986
 Frc consts  --      0.4986                 0.4714                 1.0463
 IR Inten    --     17.0839                 4.8393                30.4923

                     13                     14                     15
                      A                      A                      A
 Frequencies --    905.7766               923.2059               955.2247
 Red. masses --      3.0631                 1.8124                 1.8049
 Frc consts  --      1.4807                 0.9101                 0.9703
 IR Inten    --     10.4799               172.3542                26.2418

                     16                     17                     18
                      A                      A                      A
 Frequencies --   1023.1356              1082.6755              1117.0992
 Red. masses --      1.4043                 1.9592                 2.2875
 Frc consts  --      0.8661                 1.3531                 1.6818
 IR Inten    --      2.0958                34.6868                35.0678

                     19                     20                     21
                      A                      A                      A
 Frequencies --   1151.5848              1201.5479              1226.7967
 Red. masses --      1.4755                 1.8684                 2.4960
 Frc consts  --      1.1529                 1.5893                 2.2133
 IR Inten    --      9.8842                 5.3605                25.8063

                     22                     23                     24
                      A                      A                      A
 Frequencies --   1293.2542              1352.3649              1402.8514
 Red. masses --      1.7363                 1.1635                 1.2352
 Frc consts  --      1.7109                 1.2538                 1.4322
 IR Inten    --     11.2202                23.6535                 2.9258

                     25                     26                     27
                      A                      A                      A
 Frequencies --   1416.7631              1439.0767              1452.7810
 Red. masses --      1.1974                 1.5034                 1.2030
 Frc consts  --      1.4161                 1.8344                 1.4960
 IR Inten    --     47.7864                18.4856                10.8945

                     28                     29                     30
                      A                      A                      A
 Frequencies --   1497.8470              1509.6972              1512.3059
 Red. masses --      1.0555                 1.0607                 1.0470
 Frc consts  --      1.3952                 1.4244                 1.4108
 IR Inten    --     13.5695                 6.5845                 4.2762

                     31                     32                     33
                      A                      A                      A
 Frequencies --   1513.4699              1687.3189              2906.0936
 Red. masses --      1.0490                 1.0907                 1.0813
 Frc consts  --      1.4158                 1.8295                 5.3803
 IR Inten    --      9.0814                29.1468                46.5597

                     34                     35                     36
                      A                      A                      A
 Frequencies --   2928.2489              3056.2277              3107.3435
 Red. masses --      1.0617                 1.0380                 1.0709
 Frc consts  --      5.3639                 5.7124                 6.0921
 IR Inten    --    100.2814                12.1866                23.2292

                     37                     38                     39
                      A                      A                      A
 Frequencies --   3131.3815              3149.3948              3156.5329
 Red. masses --      1.0998                 1.1031                 1.1040
 Frc consts  --      6.3536                 6.4465                 6.4810
 IR Inten    --     20.3733                21.7970                10.7981

                     40                     41                     42
                      A                      A                      A
 Frequencies --   3479.1322              3563.2117              3566.6207
 Red. masses --      1.0508                 1.0885                 1.0677
 Frc consts  --      7.4937                 8.1425                 8.0024
 IR Inten    --      1.1194                 1.1679                 7.5043

 - Thermochemistry -
 -------------------
 Temperature   298.150 Kelvin.  Pressure   1.00000 Atm.
 Atom     1 has atomic number  6 and mass  12.00000

 Molecular mass:    90.07931 amu.
 Principal axes and moments of inertia in atomic units:
                           1         2         3
     Eigenvalues --   385.04221 564.89806 876.60357
           X            0.99943   0.02727   0.01996
           Y           -0.02724   0.99963  -0.00191
           Z           -0.02001   0.00137   0.99980
 This molecule is an asymmetric top.
 Rotational symmetry number  1.
 Rotational temperatures (Kelvin)      0.22495     0.15333     0.09881
 Rotational constants (GHZ):           4.68713     3.19481     2.05879
 Zero-point vibrational energy     373321.6 (Joules/Mol)
                                   89.22600 (Kcal/Mol)
 Warning -- explicit consideration of  11 degrees of freedom as
           vibrations may cause significant error
 Vibrational temperatures:    164.76   300.63   348.72   430.89   456.68
          (Kelvin)            524.05   567.24   635.98   670.74   753.90
                              809.38  1107.24  1303.21  1328.29  1374.35
                             1472.06  1557.73  1607.25  1656.87  1728.76
                             1765.08  1860.70  1945.75  2018.39  2038.40
                             2070.51  2090.23  2155.07  2172.11  2175.87
                             2177.54  2427.67  4181.22  4213.09  4397.22
                             4470.77  4505.35  4531.27  4541.54  5005.69
                             5126.66  5131.57

 Zero-point correction=                           0.142191 (Hartree/Particle)
 Thermal correction to Energy=                    0.149603
 Thermal correction to Enthalpy=                  0.150547
 Thermal correction to Gibbs Free Energy=         0.111674
 Sum of electronic and zero-point Energies=           -304.873617
 Sum of electronic and thermal Energies=              -304.866205
 Sum of electronic and thermal Enthalpies=            -304.865261
 Sum of electronic and thermal Free Energies=         -304.904134

                     E (Thermal)             CV                S
                      KCal/Mol        Cal/Mol-Kelvin    Cal/Mol-Kelvin
 Total                   93.877             27.486             81.815
 Electronic               0.000              0.000              0.000
 Translational            0.889              2.981             39.407
 Rotational               0.889              2.981             26.747
 Vibrational             92.100             21.524             15.662
 Vibration     1          0.607              1.937              3.191
 Vibration     2          0.642              1.827              2.053
 Vibration     3          0.659              1.775              1.785
 Vibration     4          0.692              1.675              1.420
 Vibration     5          0.704              1.640              1.323
 Vibration     6          0.738              1.546              1.104
 Vibration     7          0.761              1.482              0.984
 Vibration     8          0.802              1.378              0.820
 Vibration     9          0.824              1.325              0.748
 Vibration    10          0.879              1.197              0.601
 Vibration    11          0.918              1.112              0.519

 Optimization completed.
    -- Stationary point found.
 Normal termination of Gaussian 09 at Thu Sep  8 15:09:14 2022.
