 Gaussian 09, Revision E.01,
 Gaussian 09:  ES64L-G09RevE.01 30-Nov-2015

 --------------------------------
 #P OPT=calcfc Freq B3LYP/6-31G**
 --------------------------------

 --------
 Frag_303
 --------
 Symbolic Z-matrix:
 Charge =  0 Multiplicity = 1

 SCF Done:  E(RB3LYP) =  -267.934718274     A.U. after   14 cycles
 SCF Done:  E(RB3LYP) =  -267.947697092     A.U. after   13 cycles
 SCF Done:  E(RB3LYP) =  -267.948227396     A.U. after   12 cycles
 SCF Done:  E(RB3LYP) =  -267.947833334     A.U. after   13 cycles
 SCF Done:  E(RB3LYP) =  -267.948494939     A.U. after    9 cycles
 SCF Done:  E(RB3LYP) =  -267.945727437     A.U. after   12 cycles
 SCF Done:  E(RB3LYP) =  -267.948756931     A.U. after   10 cycles
 SCF Done:  E(RB3LYP) =  -267.948988253     A.U. after   12 cycles
 SCF Done:  E(RB3LYP) =  -267.949191612     A.U. after   11 cycles
 SCF Done:  E(RB3LYP) =  -267.949242279     A.U. after   11 cycles
 SCF Done:  E(RB3LYP) =  -267.949246677     A.U. after   10 cycles
 SCF Done:  E(RB3LYP) =  -267.949247489     A.U. after    8 cycles
 SCF Done:  E(RB3LYP) =  -267.949247791     A.U. after    7 cycles
 SCF Done:  E(RB3LYP) =  -267.949247853     A.U. after    7 cycles
 SCF Done:  E(RB3LYP) =  -267.949247859     A.U. after    7 cycles
 Optimization completed.
    -- Stationary point found.
 Normal termination of Gaussian 09 at Fri Sep 10 20:39:44 2021.

 ----------------------------------------------------------------------
 #P Geom=AllCheck Guess=TCheck SCRF=Check GenChk RB3LYP/6-31G(d,p) Freq
 ----------------------------------------------------------------------

 Structure from the checkpoint file:  "/public/home/users/caep010/.cache/gau_scr/Gau-162997.chk"
 --------
 Frag_303
 --------
 Charge =  0 Multiplicity = 1

                         Standard orientation:
 ---------------------------------------------------------------------
 Center     Atomic      Atomic             Coordinates (Angstroms)
 Number     Number       Type             X           Y           Z
 ---------------------------------------------------------------------
      1          6           0       -1.766504    0.824351   -0.088142
      2          6           0       -0.727365   -0.274984   -0.011612
      3          7           0       -1.157428   -1.475981    0.147560
      4          7           0        0.604885    0.108220   -0.175827
      5          6           0        1.629617   -0.917884   -0.074961
      6          6           0        1.049672    1.458736    0.144428
      7          1           0       -2.746239    0.348825   -0.094950
      8          1           0       -1.653368    1.429949   -0.993639
      9          1           0       -1.714152    1.498122    0.774317
     10          1           0       -0.394772   -2.150304    0.224631
     11          1           0        1.396324   -1.754410   -0.740521
     12          1           0        1.749913   -1.311944    0.946871
     13          1           0        2.586521   -0.497229   -0.392362
     14          1           0        1.971887    1.676121   -0.403315
     15          1           0        0.305787    2.194110   -0.159622
     16          1           0        1.253375    1.599777    1.218184
 ---------------------------------------------------------------------

 SCF Done:  E(RB3LYP) =  -267.949247859     A.U. after    1 cycles

 The electronic state is 1-A.
 Alpha  occ. eigenvalues --  -14.35433 -14.28062 -10.24622 -10.22135 -10.21923
 Alpha  occ. eigenvalues --  -10.17815  -0.95514  -0.85417  -0.74075  -0.70661
 Alpha  occ. eigenvalues --   -0.66744  -0.53705  -0.51406  -0.47185  -0.47016
 Alpha  occ. eigenvalues --   -0.41538  -0.41012  -0.40647  -0.39916  -0.37533
 Alpha  occ. eigenvalues --   -0.36713  -0.30979  -0.24659  -0.21499
 Alpha virt. eigenvalues --    0.04253   0.08013   0.11551   0.12013   0.14575
 Alpha virt. eigenvalues --    0.15229   0.15756   0.16494   0.16812   0.18950
 Alpha virt. eigenvalues --    0.19508   0.21073   0.23212   0.26388   0.32814

 Mulliken charges:
               1
     1  C   -0.373751
     2  C    0.454046
     3  N   -0.578134
     4  N   -0.426334
     5  C   -0.184011
     6  C   -0.172975
     7  H    0.143604
     8  H    0.118573
     9  H    0.117742
    10  H    0.206817
    11  H    0.126472
    12  H    0.111744
    13  H    0.109557
    14  H    0.113061
    15  H    0.125213
    16  H    0.108377
 Sum of Mulliken charges =  -0.00000

 Dipole moment (field-independent basis, Debye):
    X=              2.7436    Y=              1.9245    Z=              0.0584  Tot=              3.3518
 Quadrupole moment (field-independent basis, Debye-Ang):
   XX=            -39.0749   YY=            -37.4913   ZZ=            -39.1622
   XY=             -4.9065   XZ=              0.4761   YZ=              0.3403

  Exact polarizability:  64.485   2.694  65.549   0.065  -0.954  41.213
 Approx polarizability:  85.515  10.848  95.744  -1.558  -3.273  59.371

                      1                      2                      3
                      A                      A                      A
 Frequencies --     92.3095               138.4651               199.5872
 Red. masses --      2.4636                 1.2059                 1.1666
 Frc consts  --      0.0124                 0.0136                 0.0274
 IR Inten    --      0.8783                 0.4319                 0.7579

                      4                      5                      6
                      A                      A                      A
 Frequencies --    209.1817               241.3421               334.9658
 Red. masses --      2.3812                 1.0847                 2.3286
 Frc consts  --      0.0614                 0.0372                 0.1539
 IR Inten    --      5.8927                 0.6635                 1.2245

                      7                      8                      9
                      A                      A                      A
 Frequencies --    433.6126               471.3887               563.3316
 Red. masses --      2.3703                 2.5908                 2.2825
 Frc consts  --      0.2626                 0.3392                 0.4268
 IR Inten    --      2.7834                 5.0093                 6.3650

                     10                     11                     12
                      A                      A                      A
 Frequencies --    565.7186               745.2221               854.7336
 Red. masses --      3.2168                 3.6328                 1.3680
 Frc consts  --      0.6066                 1.1887                 0.5889
 IR Inten    --      4.8742                 2.5486                75.9713

                     13                     14                     15
                      A                      A                      A
 Frequencies --    957.4634              1034.8152              1072.3096
 Red. masses --      2.3640                 1.5551                 1.5256
 Frc consts  --      1.2768                 0.9812                 1.0335
 IR Inten    --     13.1234                34.5431                 1.3205

                     16                     17                     18
                      A                      A                      A
 Frequencies --   1082.6905              1126.4010              1128.8104
 Red. masses --      1.4746                 1.2399                 1.5378
 Frc consts  --      1.0184                 0.9269                 1.1545
 IR Inten    --     17.9085                 4.8690                19.8664

                     19                     20                     21
                      A                      A                      A
 Frequencies --   1168.3166              1266.0793              1310.6654
 Red. masses --      1.3669                 2.4600                 2.5979
 Frc consts  --      1.0993                 2.3233                 2.6294
 IR Inten    --     15.6089                62.7252                 7.5453

                     22                     23                     24
                      A                      A                      A
 Frequencies --   1393.6633              1432.9611              1455.0124
 Red. masses --      1.5246                 1.9336                 1.1653
 Frc consts  --      1.7447                 2.3392                 1.4535
 IR Inten    --     61.9407               166.4478                 1.1863

                     25                     26                     27
                      A                      A                      A
 Frequencies --   1483.7147              1494.6273              1501.4395
 Red. masses --      1.0852                 1.1242                 1.0560
 Frc consts  --      1.4076                 1.4797                 1.4026
 IR Inten    --     14.0831                 7.8582                15.0594

                     28                     29                     30
                      A                      A                      A
 Frequencies --   1506.5628              1512.7222              1524.9221
 Red. masses --      1.1154                 1.0468                 1.0578
 Frc consts  --      1.4915                 1.4113                 1.4493
 IR Inten    --      2.5795                 2.7148                 4.8679

                     31                     32                     33
                      A                      A                      A
 Frequencies --   1539.7422              1696.5917              2985.3293
 Red. masses --      1.1110                 6.8747                 1.0549
 Frc consts  --      1.5519                11.6589                 5.5391
 IR Inten    --     29.0103               189.3497                56.0281

                     34                     35                     36
                      A                      A                      A
 Frequencies --   2993.2441              3048.0416              3084.1656
 Red. masses --      1.0562                 1.0403                 1.0833
 Frc consts  --      5.5757                 5.6944                 6.0710
 IR Inten    --     78.2951                14.9459                15.5982

                     37                     38                     39
                      A                      A                      A
 Frequencies --   3085.6552              3106.4993              3130.6597
 Red. masses --      1.0836                 1.1008                 1.1017
 Frc consts  --      6.0786                 6.2589                 6.3617
 IR Inten    --     44.5847                18.1575                19.1827

                     40                     41                     42
                      A                      A                      A
 Frequencies --   3163.6360              3176.1671              3491.1840
 Red. masses --      1.0960                 1.0987                 1.0733
 Frc consts  --      6.4631                 6.5304                 7.7074
 IR Inten    --     16.7882                 5.9543                 8.7822

 - Thermochemistry -
 -------------------
 Temperature   298.150 Kelvin.  Pressure   1.00000 Atm.
 Atom     1 has atomic number  6 and mass  12.00000

 Molecular mass:    86.08440 amu.
 Principal axes and moments of inertia in atomic units:
                           1         2         3
     Eigenvalues --   375.92636 536.38352 868.75322
           X            0.99378  -0.11118   0.00557
           Y            0.11116   0.99379   0.00407
           Z           -0.00598  -0.00342   0.99998
 This molecule is an asymmetric top.
 Rotational symmetry number  1.
 Rotational temperatures (Kelvin)      0.23040     0.16148     0.09970
 Rotational constants (GHZ):           4.80078     3.36465     2.07739
 Zero-point vibrational energy     375651.0 (Joules/Mol)
                                   89.78275 (Kcal/Mol)
 Warning -- explicit consideration of  10 degrees of freedom as
           vibrations may cause significant error
 Vibrational temperatures:    132.81   199.22   287.16   300.97   347.24
          (Kelvin)            481.94   623.87   678.22   810.51   813.94
                             1072.21  1229.77  1377.57  1488.87  1542.81
                             1557.75  1620.64  1624.10  1680.94  1821.60
                             1885.75  2005.17  2061.71  2093.44  2134.73
                             2150.43  2160.23  2167.61  2176.47  2194.02
                             2215.34  2441.01  4295.22  4306.61  4385.45
                             4437.42  4439.56  4469.55  4504.32  4551.76
                             4569.79  5023.03

 Zero-point correction=                           0.143078 (Hartree/Particle)
 Thermal correction to Energy=                    0.150626
 Thermal correction to Enthalpy=                  0.151571
 Thermal correction to Gibbs Free Energy=         0.111993
 Sum of electronic and zero-point Energies=           -267.806170
 Sum of electronic and thermal Energies=              -267.798622
 Sum of electronic and thermal Enthalpies=            -267.797677
 Sum of electronic and thermal Free Energies=         -267.837255

                     E (Thermal)             CV                S
                      KCal/Mol        Cal/Mol-Kelvin    Cal/Mol-Kelvin
 Total                   94.519             26.371             83.299
 Electronic               0.000              0.000              0.000
 Translational            0.889              2.981             39.271
 Rotational               0.889              2.981             26.663
 Vibrational             92.742             20.409             17.364
 Vibration     1          0.602              1.955              3.611
 Vibration     2          0.614              1.915              2.825
 Vibration     3          0.638              1.840              2.137
 Vibration     4          0.642              1.827              2.051
 Vibration     5          0.658              1.777              1.793
 Vibration     6          0.716              1.606              1.236
 Vibration     7          0.794              1.397              0.847
 Vibration     8          0.828              1.314              0.734
 Vibration     9          0.919              1.111              0.517
 Vibration    10          0.922              1.105              0.513

 Optimization completed.
    -- Stationary point found.
 Normal termination of Gaussian 09 at Fri Sep 10 20:39:57 2021.
