 Gaussian 09, Revision E.01,
 Gaussian 09:  ES64L-G09RevE.01 30-Nov-2015

 -------------------------
 #P OPT Freq B3LYP/6-31G**
 -------------------------

 --------
 Frag_173
 --------
 Symbolic Z-matrix:
 Charge =  0 Multiplicity = 1

 SCF Done:  E(RB3LYP) =  -303.618756587     A.U. after   15 cycles
 SCF Done:  E(RB3LYP) =  -303.636426486     A.U. after   13 cycles
 SCF Done:  E(RB3LYP) =  -303.637910405     A.U. after   12 cycles
 SCF Done:  E(RB3LYP) =  -303.637947019     A.U. after   11 cycles
 SCF Done:  E(RB3LYP) =  -303.637949554     A.U. after    8 cycles
 Optimization completed.
    -- Stationary point found.
 Normal termination of Gaussian 09 at Sat Aug 21 01:34:08 2021.

 ----------------------------------------------------------------------
 #P Geom=AllCheck Guess=TCheck SCRF=Check GenChk RB3LYP/6-31G(d,p) Freq
 ----------------------------------------------------------------------

 Structure from the checkpoint file:  "/public/home/users/caep010/.cache/gau_scr/Gau-73371.chk"
 --------
 Frag_173
 --------
 Charge =  0 Multiplicity = 1

                         Standard orientation:
 ---------------------------------------------------------------------
 Center     Atomic      Atomic             Coordinates (Angstroms)
 Number     Number       Type             X           Y           Z
 ---------------------------------------------------------------------
      1          7           0       -2.328599   -0.123180   -0.000007
      2          6           0       -1.048403    0.034308    0.000002
      3          6           0       -0.249469    1.253064    0.000005
      4          6           0        1.111931    1.219244   -0.000000
      5          6           0        1.826972   -0.022164   -0.000005
      6          6           0        1.095876   -1.171246   -0.000001
      7          7           0       -0.265902   -1.134792    0.000009
      8          1           0       -2.787983    0.787289   -0.000008
      9          1           0       -0.786717    2.196049    0.000007
     10          1           0        1.670550    2.151497   -0.000002
     11          1           0        2.908416   -0.056564   -0.000009
     12          1           0        1.540088   -2.160469   -0.000002
     13          1           0       -0.804285   -1.991236   -0.000005
 ---------------------------------------------------------------------

 SCF Done:  E(RB3LYP) =  -303.637949554     A.U. after    1 cycles

 The electronic state is 1-A.
 Alpha  occ. eigenvalues --  -14.38283 -14.27572 -10.25381 -10.24469 -10.20676
 Alpha  occ. eigenvalues --  -10.19213 -10.18889  -0.97783  -0.86234  -0.80947
 Alpha  occ. eigenvalues --   -0.73802  -0.64336  -0.62700  -0.55343  -0.50148
 Alpha  occ. eigenvalues --   -0.47786  -0.45447  -0.43982  -0.41842  -0.39423
 Alpha  occ. eigenvalues --   -0.36386  -0.30719  -0.29759  -0.25065  -0.18966
 Alpha virt. eigenvalues --   -0.03092   0.02864   0.07333   0.11368   0.12497
 Alpha virt. eigenvalues --    0.14763   0.15323   0.16744   0.18445   0.22979
 Alpha virt. eigenvalues --    0.28868   0.29165   0.31213   0.38360   0.46096

 Mulliken charges:
               1
     1  N   -0.628561
     2  C    0.476546
     3  C   -0.136280
     4  C   -0.054407
     5  C   -0.153280
     6  C    0.155223
     7  N   -0.544002
     8  H    0.214469
     9  H    0.089255
    10  H    0.096651
    11  H    0.091623
    12  H    0.119902
    13  H    0.272861
 Sum of Mulliken charges =  -0.00000

 Dipole moment (field-independent basis, Debye):
    X=              2.6722    Y=             -0.1297    Z=             -0.0000  Tot=              2.6754
 Quadrupole moment (field-independent basis, Debye-Ang):
   XX=            -43.9028   YY=            -32.2423   ZZ=            -43.8017
   XY=             -3.7468   XZ=             -0.0000   YZ=              0.0000

  Exact polarizability:  94.272  -1.984  69.954  -0.000   0.000  23.772
 Approx polarizability: 166.228   0.238 113.056  -0.000  -0.000  35.682

                      1                      2                      3
                      A                      A                      A
 Frequencies --    155.0970               384.4352               428.6980
 Red. masses --      4.9824                 3.3867                 3.5660
 Frc consts  --      0.0706                 0.2949                 0.3861
 IR Inten    --      1.1540                 6.3709                 6.6823

                      4                      5                      6
                      A                      A                      A
 Frequencies --    472.2816               548.9189               626.0517
 Red. masses --      2.0891                 7.3029                 6.5535
 Frc consts  --      0.2745                 1.2965                 1.5134
 IR Inten    --     37.1656                 6.8093                 0.3956

                      7                      8                      9
                      A                      A                      A
 Frequencies --    670.1074               717.9368               750.5732
 Red. masses --      1.2571                 2.4700                 1.4968
 Frc consts  --      0.3326                 0.7501                 0.4968
 IR Inten    --     64.0080                 0.7603                79.8263

                     10                     11                     12
                      A                      A                      A
 Frequencies --    766.4873               828.1584               839.2665
 Red. masses --      1.1883                 4.9363                 1.5325
 Frc consts  --      0.4113                 1.9947                 0.6360
 IR Inten    --     13.0962                 6.7265                29.7199

                     13                     14                     15
                      A                      A                      A
 Frequencies --    934.2559               994.8327               998.8782
 Red. masses --      1.2606                 1.2814                 5.5425
 Frc consts  --      0.6483                 0.7472                 3.2582
 IR Inten    --      0.0623                 0.0000                18.2737

                     16                     17                     18
                      A                      A                      A
 Frequencies --   1024.5873              1080.9506              1153.0002
 Red. masses --      2.4905                 1.7793                 1.3160
 Frc consts  --      1.5404                 1.2249                 1.0308
 IR Inten    --      1.6064                55.0408                52.7641

                     19                     20                     21
                      A                      A                      A
 Frequencies --   1192.5388              1247.8926              1357.8680
 Red. masses --      1.0708                 1.1640                 1.7761
 Frc consts  --      0.8972                 1.0680                 1.9294
 IR Inten    --      6.1530                55.6218                20.5604

                     22                     23                     24
                      A                      A                      A
 Frequencies --   1402.3691              1455.8756              1513.1022
 Red. masses --      1.9296                 1.9545                 2.5442
 Frc consts  --      2.2358                 2.4408                 3.4319
 IR Inten    --      5.1929                 3.7259                 9.7952

                     25                     26                     27
                      A                      A                      A
 Frequencies --   1592.9842              1666.9180              1725.2835
 Red. masses --      6.3657                 4.0962                 6.4701
 Frc consts  --      9.5175                 6.7060                11.3470
 IR Inten    --     37.8983               113.9969               365.4169

                     28                     29                     30
                      A                      A                      A
 Frequencies --   3182.8571              3206.6821              3216.3770
 Red. masses --      1.0875                 1.0949                 1.0902
 Frc consts  --      6.4910                 6.6332                 6.6449
 IR Inten    --     10.7687                11.0824                 4.0047

                     31                     32                     33
                      A                      A                      A
 Frequencies --   3243.6302              3508.1029              3618.7805
 Red. masses --      1.0971                 1.0749                 1.0775
 Frc consts  --      6.8007                 7.7943                 8.3136
 IR Inten    --      5.9422                 1.4181                55.5352

 - Thermochemistry -
 -------------------
 Temperature   298.150 Kelvin.  Pressure   1.00000 Atm.
 Atom     1 has atomic number  7 and mass  14.00307

 Molecular mass:    94.05310 amu.
 Principal axes and moments of inertia in atomic units:
                           1         2         3
     Eigenvalues --   322.11215 653.56024 975.67239
           X            0.99972  -0.02356  -0.00000
           Y            0.02356   0.99972   0.00000
           Z            0.00000  -0.00000   1.00000
 This molecule is an asymmetric top.
 Rotational symmetry number  1.
 Rotational temperatures (Kelvin)      0.26889     0.13253     0.08877
 Rotational constants (GHZ):           5.60283     2.76140     1.84974
 Zero-point vibrational energy     278166.3 (Joules/Mol)
                                   66.48335 (Kcal/Mol)
 Warning -- explicit consideration of   5 degrees of freedom as
           vibrations may cause significant error
 Vibrational temperatures:    223.15   553.12   616.80   679.51   789.77
          (Kelvin)            900.75   964.13  1032.95  1079.91  1102.80
                             1191.53  1207.52  1344.18  1431.34  1437.16
                             1474.15  1555.24  1658.91  1715.80  1795.44
                             1953.67  2017.69  2094.68  2177.01  2291.95
                             2398.32  2482.30  4579.42  4613.69  4627.64
                             4666.85  5047.37  5206.61

 Zero-point correction=                           0.105948 (Hartree/Particle)
 Thermal correction to Energy=                    0.111424
 Thermal correction to Enthalpy=                  0.112369
 Thermal correction to Gibbs Free Energy=         0.076882
 Sum of electronic and zero-point Energies=           -303.532002
 Sum of electronic and thermal Energies=              -303.526525
 Sum of electronic and thermal Enthalpies=            -303.525581
 Sum of electronic and thermal Free Energies=         -303.561067

                     E (Thermal)             CV                S
                      KCal/Mol        Cal/Mol-Kelvin    Cal/Mol-Kelvin
 Total                   69.920             21.522             74.687
 Electronic               0.000              0.000              0.000
 Translational            0.889              2.981             39.535
 Rotational               0.889              2.981             26.821
 Vibrational             68.142             15.560              8.331
 Vibration     1          0.620              1.897              2.609
 Vibration     2          0.753              1.503              1.022
 Vibration     3          0.790              1.408              0.863
 Vibration     4          0.829              1.312              0.731
 Vibration     5          0.904              1.142              0.546

 Optimization completed.
    -- Stationary point found.
 Normal termination of Gaussian 09 at Sat Aug 21 01:34:20 2021.
