 Gaussian 09, Revision E.01,
 Gaussian 09:  ES64L-G09RevE.01 30-Nov-2015

 ----------------------------
 #P OPT Freq B3LYP/6-31G(d,p)
 ----------------------------

 --------
 Frag_469
 --------
 Symbolic Z-matrix:
 Charge =  0 Multiplicity = 1

 SCF Done:  E(RB3LYP) =  -249.712731847     A.U. after   13 cycles
 SCF Done:  E(RB3LYP) =  -249.712763920     A.U. after    8 cycles
 SCF Done:  E(RB3LYP) =  -249.712769232     A.U. after    8 cycles
 SCF Done:  E(RB3LYP) =  -249.712769856     A.U. after    7 cycles
 SCF Done:  E(RB3LYP) =  -249.712769965     A.U. after    7 cycles
 SCF Done:  E(RB3LYP) =  -249.712770004     A.U. after    7 cycles
 Optimization completed.
    -- Stationary point found.
 Normal termination of Gaussian 09 at Thu Sep  8 15:18:52 2022.

 ----------------------------------------------------------------------
 #P Geom=AllCheck Guess=TCheck SCRF=Check GenChk RB3LYP/6-31G(d,p) Freq
 ----------------------------------------------------------------------

 Structure from the checkpoint file:  "B3LYP6-31Gdp.Frag_469.chk"
 --------
 Frag_469
 --------
 Charge =  0 Multiplicity = 1

                         Standard orientation:
 ---------------------------------------------------------------------
 Center     Atomic      Atomic             Coordinates (Angstroms)
 Number     Number       Type             X           Y           Z
 ---------------------------------------------------------------------
      1          6           0       -1.947929   -0.036490    0.084802
      2          8           0       -0.710677   -0.523609   -0.392579
      3          6           0        0.445452   -0.041682    0.317838
      4          6           0        0.785775    1.392319   -0.081473
      5          7           0        1.564007   -0.907922    0.059990
      6          1           0       -2.066666   -0.212296    1.166259
      7          1           0       -2.086520    1.038668   -0.102760
      8          1           0       -2.734425   -0.580592   -0.444429
      9          1           0        0.223147   -0.086414    1.396894
     10          1           0        1.004128    1.438049   -1.154078
     11          1           0        1.662324    1.740072    0.470695
     12          1           0       -0.045120    2.072764    0.123246
     13          1           0        1.782502   -0.883960   -0.934481
     14          1           0        1.298205   -1.866848    0.272356
 ---------------------------------------------------------------------

 SCF Done:  E(RB3LYP) =  -249.712770004     A.U. after    1 cycles

 The electronic state is 1-A.
 Alpha  occ. eigenvalues --  -19.13810 -14.31226 -10.25572 -10.22396 -10.17373
 Alpha  occ. eigenvalues --   -1.02408  -0.87815  -0.72888  -0.67949  -0.59144
 Alpha  occ. eigenvalues --   -0.50108  -0.48849  -0.45770  -0.44053  -0.40439
 Alpha  occ. eigenvalues --   -0.39138  -0.37429  -0.35684  -0.31023  -0.25970
 Alpha  occ. eigenvalues --   -0.24307
 Alpha virt. eigenvalues --    0.08586   0.10647   0.12896   0.14237   0.15604
 Alpha virt. eigenvalues --    0.16429   0.16689   0.18259   0.19050   0.22109
 Alpha virt. eigenvalues --    0.24754   0.25312   0.29738   0.50503   0.53044

 Mulliken charges:
               1
     1  C   -0.062350
     2  O   -0.489704
     3  C    0.271917
     4  C   -0.315238
     5  N   -0.582833
     6  H    0.086400
     7  H    0.090241
     8  H    0.112360
     9  H    0.078188
    10  H    0.106807
    11  H    0.119539
    12  H    0.103047
    13  H    0.239545
    14  H    0.242081
 Sum of Mulliken charges =  -0.00000

 Dipole moment (field-independent basis, Debye):
    X=             -0.8781    Y=              0.2710    Z=              0.1089  Tot=              0.9254
 Quadrupole moment (field-independent basis, Debye-Ang):
   XX=            -32.8027   YY=            -30.4270   ZZ=            -31.8563
   XY=             -0.7509   XZ=             -2.7295   YZ=              0.0254

  Exact polarizability:  50.625  -1.003  43.654  -1.436  -0.432  39.761
 Approx polarizability:  62.404  -1.977  56.496  -1.613   0.467  56.908

                      1                      2                      3
                      A                      A                      A
 Frequencies --     93.1991               204.1979               234.3764
 Red. masses --      1.9300                 1.1881                 1.1195
 Frc consts  --      0.0099                 0.0292                 0.0362
 IR Inten    --      1.9627                 0.8166                 0.3145

                      4                      5                      6
                      A                      A                      A
 Frequencies --    297.7699               327.6461               404.7689
 Red. masses --      2.3332                 1.1769                 2.3550
 Frc consts  --      0.1219                 0.0744                 0.2273
 IR Inten    --      8.1678                41.7737                14.9161

                      7                      8                      9
                      A                      A                      A
 Frequencies --    448.2071               537.1896               821.2710
 Red. masses --      2.8618                 2.4776                 2.5283
 Frc consts  --      0.3387                 0.4212                 1.0047
 IR Inten    --     15.6086                 8.7443                17.9199

                     10                     11                     12
                      A                      A                      A
 Frequencies --    882.4625               930.9725              1013.5084
 Red. masses --      1.6082                 2.2809                 1.3469
 Frc consts  --      0.7379                 1.1647                 0.8151
 IR Inten    --    220.4131                32.6153                12.4148

                     13                     14                     15
                      A                      A                      A
 Frequencies --   1096.5958              1119.0018              1180.8507
 Red. masses --      1.7567                 6.8739                 1.7874
 Frc consts  --      1.2446                 5.0712                 1.4685
 IR Inten    --     52.2639               147.6156                32.1397

                     16                     17                     18
                      A                      A                      A
 Frequencies --   1183.2040              1220.4847              1303.4759
 Red. masses --      1.3249                 1.4827                 1.8831
 Frc consts  --      1.0928                 1.3012                 1.8851
 IR Inten    --      5.4081                29.1366                13.9923

                     19                     20                     21
                      A                      A                      A
 Frequencies --   1384.8073              1409.0870              1444.7032
 Red. masses --      1.1651                 1.2189                 1.5195
 Frc consts  --      1.3164                 1.4260                 1.8686
 IR Inten    --     27.1326                 7.2595                34.8938

                     22                     23                     24
                      A                      A                      A
 Frequencies --   1487.1091              1498.4584              1502.3580
 Red. masses --      1.1245                 1.0558                 1.0491
 Frc consts  --      1.4652                 1.3968                 1.3951
 IR Inten    --      0.7822                 4.4896                 0.9729

                     25                     26                     27
                      A                      A                      A
 Frequencies --   1514.9858              1525.2869              1680.6989
 Red. masses --      1.0617                 1.0579                 1.0967
 Frc consts  --      1.4358                 1.4500                 1.8253
 IR Inten    --      1.8327                 6.0248                29.3532

                     28                     29                     30
                      A                      A                      A
 Frequencies --   2978.3772              2987.4901              3030.4978
 Red. masses --      1.0513                 1.0718                 1.1009
 Frc consts  --      5.4945                 5.6359                 5.9569
 IR Inten    --     27.2973                87.4962                60.4047

                     31                     32                     33
                      A                      A                      A
 Frequencies --   3052.5736              3120.1375              3125.5625
 Red. masses --      1.0377                 1.0968                 1.1005
 Frc consts  --      5.6972                 6.2908                 6.3345
 IR Inten    --     19.8333                32.3467                33.2451

                     34                     35                     36
                      A                      A                      A
 Frequencies --   3141.7323              3488.7114              3572.6535
 Red. masses --      1.1030                 1.0494                 1.0918
 Frc consts  --      6.4142                 7.5256                 8.2103
 IR Inten    --     20.9276                 0.0297                 0.1843

 - Thermochemistry -
 -------------------
 Temperature   298.150 Kelvin.  Pressure   1.00000 Atm.
 Atom     1 has atomic number  6 and mass  12.00000

 Molecular mass:    75.06841 amu.
 Principal axes and moments of inertia in atomic units:
                           1         2         3
     Eigenvalues --   229.61828 473.48149 632.28858
           X            0.99978   0.00046  -0.02088
           Y           -0.00067   0.99995  -0.01019
           Z            0.02087   0.01020   0.99973
 This molecule is an asymmetric top.
 Rotational symmetry number  1.
 Rotational temperatures (Kelvin)      0.37721     0.18293     0.13698
 Rotational constants (GHZ):           7.85975     3.81164     2.85430
 Zero-point vibrational energy     330435.0 (Joules/Mol)
                                   78.97585 (Kcal/Mol)
 Warning -- explicit consideration of   8 degrees of freedom as
           vibrations may cause significant error
 Vibrational temperatures:    134.09   293.79   337.21   428.42   471.41
          (Kelvin)            582.37   644.87   772.90  1181.62  1269.67
                             1339.46  1458.21  1577.75  1609.99  1698.98
                             1702.36  1756.00  1875.41  1992.43  2027.36
                             2078.60  2139.62  2155.94  2161.56  2179.72
                             2194.54  2418.15  4285.22  4298.33  4360.20
                             4391.97  4489.18  4496.98  4520.25  5019.47
                             5140.25

 Zero-point correction=                           0.125856 (Hartree/Particle)
 Thermal correction to Energy=                    0.132449
 Thermal correction to Enthalpy=                  0.133393
 Thermal correction to Gibbs Free Energy=         0.096290
 Sum of electronic and zero-point Energies=           -249.586914
 Sum of electronic and thermal Energies=              -249.580321
 Sum of electronic and thermal Enthalpies=            -249.579377
 Sum of electronic and thermal Free Energies=         -249.616480

                     E (Thermal)             CV                S
                      KCal/Mol        Cal/Mol-Kelvin    Cal/Mol-Kelvin
 Total                   83.113             22.823             78.089
 Electronic               0.000              0.000              0.000
 Translational            0.889              2.981             38.863
 Rotational               0.889              2.981             25.733
 Vibrational             81.335             16.861             13.492
 Vibration     1          0.602              1.954              3.592
 Vibration     2          0.640              1.834              2.095
 Vibration     3          0.654              1.788              1.845
 Vibration     4          0.691              1.678              1.429
 Vibration     5          0.711              1.620              1.272
 Vibration     6          0.770              1.460              0.945
 Vibration     7          0.807              1.365              0.801
 Vibration     8          0.892              1.168              0.571

 Normal termination of Gaussian 09 at Thu Sep  8 15:19:02 2022.
