 Gaussian 09, Revision E.01,
 Gaussian 09:  ES64L-G09RevE.01 30-Nov-2015

 -------------------------
 #P OPT Freq B3LYP/6-31G**
 -------------------------

 --------
 Frag_119
 --------
 Symbolic Z-matrix:
 Charge =  0 Multiplicity = 1

 SCF Done:  E(RB3LYP) =  -312.034331142     A.U. after   12 cycles
 SCF Done:  E(RB3LYP) =  -312.047123074     A.U. after   11 cycles
 SCF Done:  E(RB3LYP) =  -312.047679356     A.U. after    9 cycles
 SCF Done:  E(RB3LYP) =  -312.047658377     A.U. after    7 cycles
 Optimization completed.
    -- Stationary point found.
 Normal termination of Gaussian 09 at Sat Aug 21 01:38:26 2021.

 ----------------------------------------------------------------------
 #P Geom=AllCheck Guess=TCheck SCRF=Check GenChk RB3LYP/6-31G(d,p) Freq
 ----------------------------------------------------------------------

 Structure from the checkpoint file:  "/public/home/users/caep010/.cache/gau_scr/Gau-18945.chk"
 --------
 Frag_119
 --------
 Charge =  0 Multiplicity = 1

                         Standard orientation:
 ---------------------------------------------------------------------
 Center     Atomic      Atomic             Coordinates (Angstroms)
 Number     Number       Type             X           Y           Z
 ---------------------------------------------------------------------
      1          6           0        1.192384   -1.122346    0.000314
      2          6           0        0.812348    0.024562   -0.967956
      3          6           0        1.122359    1.192373   -0.000310
      4          6           0       -0.024564    0.812351    0.967950
      5          6           0       -1.192389    1.122345    0.000311
      6          6           0       -0.812346   -0.024564   -0.967957
      7          6           0       -1.122354   -1.192373   -0.000308
      8          6           0        0.024561   -0.812345    0.967953
      9          1           0        2.196130   -0.993759    0.415551
     10          1           0        1.125044   -2.132125   -0.414804
     11          1           0        1.285963    0.038852   -1.951367
     12          1           0        0.993794    2.196120   -0.415548
     13          1           0        2.132136    1.125015    0.414812
     14          1           0       -0.038854    1.285961    1.951364
     15          1           0       -2.196134    0.993750    0.415547
     16          1           0       -1.125056    2.132122   -0.414809
     17          1           0       -1.285959   -0.038858   -1.951369
     18          1           0       -2.132132   -1.125021    0.414810
     19          1           0       -0.993784   -2.196121   -0.415544
     20          1           0        0.038852   -1.285950    1.951369
 ---------------------------------------------------------------------

 SCF Done:  E(RB3LYP) =  -312.047658377     A.U. after    1 cycles

 The electronic state is 1-A.
 Alpha  occ. eigenvalues --  -10.18341 -10.18341 -10.18329 -10.18329 -10.17113
 Alpha  occ. eigenvalues --  -10.17111 -10.17111 -10.17110  -0.88885  -0.74003
 Alpha  occ. eigenvalues --   -0.74003  -0.68352  -0.62896  -0.57232  -0.52405
 Alpha  occ. eigenvalues --   -0.52405  -0.50217  -0.48266  -0.43369  -0.43368
 Alpha  occ. eigenvalues --   -0.35863  -0.35862  -0.35184  -0.33471  -0.31918
 Alpha  occ. eigenvalues --   -0.31918  -0.30780  -0.29951  -0.29920  -0.27771
 Alpha virt. eigenvalues --    0.09844   0.11401   0.13427   0.13427   0.14288
 Alpha virt. eigenvalues --    0.14288   0.14568   0.16507   0.18231   0.18231
 Alpha virt. eigenvalues --    0.18646   0.20931   0.22252   0.22349   0.22350

 Mulliken charges:
               1
     1  C   -0.145953
     2  C   -0.094724
     3  C   -0.145952
     4  C   -0.094726
     5  C   -0.145952
     6  C   -0.094725
     7  C   -0.145952
     8  C   -0.094726
     9  H    0.085219
    10  H    0.085208
    11  H    0.070250
    12  H    0.085218
    13  H    0.085210
    14  H    0.070250
    15  H    0.085220
    16  H    0.085208
    17  H    0.070250
    18  H    0.085210
    19  H    0.085218
    20  H    0.070250
 Sum of Mulliken charges =   0.00000

 Dipole moment (field-independent basis, Debye):
    X=             -0.0000    Y=             -0.0000    Z=             -0.0000  Tot=              0.0000
 Quadrupole moment (field-independent basis, Debye-Ang):
   XX=            -49.8063   YY=            -49.8065   ZZ=            -49.5629
   XY=              0.0000   XZ=              0.0000   YZ=              0.0000

  Exact polarizability:  77.506   0.000  77.506  -0.000   0.000  70.007
 Approx polarizability: 110.930   0.000 110.929  -0.000   0.000 106.116

                      1                      2                      3
                      A                      A                      A
 Frequencies --    308.9836               520.2429               520.2657
 Red. masses --      2.1553                 1.8605                 1.8605
 Frc consts  --      0.1212                 0.2967                 0.2967
 IR Inten    --      0.0000                 0.0159                 0.0159

                      4                      5                      6
                      A                      A                      A
 Frequencies --    545.1202               619.1062               651.2298
 Red. masses --      4.1572                 1.9464                 4.4930
 Frc consts  --      0.7278                 0.4396                 1.1227
 IR Inten    --      0.0000                 0.7611                 0.0000

                      7                      8                      9
                      A                      A                      A
 Frequencies --    758.7530               794.2575               794.2658
 Red. masses --      2.5203                 4.2854                 4.2855
 Frc consts  --      0.8549                 1.5928                 1.5929
 IR Inten    --      1.0977                 0.0913                 0.0912

                     10                     11                     12
                      A                      A                      A
 Frequencies --    867.9489               883.7201               905.4858
 Red. masses --      2.2196                 2.9931                 1.9349
 Frc consts  --      0.9852                 1.3772                 0.9347
 IR Inten    --      0.0000                 0.9988                 0.0002

                     13                     14                     15
                      A                      A                      A
 Frequencies --    907.5334               911.2723               911.2770
 Red. masses --      1.5945                 2.7081                 2.7081
 Frc consts  --      0.7737                 1.3250                 1.3250
 IR Inten    --      0.0000                 0.5548                 0.5547

                     16                     17                     18
                      A                      A                      A
 Frequencies --    930.1847               945.1623               945.1642
 Red. masses --      3.5994                 1.8035                 1.8035
 Frc consts  --      1.8350                 0.9493                 0.9493
 IR Inten    --      0.0000                 0.4471                 0.4470

                     19                     20                     21
                      A                      A                      A
 Frequencies --    990.2221              1024.4780              1024.4823
 Red. masses --      1.2561                 1.4571                 1.4571
 Frc consts  --      0.7257                 0.9010                 0.9011
 IR Inten    --      0.0000                 1.7902                 1.7903

                     22                     23                     24
                      A                      A                      A
 Frequencies --   1078.2327              1086.2822              1123.8257
 Red. masses --      1.1264                 1.0623                 1.1102
 Frc consts  --      0.7715                 0.7385                 0.8262
 IR Inten    --      0.6704                 0.0072                 0.0621

                     25                     26                     27
                      A                      A                      A
 Frequencies --   1123.8312              1168.8996              1171.7134
 Red. masses --      1.1102                 1.2086                 2.0647
 Frc consts  --      0.8262                 0.9729                 1.6701
 IR Inten    --      0.0622                 0.0000                 0.4426

                     28                     29                     30
                      A                      A                      A
 Frequencies --   1208.5201              1219.8400              1219.8425
 Red. masses --      2.6941                 1.6373                 1.6373
 Frc consts  --      2.3183                 1.4354                 1.4355
 IR Inten    --      0.0000                 0.0293                 0.0293

                     31                     32                     33
                      A                      A                      A
 Frequencies --   1272.0854              1276.6406              1276.6442
 Red. masses --      1.3370                 1.3708                 1.3708
 Frc consts  --      1.2747                 1.3163                 1.3163
 IR Inten    --      0.0000                 0.2787                 0.2788

                     34                     35                     36
                      A                      A                      A
 Frequencies --   1278.2738              1313.3147              1315.8011
 Red. masses --      1.5241                 1.7245                 1.5921
 Frc consts  --      1.4672                 1.7525                 1.6240
 IR Inten    --      0.0000                 0.0001                 0.0026

                     37                     38                     39
                      A                      A                      A
 Frequencies --   1315.8035              1341.4097              1502.4268
 Red. masses --      1.5921                 1.4930                 1.0973
 Frc consts  --      1.6240                 1.5828                 1.4593
 IR Inten    --      0.0026                 8.7113                 0.0001

                     40                     41                     42
                      A                      A                      A
 Frequencies --   1535.2972              1535.3020              1564.9609
 Red. masses --      1.0959                 1.0959                 1.0900
 Frc consts  --      1.5220                 1.5220                 1.5728
 IR Inten    --      4.0784                 4.0787                 0.0000

                     43                     44                     45
                      A                      A                      A
 Frequencies --   3059.4432              3065.2396              3065.2445
 Red. masses --      1.0580                 1.0612                 1.0612
 Frc consts  --      5.8345                 5.8747                 5.8747
 IR Inten    --      0.0000                53.4227                53.4307

                     46                     47                     48
                      A                      A                      A
 Frequencies --   3074.7243              3097.8583              3112.3914
 Red. masses --      1.0602                 1.1092                 1.1045
 Frc consts  --      5.9053                 6.2718                 6.3041
 IR Inten    --      0.0000                 0.0000                97.4774

                     49                     50                     51
                      A                      A                      A
 Frequencies --   3112.3968              3118.2008              3118.2012
 Red. masses --      1.1045                 1.0902                 1.0902
 Frc consts  --      6.3041                 6.2457                 6.2457
 IR Inten    --     97.4858                15.6348                15.6260

                     52                     53                     54
                      A                      A                      A
 Frequencies --   3118.9317              3126.6118              3132.0204
 Red. masses --      1.1058                 1.0882                 1.0913
 Frc consts  --      6.3376                 6.2678                 6.3076
 IR Inten    --      1.0217               152.1955                 0.0000

 - Thermochemistry -
 -------------------
 Temperature   298.150 Kelvin.  Pressure   1.00000 Atm.
 Atom     1 has atomic number  6 and mass  12.00000

 Molecular mass:   108.09390 amu.
 Principal axes and moments of inertia in atomic units:
                           1         2         3
     Eigenvalues --   602.37368 602.38024 763.99019
           X            0.99992   0.01245   0.00000
           Y           -0.01245   0.99992   0.00000
           Z           -0.00000  -0.00000   1.00000
 This molecule is an asymmetric top.
 Rotational symmetry number  1.
 Warning -- assumption of classical behavior for rotation
           may cause significant error
 Rotational temperatures (Kelvin)      0.14379     0.14379     0.11337
 Rotational constants (GHZ):           2.99605     2.99602     2.36226
 Zero-point vibrational energy     483825.9 (Joules/Mol)
                                  115.63715 (Kcal/Mol)
 Warning -- explicit consideration of   5 degrees of freedom as
           vibrations may cause significant error
 Vibrational temperatures:    444.56   748.51   748.55   784.31   890.75
          (Kelvin)            936.97  1091.68  1142.76  1142.77  1248.78
                             1271.47  1302.79  1305.74  1311.12  1311.12
                             1338.33  1359.88  1359.88  1424.71  1473.99
                             1474.00  1551.33  1562.92  1616.93  1616.94
                             1681.78  1685.83  1738.79  1755.08  1755.08
                             1830.24  1836.80  1836.80  1839.15  1889.56
                             1893.14  1893.15  1929.99  2161.65  2208.95
                             2208.95  2251.63  4401.85  4410.19  4410.20
                             4423.84  4457.12  4478.03  4478.04  4486.39
                             4486.39  4487.44  4498.49  4506.27

 Zero-point correction=                           0.184280 (Hartree/Particle)
 Thermal correction to Energy=                    0.189531
 Thermal correction to Enthalpy=                  0.190475
 Thermal correction to Gibbs Free Energy=         0.155385
 Sum of electronic and zero-point Energies=           -311.863379
 Sum of electronic and thermal Energies=              -311.858128
 Sum of electronic and thermal Enthalpies=            -311.857183
 Sum of electronic and thermal Free Energies=         -311.892274

                     E (Thermal)             CV                S
                      KCal/Mol        Cal/Mol-Kelvin    Cal/Mol-Kelvin
 Total                  118.932             24.197             73.854
 Electronic               0.000              0.000              0.000
 Translational            0.889              2.981             39.950
 Rotational               0.889              2.981             27.119
 Vibrational            117.155             18.235              6.785
 Vibration     1          0.698              1.657              1.368
 Vibration     2          0.875              1.205              0.609
 Vibration     3          0.875              1.205              0.609
 Vibration     4          0.900              1.150              0.554
 Vibration     5          0.979              0.992              0.418

 Optimization completed.
    -- Stationary point found.
 Normal termination of Gaussian 09 at Sat Aug 21 01:38:50 2021.
