 Gaussian 09, Revision E.01,
 Gaussian 09:  ES64L-G09RevE.01 30-Nov-2015

 --------------------------------
 #P OPT=calcfc Freq B3LYP/6-31G**
 --------------------------------

 --------
 Frag_419
 --------
 Symbolic Z-matrix:
 Charge =  0 Multiplicity = 1

 SCF Done:  E(RB3LYP) =  -229.831163383     A.U. after   13 cycles
 SCF Done:  E(RB3LYP) =  -229.835991667     A.U. after   11 cycles
 SCF Done:  E(RB3LYP) =  -229.836202920     A.U. after   10 cycles
 SCF Done:  E(RB3LYP) =  -229.836210757     A.U. after    8 cycles
 SCF Done:  E(RB3LYP) =  -229.836211023     A.U. after    7 cycles
 Optimization completed.
    -- Stationary point found.
 Normal termination of Gaussian 09 at Fri Sep 10 21:24:03 2021.

 ----------------------------------------------------------------------
 #P Geom=AllCheck Guess=TCheck SCRF=Check GenChk RB3LYP/6-31G(d,p) Freq
 ----------------------------------------------------------------------

 Structure from the checkpoint file:  "/public/home/users/caep010/.cache/gau_scr/Gau-164444.chk"
 --------
 Frag_419
 --------
 Charge =  0 Multiplicity = 1

                         Standard orientation:
 ---------------------------------------------------------------------
 Center     Atomic      Atomic             Coordinates (Angstroms)
 Number     Number       Type             X           Y           Z
 ---------------------------------------------------------------------
      1          6           0        0.623459    1.388239    0.095510
      2          7           0        0.429936   -0.002955   -0.297947
      3          6           0        1.627662   -0.797001   -0.074611
      4          6           0       -0.745188   -0.597718    0.321699
      5          7           0       -1.948252    0.061408   -0.171151
      6          1           0       -0.304630    1.936952   -0.069423
      7          1           0        0.908008    1.495628    1.160818
      8          1           0        1.415614    1.836123   -0.513272
      9          1           0        2.463296   -0.364907   -0.634459
     10          1           0        1.473187   -1.819942   -0.433845
     11          1           0        1.931121   -0.851031    0.989629
     12          1           0       -0.702273   -1.679529    0.107649
     13          1           0       -0.741160   -0.491095    1.425630
     14          1           0       -2.762577   -0.257976    0.345708
     15          1           0       -2.087977   -0.174512   -1.150334
 ---------------------------------------------------------------------

 SCF Done:  E(RB3LYP) =  -229.836211023     A.U. after    1 cycles

 The electronic state is 1-A.
 Alpha  occ. eigenvalues --  -14.31686 -14.31002 -10.22778 -10.19715 -10.18629
 Alpha  occ. eigenvalues --   -0.92474  -0.85472  -0.69407  -0.67175  -0.57666
 Alpha  occ. eigenvalues --   -0.49562  -0.47369  -0.45328  -0.43418  -0.39650
 Alpha  occ. eigenvalues --   -0.38064  -0.36934  -0.35655  -0.35079  -0.23536
 Alpha  occ. eigenvalues --   -0.20694
 Alpha virt. eigenvalues --    0.08519   0.10306   0.14270   0.15106   0.16412
 Alpha virt. eigenvalues --    0.16691   0.17420   0.18560   0.18616   0.19596
 Alpha virt. eigenvalues --    0.22467   0.25226   0.26835   0.28071   0.52029

 Mulliken charges:
               1
     1  C   -0.161637
     2  N   -0.399292
     3  C   -0.156973
     4  C    0.107191
     5  N   -0.599512
     6  H    0.135244
     7  H    0.069890
     8  H    0.098832
     9  H    0.105929
    10  H    0.101993
    11  H    0.076660
    12  H    0.072808
    13  H    0.070951
    14  H    0.235574
    15  H    0.242342
 Sum of Mulliken charges =  -0.00000

 Dipole moment (field-independent basis, Debye):
    X=             -0.3857    Y=             -1.2107    Z=              0.3011  Tot=              1.3059
 Quadrupole moment (field-independent basis, Debye-Ang):
   XX=            -29.3660   YY=            -33.0042   ZZ=            -33.3756
   XY=              2.6261   XZ=              0.1331   YZ=              0.0865

  Exact polarizability:  55.663   0.262  47.557  -0.385  -0.370  43.667
 Approx polarizability:  68.386  -0.030  62.096  -0.720  -0.651  63.043

                      1                      2                      3
                      A                      A                      A
 Frequencies --    144.1430               235.9903               248.9594
 Red. masses --      2.2254                 1.2160                 1.0528
 Frc consts  --      0.0272                 0.0399                 0.0384
 IR Inten    --      3.4090                 9.4467                 0.7806

                      4                      5                      6
                      A                      A                      A
 Frequencies --    271.6920               309.5401               366.8771
 Red. masses --      1.1263                 1.9881                 2.2129
 Frc consts  --      0.0490                 0.1122                 0.1755
 IR Inten    --     34.2357                10.0483                 5.5519

                      7                      8                      9
                      A                      A                      A
 Frequencies --    413.9244               524.3414               810.2914
 Red. masses --      2.1368                 3.1529                 1.9203
 Frc consts  --      0.2157                 0.5107                 0.7429
 IR Inten    --      0.6617                13.5229                69.1590

                     10                     11                     12
                      A                      A                      A
 Frequencies --    865.6428               995.5240              1054.3971
 Red. masses --      1.7020                 1.6548                 2.0862
 Frc consts  --      0.7514                 0.9662                 1.3665
 IR Inten    --     88.4833                15.1632                 8.7053

                     13                     14                     15
                      A                      A                      A
 Frequencies --   1070.4266              1106.6579              1130.0876
 Red. masses --      1.5695                 2.1759                 1.2908
 Frc consts  --      1.0595                 1.5700                 0.9713
 IR Inten    --     13.1527                43.5976                 5.0491

                     16                     17                     18
                      A                      A                      A
 Frequencies --   1165.4214              1230.7288              1267.8519
 Red. masses --      1.2935                 1.8155                 2.0016
 Frc consts  --      1.0351                 1.6202                 1.8957
 IR Inten    --     12.3342                23.0745                28.9343

                     19                     20                     21
                      A                      A                      A
 Frequencies --   1319.9942              1362.8156              1438.5280
 Red. masses --      2.3312                 1.3198                 1.2124
 Frc consts  --      2.3932                 1.4442                 1.4783
 IR Inten    --     13.1425                 6.6399                14.2054

                     22                     23                     24
                      A                      A                      A
 Frequencies --   1449.9992              1486.1878              1496.1811
 Red. masses --      1.2196                 1.1978                 1.0498
 Frc consts  --      1.5108                 1.5588                 1.3846
 IR Inten    --     24.8316                16.2104                13.2816

                     25                     26                     27
                      A                      A                      A
 Frequencies --   1507.1843              1518.9324              1528.9415
 Red. masses --      1.0742                 1.0551                 1.0600
 Frc consts  --      1.4377                 1.4342                 1.4600
 IR Inten    --      9.7545                 7.9646                 8.4341

                     28                     29                     30
                      A                      A                      A
 Frequencies --   1535.2822              1649.6982              2906.4554
 Red. masses --      1.0891                 1.1023                 1.0667
 Frc consts  --      1.5125                 1.7675                 5.3091
 IR Inten    --      0.3309                32.1902                57.6651

                     31                     32                     33
                      A                      A                      A
 Frequencies --   2920.2577              2932.7403              2964.6100
 Red. masses --      1.0617                 1.0634                 1.0914
 Frc consts  --      5.3343                 5.3890                 5.6513
 IR Inten    --     40.9201               188.2227                85.4449

                     34                     35                     36
                      A                      A                      A
 Frequencies --   3066.2113              3079.8435              3112.1473
 Red. masses --      1.0700                 1.0752                 1.1035
 Frc consts  --      5.9270                 6.0089                 6.2969
 IR Inten    --     38.3517                41.7916                35.4149

                     37                     38                     39
                      A                      A                      A
 Frequencies --   3154.1350              3500.6826              3595.4509
 Red. masses --      1.0984                 1.0492                 1.0934
 Frc consts  --      6.4382                 7.5757                 8.3283
 IR Inten    --      9.3866                 0.6182                 0.1724

 - Thermochemistry -
 -------------------
 Temperature   298.150 Kelvin.  Pressure   1.00000 Atm.
 Atom     1 has atomic number  6 and mass  12.00000

 Molecular mass:    74.08440 amu.
 Principal axes and moments of inertia in atomic units:
                           1         2         3
     Eigenvalues --   220.24165 488.34290 638.77160
           X            0.99994   0.00999   0.00338
           Y           -0.01000   0.99995   0.00154
           Z           -0.00336  -0.00157   0.99999
 This molecule is an asymmetric top.
 Rotational symmetry number  1.
 Rotational temperatures (Kelvin)      0.39327     0.17736     0.13559
 Rotational constants (GHZ):           8.19437     3.69564     2.82533
 Zero-point vibrational energy     363298.6 (Joules/Mol)
                                   86.83044 (Kcal/Mol)
 Warning -- explicit consideration of   8 degrees of freedom as
           vibrations may cause significant error
 Vibrational temperatures:    207.39   339.54   358.20   390.90   445.36
          (Kelvin)            527.85   595.54   754.41  1165.83  1245.47
                             1432.34  1517.04  1540.10  1592.23  1625.94
                             1676.78  1770.74  1824.15  1899.17  1960.79
                             2069.72  2086.22  2138.29  2152.67  2168.50
                             2185.40  2199.80  2208.93  2373.54  4181.74
                             4201.59  4219.55  4265.41  4411.59  4431.20
                             4477.68  4538.09  5036.70  5173.05

 Zero-point correction=                           0.138373 (Hartree/Particle)
 Thermal correction to Energy=                    0.144952
 Thermal correction to Enthalpy=                  0.145896
 Thermal correction to Gibbs Free Energy=         0.109115
 Sum of electronic and zero-point Energies=           -229.697838
 Sum of electronic and thermal Energies=              -229.691259
 Sum of electronic and thermal Enthalpies=            -229.690315
 Sum of electronic and thermal Free Energies=         -229.727096

                     E (Thermal)             CV                S
                      KCal/Mol        Cal/Mol-Kelvin    Cal/Mol-Kelvin
 Total                   90.959             23.197             77.412
 Electronic               0.000              0.000              0.000
 Translational            0.889              2.981             38.824
 Rotational               0.889              2.981             25.733
 Vibrational             89.181             17.235             12.855
 Vibration     1          0.616              1.909              2.748
 Vibration     2          0.655              1.786              1.833
 Vibration     3          0.662              1.764              1.738
 Vibration     4          0.675              1.725              1.585
 Vibration     5          0.699              1.656              1.365
 Vibration     6          0.740              1.540              1.093
 Vibration     7          0.778              1.440              0.913
 Vibration     8          0.879              1.196              0.600

 Optimization completed.
    -- Stationary point found.
 Normal termination of Gaussian 09 at Fri Sep 10 21:24:14 2021.
