 Gaussian 09, Revision E.01,
 Gaussian 09:  ES64L-G09RevE.01 30-Nov-2015

 --------------------------------
 #P OPT=calcfc Freq B3LYP/6-31G**
 --------------------------------

 --------
 Frag_397
 --------
 Symbolic Z-matrix:
 Charge =  0 Multiplicity = 1

 SCF Done:  E(RB3LYP) =  -233.686030570     A.U. after   13 cycles
 SCF Done:  E(RB3LYP) =  -233.689146106     A.U. after   11 cycles
 SCF Done:  E(RB3LYP) =  -233.689172448     A.U. after    8 cycles
 SCF Done:  E(RB3LYP) =  -233.689172944     A.U. after    7 cycles
 Optimization completed.
    -- Stationary point found.
 Normal termination of Gaussian 09 at Fri Sep 10 17:46:04 2021.

 ----------------------------------------------------------------------
 #P Geom=AllCheck Guess=TCheck SCRF=Check GenChk RB3LYP/6-31G(d,p) Freq
 ----------------------------------------------------------------------

 Structure from the checkpoint file:  "/public/home/users/caep010/.cache/gau_scr/Gau-148105.chk"
 --------
 Frag_397
 --------
 Charge =  0 Multiplicity = 1

                         Standard orientation:
 ---------------------------------------------------------------------
 Center     Atomic      Atomic             Coordinates (Angstroms)
 Number     Number       Type             X           Y           Z
 ---------------------------------------------------------------------
      1          6           0        0.690698   -1.265226   -0.509635
      2          6           0       -0.005280   -0.000000    0.014090
      3          6           0       -1.489968   -0.000012   -0.357749
      4          6           0        0.690677    1.265238   -0.509634
      5          8           0        0.013470   -0.000001    1.451902
      6          1           0        0.653235   -1.321615   -1.602723
      7          1           0        1.747046   -1.278745   -0.213857
      8          1           0        0.210967   -2.158300   -0.098727
      9          1           0       -1.982652   -0.885595    0.053984
     10          1           0       -1.982667    0.885562    0.053986
     11          1           0       -1.621554   -0.000012   -1.443969
     12          1           0        0.210931    2.158304   -0.098724
     13          1           0        0.653212    1.321628   -1.602721
     14          1           0        1.747025    1.278774   -0.213856
     15          1           0        0.939935    0.000006    1.728957
 ---------------------------------------------------------------------

 SCF Done:  E(RB3LYP) =  -233.689172944     A.U. after    1 cycles

 The electronic state is 1-A.
 Alpha  occ. eigenvalues --  -19.13268 -10.23842 -10.17332 -10.17331 -10.16824
 Alpha  occ. eigenvalues --   -1.00772  -0.78182  -0.68756  -0.68640  -0.56241
 Alpha  occ. eigenvalues --   -0.48247  -0.44565  -0.44302  -0.40690  -0.39341
 Alpha  occ. eigenvalues --   -0.37542  -0.36325  -0.34819  -0.34296  -0.31172
 Alpha  occ. eigenvalues --   -0.25979
 Alpha virt. eigenvalues --    0.06698   0.11419   0.13025   0.15328   0.16035
 Alpha virt. eigenvalues --    0.16137   0.16790   0.19532   0.20082   0.21665
 Alpha virt. eigenvalues --    0.22506   0.24294   0.25674   0.25737   0.50228

 Mulliken charges:
               1
     1  C   -0.308331
     2  C    0.255402
     3  C   -0.295784
     4  C   -0.308331
     5  O   -0.546676
     6  H    0.098944
     7  H    0.086070
     8  H    0.111840
     9  H    0.109815
    10  H    0.109815
    11  H    0.095169
    12  H    0.111840
    13  H    0.098944
    14  H    0.086070
    15  H    0.295213
 Sum of Mulliken charges =  -0.00000

 Dipole moment (field-independent basis, Debye):
    X=              1.1843    Y=              0.0000    Z=             -0.9034  Tot=              1.4896
 Quadrupole moment (field-independent basis, Debye-Ang):
   XX=            -31.3847   YY=            -33.1056   ZZ=            -34.0215
   XY=              0.0000   XZ=              2.7622   YZ=              0.0000

  Exact polarizability:  49.467   0.000  47.100   1.144   0.000  46.623
 Approx polarizability:  65.113   0.000  60.369   1.198   0.000  66.554

                      1                      2                      3
                      A                      A                      A
 Frequencies --    201.4510               258.0747               269.3554
 Red. masses --      1.0148                 1.0520                 1.0423
 Frc consts  --      0.0243                 0.0413                 0.0446
 IR Inten    --      2.4333                 2.3423                 0.0539

                      4                      5                      6
                      A                      A                      A
 Frequencies --    310.6039               336.8541               339.9497
 Red. masses --      1.0611                 2.3242                 2.3358
 Frc consts  --      0.0603                 0.1554                 0.1590
 IR Inten    --     87.1540                 1.1205                19.3979

                      7                      8                      9
                      A                      A                      A
 Frequencies --    412.7944               459.6553               464.6641
 Red. masses --      2.1589                 2.5293                 2.9309
 Frc consts  --      0.2167                 0.3149                 0.3729
 IR Inten    --      0.4909                 8.7466                11.9322

                     10                     11                     12
                      A                      A                      A
 Frequencies --    749.1478               911.7052               924.2736
 Red. masses --      3.7377                 1.6728                 1.7412
 Frc consts  --      1.2359                 0.8192                 0.8764
 IR Inten    --      1.9639                 0.0000                 2.1611

                     13                     14                     15
                      A                      A                      A
 Frequencies --    938.9907               961.1498              1031.6509
 Red. masses --      2.5906                 1.2036                 1.3683
 Frc consts  --      1.3458                 0.6551                 0.8580
 IR Inten    --     36.7001                 0.0017                10.4701

                     16                     17                     18
                      A                      A                      A
 Frequencies --   1049.4092              1167.5343              1248.0201
 Red. masses --      1.4104                 1.4416                 2.6420
 Frc consts  --      0.9151                 1.1578                 2.4246
 IR Inten    --      1.7566                55.6506                52.1016

                     19                     20                     21
                      A                      A                      A
 Frequencies --   1265.4931              1374.2455              1410.2947
 Red. masses --      2.6827                 1.4949                 1.2860
 Frc consts  --      2.5313                 1.6634                 1.5070
 IR Inten    --     26.1644                33.3569                10.0529

                     22                     23                     24
                      A                      A                      A
 Frequencies --   1417.5699              1438.0991              1486.9087
 Red. masses --      1.4293                 1.2533                 1.0479
 Frc consts  --      1.6923                 1.5272                 1.3650
 IR Inten    --     22.8768                 2.1998                 0.0169

                     25                     26                     27
                      A                      A                      A
 Frequencies --   1495.4680              1499.1518              1511.4383
 Red. masses --      1.0460                 1.0438                 1.0618
 Frc consts  --      1.3782                 1.3821                 1.4291
 IR Inten    --      0.0191                 0.0235                 1.8626

                     28                     29                     30
                      A                      A                      A
 Frequencies --   1519.6254              1530.3417              3030.5348
 Red. masses --      1.0895                 1.0600                 1.0377
 Frc consts  --      1.4824                 1.4627                 5.6151
 IR Inten    --      4.2298                 5.3461                16.8808

                     31                     32                     33
                      A                      A                      A
 Frequencies --   3036.2660              3053.2200              3097.0200
 Red. masses --      1.0373                 1.0355                 1.0998
 Frc consts  --      5.6340                 5.6876                 6.2149
 IR Inten    --     33.3366                 7.9302                 2.9893

                     34                     35                     36
                      A                      A                      A
 Frequencies --   3104.5311              3123.7046              3124.3459
 Red. masses --      1.0991                 1.1033                 1.1029
 Frc consts  --      6.2414                 6.3426                 6.3429
 IR Inten    --     60.8521                 5.0056                 4.6485

                     37                     38                     39
                      A                      A                      A
 Frequencies --   3131.6298              3132.5820              3798.8430
 Red. masses --      1.1026                 1.1027                 1.0660
 Frc consts  --      6.3711                 6.3752                 9.0642
 IR Inten    --     38.7851                54.5539                 5.1380

 - Thermochemistry -
 -------------------
 Temperature   298.150 Kelvin.  Pressure   1.00000 Atm.
 Atom     1 has atomic number  6 and mass  12.00000

 Molecular mass:    74.07317 amu.
 Principal axes and moments of inertia in atomic units:
                           1         2         3
     Eigenvalues --   384.99663 387.08889 403.52588
           X            0.98655   0.00000   0.16347
           Y           -0.00000   1.00000   0.00000
           Z           -0.16347  -0.00000   0.98655
 This molecule is an asymmetric top.
 Rotational symmetry number  1.
 Rotational temperatures (Kelvin)      0.22497     0.22376     0.21464
 Rotational constants (GHZ):           4.68768     4.66234     4.47243
 Zero-point vibrational energy     356586.4 (Joules/Mol)
                                   85.22620 (Kcal/Mol)
 Warning -- explicit consideration of   9 degrees of freedom as
           vibrations may cause significant error
 Vibrational temperatures:    289.84   371.31   387.54   446.89   484.66
          (Kelvin)            489.11   593.92   661.34   668.55  1077.86
                             1311.74  1329.82  1351.00  1382.88  1484.31
                             1509.86  1679.82  1795.62  1820.76  1977.23
                             2029.10  2039.56  2069.10  2139.33  2151.64
                             2156.94  2174.62  2186.40  2201.82  4360.26
                             4368.50  4392.90  4455.92  4466.72  4494.31
                             4495.23  4505.71  4507.08  5465.68

 Zero-point correction=                           0.135817 (Hartree/Particle)
 Thermal correction to Energy=                    0.142554
 Thermal correction to Enthalpy=                  0.143498
 Thermal correction to Gibbs Free Energy=         0.106815
 Sum of electronic and zero-point Energies=           -233.553356
 Sum of electronic and thermal Energies=              -233.546619
 Sum of electronic and thermal Enthalpies=            -233.545675
 Sum of electronic and thermal Free Energies=         -233.582358

                     E (Thermal)             CV                S
                      KCal/Mol        Cal/Mol-Kelvin    Cal/Mol-Kelvin
 Total                   89.454             24.889             77.205
 Electronic               0.000              0.000              0.000
 Translational            0.889              2.981             38.823
 Rotational               0.889              2.981             25.600
 Vibrational             87.676             18.928             12.781
 Vibration     1          0.638              1.838              2.120
 Vibration     2          0.667              1.749              1.675
 Vibration     3          0.674              1.730              1.600
 Vibration     4          0.699              1.654              1.359
 Vibration     5          0.718              1.602              1.227
 Vibration     6          0.720              1.596              1.212
 Vibration     7          0.777              1.442              0.917
 Vibration     8          0.818              1.340              0.767
 Vibration     9          0.822              1.328              0.753

 Optimization completed.
    -- Stationary point found.
 Normal termination of Gaussian 09 at Fri Sep 10 17:46:15 2021.
