 Gaussian 09, Revision E.01,
 Gaussian 09:  ES64L-G09RevE.01 30-Nov-2015

 ----------------------------
 #P OPT Freq B3LYP/6-31G(d,p)
 ----------------------------

 ---------
 Frag_1127
 ---------
 Symbolic Z-matrix:
 Charge =  0 Multiplicity = 1

 SCF Done:  E(RB3LYP) =  -264.499678148     A.U. after   14 cycles
 SCF Done:  E(RB3LYP) =  -264.499735333     A.U. after   10 cycles
 SCF Done:  E(RB3LYP) =  -264.499738455     A.U. after    9 cycles
 SCF Done:  E(RB3LYP) =  -264.499739095     A.U. after    8 cycles
 SCF Done:  E(RB3LYP) =  -264.499739474     A.U. after    8 cycles
 SCF Done:  E(RB3LYP) =  -264.499739668     A.U. after    8 cycles
 SCF Done:  E(RB3LYP) =  -264.499739742     A.U. after    7 cycles
 Optimization completed.
    -- Stationary point found.
 Normal termination of Gaussian 09 at Thu Sep  8 14:46:20 2022.

 ----------------------------------------------------------------------
 #P Geom=AllCheck Guess=TCheck SCRF=Check GenChk RB3LYP/6-31G(d,p) Freq
 ----------------------------------------------------------------------

 Structure from the checkpoint file:  "B3LYP6-31Gdp.Frag_1127.chk"
 ---------
 Frag_1127
 ---------
 Charge =  0 Multiplicity = 1

                         Standard orientation:
 ---------------------------------------------------------------------
 Center     Atomic      Atomic             Coordinates (Angstroms)
 Number     Number       Type             X           Y           Z
 ---------------------------------------------------------------------
      1          6           0        1.049945    1.229771   -0.081828
      2          6           0        0.355838   -0.067124    0.327850
      3          8           0        1.124738   -1.214611    0.052496
      4          7           0       -0.906215   -0.174497   -0.442748
      5          7           0       -1.911497    0.096712    0.237138
      6          1           0        1.183249    1.266193   -1.168684
      7          1           0        2.032419    1.279171    0.394527
      8          1           0        0.461098    2.100103    0.222244
      9          1           0        0.142667   -0.080851    1.401815
     10          1           0        1.200171   -1.281007   -0.911031
     11          1           0       -2.728225    0.001897   -0.395694
 ---------------------------------------------------------------------

 SCF Done:  E(RB3LYP) =  -264.499739742     A.U. after    1 cycles

 The electronic state is 1-A.
 Alpha  occ. eigenvalues --  -19.15370 -14.39210 -14.38632 -10.26382 -10.18732
 Alpha  occ. eigenvalues --   -1.05155  -1.01563  -0.77617  -0.69000  -0.60336
 Alpha  occ. eigenvalues --   -0.51845  -0.48765  -0.44797  -0.42023  -0.41755
 Alpha  occ. eigenvalues --   -0.37691  -0.37444  -0.34070  -0.28703  -0.23551
 Alpha virt. eigenvalues --   -0.04964   0.08430   0.10189   0.12912   0.14084
 Alpha virt. eigenvalues --    0.16365   0.17489   0.20655   0.23122   0.26149
 Alpha virt. eigenvalues --    0.36219   0.51774   0.54797   0.56090   0.57395

 Mulliken charges:
               1
     1  C   -0.327483
     2  C    0.280503
     3  O   -0.523053
     4  N   -0.204471
     5  N   -0.258445
     6  H    0.108256
     7  H    0.128347
     8  H    0.119654
     9  H    0.115716
    10  H    0.306764
    11  H    0.254212
 Sum of Mulliken charges =  -0.00000

 Dipole moment (field-independent basis, Debye):
    X=             -0.1248    Y=              1.0352    Z=             -1.3488  Tot=              1.7049
 Quadrupole moment (field-independent basis, Debye-Ang):
   XX=            -27.7900   YY=            -31.2038   ZZ=            -29.8771
   XY=              1.5118   XZ=              0.2884   YZ=              1.4994

  Exact polarizability:  51.601  -1.093  32.598  -0.762   1.760  34.300
 Approx polarizability:  70.670  -5.678  44.171  -4.481   3.211  51.279

                      1                      2                      3
                      A                      A                      A
 Frequencies --     93.6455               231.4144               252.6713
 Red. masses --      6.2683                 1.0771                 1.1195
 Frc consts  --      0.0324                 0.0340                 0.0421
 IR Inten    --      2.7872                13.1592                86.6044

                      4                      5                      6
                      A                      A                      A
 Frequencies --    360.3238               413.7899               442.4305
 Red. masses --      3.1159                 2.7423                 3.5744
 Frc consts  --      0.2384                 0.2766                 0.4122
 IR Inten    --      0.3663                 4.6294                44.8847

                      7                      8                      9
                      A                      A                      A
 Frequencies --    585.0607               835.1496               893.9192
 Red. masses --      3.9563                 2.0740                 1.7459
 Frc consts  --      0.7979                 0.8523                 0.8220
 IR Inten    --      6.8878                14.1366                22.0937

                     10                     11                     12
                      A                      A                      A
 Frequencies --    962.9862              1074.1004              1104.7400
 Red. masses --      1.5669                 1.8174                 1.7528
 Frc consts  --      0.8561                 1.2354                 1.2604
 IR Inten    --     10.6769                68.7480                31.6862

                     13                     14                     15
                      A                      A                      A
 Frequencies --   1163.0890              1312.6473              1347.8368
 Red. masses --      2.2301                 1.5101                 1.3502
 Frc consts  --      1.7775                 1.5330                 1.4451
 IR Inten    --    115.4585                 7.8404                14.9130

                     16                     17                     18
                      A                      A                      A
 Frequencies --   1407.3893              1425.3831              1493.4055
 Red. masses --      1.2317                 1.2459                 1.2165
 Frc consts  --      1.4374                 1.4914                 1.5985
 IR Inten    --      8.8647                73.5813                19.4350

                     19                     20                     21
                      A                      A                      A
 Frequencies --   1501.1443              1507.1295              1668.1107
 Red. masses --      1.0801                 1.0801                11.2349
 Frc consts  --      1.4340                 1.4454                18.4192
 IR Inten    --     12.8902                12.9402                 1.6189

                     22                     23                     24
                      A                      A                      A
 Frequencies --   3048.6075              3083.6039              3126.0634
 Red. masses --      1.0358                 1.0874                 1.1011
 Frc consts  --      5.6722                 6.0917                 6.3399
 IR Inten    --     11.1195                14.3154                25.8817

                     25                     26                     27
                      A                      A                      A
 Frequencies --   3142.8346              3241.7970              3783.6421
 Red. masses --      1.1035                 1.0741                 1.0653
 Frc consts  --      6.4219                 6.6510                 8.9856
 IR Inten    --     12.7386                38.4742                17.8161

 - Thermochemistry -
 -------------------
 Temperature   298.150 Kelvin.  Pressure   1.00000 Atm.
 Atom     1 has atomic number  6 and mass  12.00000

 Molecular mass:    74.04801 amu.
 Principal axes and moments of inertia in atomic units:
                           1         2         3
     Eigenvalues --   217.38633 435.82617 585.39989
           X            0.99827   0.05866  -0.00253
           Y           -0.05862   0.99821   0.01213
           Z            0.00324  -0.01196   0.99992
 This molecule is an asymmetric top.
 Rotational symmetry number  1.
 Rotational temperatures (Kelvin)      0.39843     0.19873     0.14796
 Rotational constants (GHZ):           8.30200     4.14097     3.08292
 Zero-point vibrational energy     236279.9 (Joules/Mol)
                                   56.47225 (Kcal/Mol)
 Warning -- explicit consideration of   7 degrees of freedom as
           vibrations may cause significant error
 Vibrational temperatures:    134.73   332.95   363.54   518.42   595.35
          (Kelvin)            636.56   841.77  1201.59  1286.15  1385.52
                             1545.39  1589.47  1673.42  1888.60  1939.23
                             2024.92  2050.81  2148.67  2159.81  2168.42
                             2400.04  4386.26  4436.61  4497.70  4521.83
                             4664.22  5443.81

 Zero-point correction=                           0.089994 (Hartree/Particle)
 Thermal correction to Energy=                    0.095943
 Thermal correction to Enthalpy=                  0.096888
 Thermal correction to Gibbs Free Energy=         0.060983
 Sum of electronic and zero-point Energies=           -264.409745
 Sum of electronic and thermal Energies=              -264.403796
 Sum of electronic and thermal Enthalpies=            -264.402852
 Sum of electronic and thermal Free Energies=         -264.438757

                     E (Thermal)             CV                S
                      KCal/Mol        Cal/Mol-Kelvin    Cal/Mol-Kelvin
 Total                   60.205             19.968             75.567
 Electronic               0.000              0.000              0.000
 Translational            0.889              2.981             38.822
 Rotational               0.889              2.981             25.520
 Vibrational             58.428             14.007             11.225
 Vibration     1          0.603              1.954              3.582
 Vibration     2          0.653              1.793              1.868
 Vibration     3          0.664              1.758              1.712
 Vibration     4          0.735              1.554              1.121
 Vibration     5          0.777              1.440              0.913
 Vibration     6          0.802              1.378              0.819
 Vibration     7          0.942              1.064              0.476

 Normal termination of Gaussian 09 at Thu Sep  8 14:46:28 2022.
