 Gaussian 09, Revision E.01,
 Gaussian 09:  ES64L-G09RevE.01 30-Nov-2015

 --------------------------------
 #P OPT=calcfc Freq B3LYP/6-31G**
 --------------------------------

 --------
 Frag_335
 --------
 Symbolic Z-matrix:
 Charge =  0 Multiplicity = 1

 SCF Done:  E(RB3LYP) =  -270.527876939     A.U. after   14 cycles
 SCF Done:  E(RB3LYP) =  -270.538899316     A.U. after   12 cycles
 SCF Done:  E(RB3LYP) =  -270.540852458     A.U. after   13 cycles
 SCF Done:  E(RB3LYP) =  -270.540779507     A.U. after   12 cycles
 SCF Done:  E(RB3LYP) =  -270.541109869     A.U. after   10 cycles
 SCF Done:  E(RB3LYP) =  -270.541160183     A.U. after   11 cycles
 SCF Done:  E(RB3LYP) =  -270.541169529     A.U. after   10 cycles
 SCF Done:  E(RB3LYP) =  -270.541169634     A.U. after    7 cycles
 Optimization completed.
    -- Stationary point found.
 Normal termination of Gaussian 09 at Fri Sep 10 20:41:41 2021.

 ----------------------------------------------------------------------
 #P Geom=AllCheck Guess=TCheck SCRF=Check GenChk RB3LYP/6-31G(d,p) Freq
 ----------------------------------------------------------------------

 Structure from the checkpoint file:  "/public/home/users/caep010/.cache/gau_scr/Gau-147372.chk"
 --------
 Frag_335
 --------
 Charge =  0 Multiplicity = 1

                         Standard orientation:
 ---------------------------------------------------------------------
 Center     Atomic      Atomic             Coordinates (Angstroms)
 Number     Number       Type             X           Y           Z
 ---------------------------------------------------------------------
      1          6           0       -1.183586    1.384013   -0.187766
      2          6           0       -0.699668    0.141898   -0.019129
      3          6           0       -1.621297   -1.039968    0.160329
      4          6           0        0.760149   -0.110087   -0.006043
      5          6           0        1.322905   -1.317778   -0.162471
      6          8           0        1.583223    0.982316    0.137069
      7          1           0       -0.542898    2.236903   -0.388999
      8          1           0       -2.250810    1.578538   -0.174089
      9          1           0       -1.534440   -1.736733   -0.681362
     10          1           0       -1.378801   -1.601720    1.068252
     11          1           0       -2.662880   -0.715874    0.217434
     12          1           0        0.726133   -2.198220   -0.356204
     13          1           0        2.400580   -1.423880   -0.134425
     14          1           0        1.106316    1.653992    0.643326
 ---------------------------------------------------------------------

 SCF Done:  E(RB3LYP) =  -270.541169634     A.U. after    1 cycles

 The electronic state is 1-A.
 Alpha  occ. eigenvalues --  -19.16643 -10.24313 -10.20894 -10.18840 -10.18809
 Alpha  occ. eigenvalues --  -10.16826  -1.04733  -0.81377  -0.73945  -0.69293
 Alpha  occ. eigenvalues --   -0.60199  -0.56152  -0.49671  -0.46017  -0.43104
 Alpha  occ. eigenvalues --   -0.41863  -0.40782  -0.39666  -0.37899  -0.36089
 Alpha  occ. eigenvalues --   -0.33109  -0.27454  -0.21971
 Alpha virt. eigenvalues --   -0.02232   0.07790   0.09129   0.11192   0.13247
 Alpha virt. eigenvalues --    0.15302   0.15830   0.17579   0.18685   0.20349
 Alpha virt. eigenvalues --    0.24138   0.29269   0.32178   0.35703   0.39008

 Mulliken charges:
               1
     1  C   -0.309301
     2  C    0.131176
     3  C   -0.377388
     4  C    0.340359
     5  C   -0.305469
     6  O   -0.550374
     7  H    0.097029
     8  H    0.101053
     9  H    0.127324
    10  H    0.125640
    11  H    0.110061
    12  H    0.095489
    13  H    0.106110
    14  H    0.308292
 Sum of Mulliken charges =  -0.00000

 Dipole moment (field-independent basis, Debye):
    X=             -1.6399    Y=              0.2132    Z=              0.6841  Tot=              1.7896
 Quadrupole moment (field-independent basis, Debye-Ang):
   XX=            -37.9886   YY=            -32.7869   ZZ=            -38.2683
   XY=             -0.3716   XZ=              0.6354   YZ=              1.6178

  Exact polarizability:  64.952 -13.773  77.900  -0.068   0.735  29.818
 Approx polarizability:  89.751 -30.491 132.026   0.055   1.749  43.046

                      1                      2                      3
                      A                      A                      A
 Frequencies --     92.5108               196.1378               286.7310
 Red. masses --      3.4490                 1.0432                 2.9374
 Frc consts  --      0.0174                 0.0236                 0.1423
 IR Inten    --      0.4113                 0.8521                 6.9088

                      4                      5                      6
                      A                      A                      A
 Frequencies --    344.2943               388.2155               418.5901
 Red. masses --      2.7710                 1.7724                 1.4690
 Frc consts  --      0.1935                 0.1574                 0.1517
 IR Inten    --      1.2389                47.4676                62.2784

                      7                      8                      9
                      A                      A                      A
 Frequencies --    478.6519               530.3485               614.3314
 Red. masses --      2.3924                 2.9140                 1.7733
 Frc consts  --      0.3229                 0.4829                 0.3943
 IR Inten    --      8.3203                 5.6053                 3.3106

                     10                     11                     12
                      A                      A                      A
 Frequencies --    719.1816               760.8457               786.6713
 Red. masses --      1.2395                 3.3316                 1.2573
 Frc consts  --      0.3777                 1.1363                 0.4584
 IR Inten    --      6.7094                 3.9400                 4.7798

                     13                     14                     15
                      A                      A                      A
 Frequencies --    854.9986               921.1147               956.6227
 Red. masses --      1.4171                 1.3589                 1.8607
 Frc consts  --      0.6104                 0.6793                 1.0033
 IR Inten    --     54.0352                38.3020                 1.3642

                     16                     17                     18
                      A                      A                      A
 Frequencies --    984.8931              1028.3570              1074.7127
 Red. masses --      1.8974                 1.3554                 1.4786
 Frc consts  --      1.0844                 0.8445                 1.0062
 IR Inten    --     30.4185                 1.0924                 1.1755

                     19                     20                     21
                      A                      A                      A
 Frequencies --   1196.8582              1268.4331              1382.4041
 Red. masses --      1.9473                 1.4904                 2.9959
 Frc consts  --      1.6435                 1.4129                 3.3732
 IR Inten    --      0.5431               160.2846                67.6820

                     22                     23                     24
                      A                      A                      A
 Frequencies --   1424.4466              1439.1665              1456.5518
 Red. masses --      1.4319                 1.1857                 1.2386
 Frc consts  --      1.7118                 1.4469                 1.5483
 IR Inten    --      1.3606                 6.9312                 2.3842

                     25                     26                     27
                      A                      A                      A
 Frequencies --   1492.7520              1514.0184              1683.6349
 Red. masses --      1.0475                 1.0584                 4.2466
 Frc consts  --      1.3752                 1.4295                 7.0923
 IR Inten    --      7.2686                 8.6220                44.8820

                     28                     29                     30
                      A                      A                      A
 Frequencies --   1729.0206              3045.4090              3103.0588
 Red. masses --      5.2580                 1.0376                 1.0994
 Frc consts  --      9.2613                 5.6700                 6.2372
 IR Inten    --     11.7429                15.6578                16.5915

                     31                     32                     33
                      A                      A                      A
 Frequencies --   3137.1102              3164.0905              3195.8017
 Red. masses --      1.1022                 1.0603                 1.0602
 Frc consts  --      6.3908                 6.2544                 6.3798
 IR Inten    --     16.9497                 3.3894                 0.1971

                     34                     35                     36
                      A                      A                      A
 Frequencies --   3246.3110              3290.4240              3801.6338
 Red. masses --      1.1156                 1.1170                 1.0653
 Frc consts  --      6.9269                 7.1254                 9.0715
 IR Inten    --     11.4094                 4.9374                22.4831

 - Thermochemistry -
 -------------------
 Temperature   298.150 Kelvin.  Pressure   1.00000 Atm.
 Atom     1 has atomic number  6 and mass  12.00000

 Molecular mass:    84.05751 amu.
 Principal axes and moments of inertia in atomic units:
                           1         2         3
     Eigenvalues --   355.95118 536.56481 865.63264
           X            0.99978  -0.02073  -0.00197
           Y            0.02073   0.99978   0.00224
           Z            0.00193  -0.00228   1.00000
 This molecule is an asymmetric top.
 Rotational symmetry number  1.
 Rotational temperatures (Kelvin)      0.24333     0.16142     0.10006
 Rotational constants (GHZ):           5.07019     3.36351     2.08488
 Zero-point vibrational energy     311078.9 (Joules/Mol)
                                   74.34964 (Kcal/Mol)
 Warning -- explicit consideration of   9 degrees of freedom as
           vibrations may cause significant error
 Vibrational temperatures:    133.10   282.20   412.54   495.36   558.55
          (Kelvin)            602.26   688.67   763.05   883.88  1034.74
                             1094.69  1131.84  1230.15  1325.28  1376.36
                             1417.04  1479.57  1546.27  1722.01  1824.99
                             1988.97  2049.46  2070.64  2095.65  2147.73
                             2178.33  2422.37  2487.67  4381.66  4464.60
                             4513.60  4552.41  4598.04  4670.71  4734.18
                             5469.70

 Zero-point correction=                           0.118484 (Hartree/Particle)
 Thermal correction to Energy=                    0.125250
 Thermal correction to Enthalpy=                  0.126194
 Thermal correction to Gibbs Free Energy=         0.088436
 Sum of electronic and zero-point Energies=           -270.422686
 Sum of electronic and thermal Energies=              -270.415920
 Sum of electronic and thermal Enthalpies=            -270.414975
 Sum of electronic and thermal Free Energies=         -270.452734

                     E (Thermal)             CV                S
                      KCal/Mol        Cal/Mol-Kelvin    Cal/Mol-Kelvin
 Total                   78.596             25.125             79.470
 Electronic               0.000              0.000              0.000
 Translational            0.889              2.981             39.200
 Rotational               0.889              2.981             26.605
 Vibrational             76.818             19.164             13.664
 Vibration     1          0.602              1.955              3.606
 Vibration     2          0.636              1.845              2.169
 Vibration     3          0.684              1.698              1.493
 Vibration     4          0.723              1.587              1.192
 Vibration     5          0.756              1.495              1.007
 Vibration     6          0.781              1.430              0.897
 Vibration     7          0.835              1.297              0.714
 Vibration     8          0.885              1.183              0.586
 Vibration     9          0.974              1.002              0.426

 Optimization completed.
    -- Stationary point found.
 Normal termination of Gaussian 09 at Fri Sep 10 20:41:52 2021.
