 Gaussian 09, Revision E.01,
 Gaussian 09:  ES64L-G09RevE.01 30-Nov-2015

 ----------------------------
 #P OPT Freq B3LYP/6-31G(d,p)
 ----------------------------

 --------
 Frag_848
 --------
 Symbolic Z-matrix:
 Charge =  0 Multiplicity = 1

 SCF Done:  E(RB3LYP) =  -269.065529826     A.U. after   14 cycles
 SCF Done:  E(RB3LYP) =  -269.065574187     A.U. after   11 cycles
 SCF Done:  E(RB3LYP) =  -269.065578661     A.U. after    8 cycles
 SCF Done:  E(RB3LYP) =  -269.065580752     A.U. after    7 cycles
 Optimization completed.
    -- Stationary point found.
 Normal termination of Gaussian 09 at Thu Sep  8 15:10:44 2022.

 ----------------------------------------------------------------------
 #P Geom=AllCheck Guess=TCheck SCRF=Check GenChk RB3LYP/6-31G(d,p) Freq
 ----------------------------------------------------------------------

 Structure from the checkpoint file:  "B3LYP6-31Gdp.Frag_848.chk"
 --------
 Frag_848
 --------
 Charge =  0 Multiplicity = 1

                         Standard orientation:
 ---------------------------------------------------------------------
 Center     Atomic      Atomic             Coordinates (Angstroms)
 Number     Number       Type             X           Y           Z
 ---------------------------------------------------------------------
      1          6           0       -1.612463   -0.000311   -0.953668
      2          6           0       -0.390136   -0.000006   -0.022639
      3          6           0       -0.450156    1.265484    0.876355
      4          6           0       -0.449847   -1.265189    0.876801
      5          7           0        0.742268    0.000000   -0.947223
      6          7           0        1.965728    0.000009   -0.165910
      7          1           0       -1.589810    0.883278   -1.598640
      8          1           0       -2.549700   -0.000047   -0.386441
      9          1           0       -1.589920   -0.884364   -1.598005
     10          1           0       -1.353727    1.289728    1.496518
     11          1           0       -0.431775    2.165371    0.253409
     12          1           0        0.396281    1.323230    1.577916
     13          1           0       -1.353654   -1.289654    1.496606
     14          1           0        0.396350   -1.322234    1.578699
     15          1           0       -0.430801   -2.165294    0.254179
     16          1           0        2.722125    0.000113   -0.848980
     17          1           0        2.122186   -0.824501    0.452720
     18          1           0        2.122083    0.824438    0.452858
 ---------------------------------------------------------------------

 SCF Done:  E(RB3LYP) =  -269.065580752     A.U. after    1 cycles

 The electronic state is 1-A.
 Alpha  occ. eigenvalues --  -14.45005 -14.24797 -10.18521 -10.15522 -10.15521
 Alpha  occ. eigenvalues --  -10.14262  -0.98901  -0.80573  -0.69665  -0.66623
 Alpha  occ. eigenvalues --   -0.65821  -0.56602  -0.54524  -0.51263  -0.44559
 Alpha  occ. eigenvalues --   -0.41401  -0.40732  -0.37498  -0.36685  -0.34231
 Alpha  occ. eigenvalues --   -0.34165  -0.30583  -0.30349  -0.22149  -0.14045
 Alpha virt. eigenvalues --    0.02802   0.09304   0.09759   0.11323   0.14726
 Alpha virt. eigenvalues --    0.16882   0.17503   0.19122   0.19721   0.19811
 Alpha virt. eigenvalues --    0.20959   0.22979   0.24212   0.24704   0.26682

 Mulliken charges:
               1
     1  C   -0.289169
     2  C    0.191905
     3  C   -0.309151
     4  C   -0.309189
     5  N   -0.512897
     6  N   -0.381374
     7  H    0.099833
     8  H    0.076122
     9  H    0.099815
    10  H    0.091052
    11  H    0.102280
    12  H    0.048374
    13  H    0.091072
    14  H    0.048390
    15  H    0.102270
    16  H    0.321298
    17  H    0.264691
    18  H    0.264681
 Sum of Mulliken charges =   0.00000

 Dipole moment (field-independent basis, Debye):
    X=              3.8456    Y=             -0.0001    Z=              2.2239  Tot=              4.4423
 Quadrupole moment (field-independent basis, Debye-Ang):
   XX=            -27.5842   YY=            -40.7644   ZZ=            -44.0382
   XY=              0.0001   XZ=              1.1803   YZ=             -0.0003

  Exact polarizability:  70.871  -0.001  57.222   2.752   0.001  58.637
 Approx polarizability:  95.950  -0.001  77.293   5.077   0.002  87.773

                      1                      2                      3
                      A                      A                      A
 Frequencies --     97.9032               212.1676               243.3263
 Red. masses --      1.7898                 1.1495                 1.0330
 Frc consts  --      0.0101                 0.0305                 0.0360
 IR Inten    --     25.2483                 4.4091                 2.4679

                      4                      5                      6
                      A                      A                      A
 Frequencies --    251.1791               261.1289               271.6907
 Red. masses --      1.0350                 1.1602                 2.5261
 Frc consts  --      0.0385                 0.0466                 0.1099
 IR Inten    --      0.2415                 5.6102                15.6407

                      7                      8                      9
                      A                      A                      A
 Frequencies --    342.9021               360.7822               405.1205
 Red. masses --      2.3775                 2.2832                 2.2940
 Frc consts  --      0.1647                 0.1751                 0.2218
 IR Inten    --      6.3047                 7.4340                 4.3388

                     10                     11                     12
                      A                      A                      A
 Frequencies --    464.1905               509.2245               698.0211
 Red. masses --      2.7395                 2.5219                 4.2281
 Frc consts  --      0.3478                 0.3853                 1.2138
 IR Inten    --     20.3541                 6.8290                13.0610

                     13                     14                     15
                      A                      A                      A
 Frequencies --    765.1913               873.6428               908.7205
 Red. masses --      4.9469                 1.7820                 2.2769
 Frc consts  --      1.7066                 0.8013                 1.1078
 IR Inten    --     12.1095                 1.1610                21.0740

                     16                     17                     18
                      A                      A                      A
 Frequencies --    922.0413               945.1210              1023.2898
 Red. masses --      1.7675                 1.2039                 1.4041
 Frc consts  --      0.8854                 0.6336                 0.8663
 IR Inten    --      1.8626                 0.0248                 7.2735

                     19                     20                     21
                      A                      A                      A
 Frequencies --   1031.1141              1075.2852              1141.9050
 Red. masses --      1.3682                 1.2771                 1.5563
 Frc consts  --      0.8571                 0.8700                 1.1956
 IR Inten    --      1.5023                16.3773                15.5146

                     22                     23                     24
                      A                      A                      A
 Frequencies --   1222.4802              1239.7195              1272.4125
 Red. masses --      2.5057                 2.6563                 2.9305
 Frc consts  --      2.2063                 2.4053                 2.7954
 IR Inten    --     28.3041                51.4155                 3.4427

                     25                     26                     27
                      A                      A                      A
 Frequencies --   1391.0310              1396.1338              1423.4971
 Red. masses --      1.2407                 1.2687                 1.2398
 Frc consts  --      1.4144                 1.4570                 1.4802
 IR Inten    --      6.3625                 5.3831                 5.2251

                     28                     29                     30
                      A                      A                      A
 Frequencies --   1474.7435              1485.4536              1491.3711
 Red. masses --      1.1170                 1.0516                 1.0484
 Frc consts  --      1.4313                 1.3672                 1.3738
 IR Inten    --     11.2237                 0.0012                 0.7543

                     31                     32                     33
                      A                      A                      A
 Frequencies --   1500.1989              1514.7318              1518.9535
 Red. masses --      1.0538                 1.0570                 1.0549
 Frc consts  --      1.3973                 1.4289                 1.4340
 IR Inten    --      1.1614                 1.4802                 3.5430

                     34                     35                     36
                      A                      A                      A
 Frequencies --   1534.2853              1619.6004              1677.6579
 Red. masses --      1.0600                 1.0604                 1.0510
 Frc consts  --      1.4701                 1.6388                 1.7428
 IR Inten    --      5.2261                12.9465                58.0855

                     37                     38                     39
                      A                      A                      A
 Frequencies --   2997.3100              3004.5800              3041.7896
 Red. masses --      1.0478                 1.0476                 1.0358
 Frc consts  --      5.5460                 5.5719                 5.6464
 IR Inten    --     15.9333                66.0814                16.3134

                     40                     41                     42
                      A                      A                      A
 Frequencies --   3061.0394              3069.5008              3072.1452
 Red. masses --      1.0931                 1.0879                 1.0849
 Frc consts  --      6.0347                 6.0391                 6.0330
 IR Inten    --      5.7596                51.9256                91.0860

                     43                     44                     45
                      A                      A                      A
 Frequencies --   3109.8254              3112.0982              3113.7377
 Red. masses --      1.0723                 1.1024                 1.0807
 Frc consts  --      6.1100                 6.2904                 6.1732
 IR Inten    --     93.9896                11.4610                90.6503

                     46                     47                     48
                      A                      A                      A
 Frequencies --   3121.3519              3124.1581              3526.7756
 Red. masses --      1.0825                 1.1020                 1.0777
 Frc consts  --      6.2140                 6.3375                 7.8980
 IR Inten    --     86.3275                39.6372                44.8599

 - Thermochemistry -
 -------------------
 Temperature   298.150 Kelvin.  Pressure   1.00000 Atm.
 Atom     1 has atomic number  6 and mass  12.00000

 Molecular mass:    88.10005 amu.
 Principal axes and moments of inertia in atomic units:
                           1         2         3
     Eigenvalues --   413.94282 678.68949 680.52832
           X            0.99939   0.03491   0.00000
           Y            0.00000  -0.00014   1.00000
           Z           -0.03491   0.99939   0.00014
 This molecule is an asymmetric top.
 Rotational symmetry number  1.
 Rotational temperatures (Kelvin)      0.20924     0.12762     0.12727
 Rotational constants (GHZ):           4.35988     2.65916     2.65197
 Zero-point vibrational energy     430180.3 (Joules/Mol)
                                  102.81556 (Kcal/Mol)
 Warning -- explicit consideration of  11 degrees of freedom as
           vibrations may cause significant error
 Vibrational temperatures:    140.86   305.26   350.09   361.39   375.71
          (Kelvin)            390.90   493.36   519.08   582.88   667.87
                              732.66  1004.30  1100.94  1256.98  1307.44
                             1326.61  1359.82  1472.28  1483.54  1547.09
                             1642.94  1758.87  1783.68  1830.72  2001.38
                             2008.72  2048.09  2121.82  2137.23  2145.75
                             2158.45  2179.36  2185.43  2207.49  2330.24
                             2413.77  4312.46  4322.92  4376.45  4404.15
                             4416.32  4420.13  4474.34  4477.61  4479.97
                             4490.92  4494.96  5074.24

 Zero-point correction=                           0.163847 (Hartree/Particle)
 Thermal correction to Energy=                    0.171989
 Thermal correction to Enthalpy=                  0.172933
 Thermal correction to Gibbs Free Energy=         0.132727
 Sum of electronic and zero-point Energies=           -268.901734
 Sum of electronic and thermal Energies=              -268.893592
 Sum of electronic and thermal Enthalpies=            -268.892647
 Sum of electronic and thermal Free Energies=         -268.932854

                     E (Thermal)             CV                S
                      KCal/Mol        Cal/Mol-Kelvin    Cal/Mol-Kelvin
 Total                  107.925             30.082             84.622
 Electronic               0.000              0.000              0.000
 Translational            0.889              2.981             39.340
 Rotational               0.889              2.981             26.750
 Vibrational            106.147             24.120             18.532
 Vibration     1          0.603              1.951              3.496
 Vibration     2          0.643              1.822              2.025
 Vibration     3          0.659              1.774              1.778
 Vibration     4          0.663              1.761              1.722
 Vibration     5          0.669              1.744              1.654
 Vibration     6          0.675              1.725              1.585
 Vibration     7          0.722              1.590              1.199
 Vibration     8          0.735              1.553              1.119
 Vibration     9          0.770              1.459              0.944
 Vibration    10          0.822              1.329              0.754
 Vibration    11          0.864              1.230              0.635

 Optimization completed.
    -- Stationary point found.
 Normal termination of Gaussian 09 at Thu Sep  8 15:11:00 2022.
