 Gaussian 09, Revision E.01,
 Gaussian 09:  ES64L-G09RevE.01 30-Nov-2015

 --------------------------------
 #P OPT=calcfc Freq B3LYP/6-31G**
 --------------------------------

 --------
 Frag_293
 --------
 Symbolic Z-matrix:
 Charge =  0 Multiplicity = 1

 SCF Done:  E(RB3LYP) =  -291.209116788     A.U. after   14 cycles
 SCF Done:  E(RB3LYP) =  -291.215279890     A.U. after   13 cycles
 SCF Done:  E(RB3LYP) =  -291.216844745     A.U. after   13 cycles
 SCF Done:  E(RB3LYP) =  -291.217116608     A.U. after   10 cycles
 SCF Done:  E(RB3LYP) =  -291.217129048     A.U. after   10 cycles
 SCF Done:  E(RB3LYP) =  -291.217131686     A.U. after    9 cycles
 SCF Done:  E(RB3LYP) =  -291.217133795     A.U. after    8 cycles
 SCF Done:  E(RB3LYP) =  -291.217133943     A.U. after    6 cycles
 Optimization completed.
    -- Stationary point found.
 Normal termination of Gaussian 09 at Fri Sep 10 17:31:00 2021.

 ----------------------------------------------------------------------
 #P Geom=AllCheck Guess=TCheck SCRF=Check GenChk RB3LYP/6-31G(d,p) Freq
 ----------------------------------------------------------------------

 Structure from the checkpoint file:  "/public/home/users/caep010/.cache/gau_scr/Gau-58717.chk"
 --------
 Frag_293
 --------
 Charge =  0 Multiplicity = 1

                         Standard orientation:
 ---------------------------------------------------------------------
 Center     Atomic      Atomic             Coordinates (Angstroms)
 Number     Number       Type             X           Y           Z
 ---------------------------------------------------------------------
      1          6           0       -1.506984    1.387542   -0.024579
      2          6           0       -0.935716    0.178871   -0.014487
      3          6           0       -1.779905   -1.075147    0.011980
      4          6           0        0.591644    0.005676   -0.004984
      5          6           0        1.056950   -0.364479    1.419673
      6          6           0        1.024360   -1.104906   -0.993374
      7          7           0        1.227611    1.294088   -0.337365
      8          1           0       -2.588444    1.493565   -0.012229
      9          1           0       -0.913740    2.294016   -0.027393
     10          1           0       -2.836044   -0.827188    0.144127
     11          1           0       -1.490080   -1.747784    0.828274
     12          1           0       -1.685654   -1.650916   -0.916246
     13          1           0        0.588543   -1.288547    1.770050
     14          1           0        2.142800   -0.518751    1.438530
     15          1           0        0.809307    0.442015    2.113638
     16          1           0        0.690688   -0.872909   -2.011281
     17          1           0        2.117489   -1.181640   -1.005356
     18          1           0        0.629006   -2.089716   -0.725765
     19          1           0        2.239019    1.181681   -0.300777
     20          1           0        1.001740    1.542211   -1.299394
 ---------------------------------------------------------------------

 SCF Done:  E(RB3LYP) =  -291.217133943     A.U. after    1 cycles

 The electronic state is 1-A.
 Alpha  occ. eigenvalues --  -14.30717 -10.22147 -10.18414 -10.17664 -10.17414
 Alpha  occ. eigenvalues --  -10.17140 -10.15939  -0.88914  -0.78502  -0.73409
 Alpha  occ. eigenvalues --   -0.68603  -0.67280  -0.59245  -0.50682  -0.48347
 Alpha  occ. eigenvalues --   -0.45516  -0.44067  -0.41995  -0.41032  -0.39826
 Alpha  occ. eigenvalues --   -0.38278  -0.37642  -0.36715  -0.34792  -0.33777
 Alpha  occ. eigenvalues --   -0.31447  -0.23970  -0.23047
 Alpha virt. eigenvalues --    0.03185   0.07294   0.11827   0.12993   0.13635
 Alpha virt. eigenvalues --    0.14130   0.14888   0.17294   0.17526   0.18389
 Alpha virt. eigenvalues --    0.19934   0.20420   0.20680   0.22258   0.24098

 Mulliken charges:
               1
     1  C   -0.286842
     2  C    0.167111
     3  C   -0.370967
     4  C    0.099094
     5  C   -0.292578
     6  C   -0.312144
     7  N   -0.590008
     8  H    0.077930
     9  H    0.113132
    10  H    0.107177
    11  H    0.109905
    12  H    0.114661
    13  H    0.098535
    14  H    0.089713
    15  H    0.122970
    16  H    0.098798
    17  H    0.090588
    18  H    0.101268
    19  H    0.229252
    20  H    0.232409
 Sum of Mulliken charges =  -0.00000

 Dipole moment (field-independent basis, Debye):
    X=              0.7041    Y=             -1.1110    Z=             -0.7993  Tot=              1.5391
 Quadrupole moment (field-independent basis, Debye-Ang):
   XX=            -42.6125   YY=            -47.2546   ZZ=            -45.3905
   XY=              0.5256   XZ=             -1.0741   YZ=             -1.8575

  Exact polarizability:  77.668  -4.750  77.607   0.353  -1.317  57.474
 Approx polarizability: 102.888  -9.723 116.510   1.148  -2.909  79.668

                      1                      2                      3
                      A                      A                      A
 Frequencies --     77.8563               200.7479               229.2956
 Red. masses --      2.8486                 1.0642                 1.3524
 Frc consts  --      0.0102                 0.0253                 0.0419
 IR Inten    --      0.0899                 0.0910                 0.2809

                      4                      5                      6
                      A                      A                      A
 Frequencies --    248.9815               290.8022               314.2561
 Red. masses --      1.5406                 1.6950                 1.1863
 Frc consts  --      0.0563                 0.0845                 0.0690
 IR Inten    --      3.4769                 0.3651                23.7981

                      7                      8                      9
                      A                      A                      A
 Frequencies --    323.3510               349.1410               402.0799
 Red. masses --      1.2816                 2.2486                 2.4926
 Frc consts  --      0.0790                 0.1615                 0.2374
 IR Inten    --      8.4614                 2.3278                 8.2814

                     10                     11                     12
                      A                      A                      A
 Frequencies --    414.8529               469.9577               504.6794
 Red. masses --      2.5112                 2.4061                 2.5981
 Frc consts  --      0.2546                 0.3131                 0.3899
 IR Inten    --      4.1699                 0.1725                 9.2743

                     13                     14                     15
                      A                      A                      A
 Frequencies --    568.5866               683.1029               760.3817
 Red. masses --      2.4628                 3.1522                 1.1024
 Frc consts  --      0.4691                 0.8666                 0.3755
 IR Inten    --      8.2748                 0.0388                 0.4456

                     16                     17                     18
                      A                      A                      A
 Frequencies --    855.6793               910.1143               926.1455
 Red. masses --      2.3531                 1.4716                 1.5512
 Frc consts  --      1.0151                 0.7182                 0.7839
 IR Inten    --     47.8105                77.4077                 1.1698

                     19                     20                     21
                      A                      A                      A
 Frequencies --    947.3919               961.0663               971.5975
 Red. masses --      1.4489                 1.5993                 1.7648
 Frc consts  --      0.7662                 0.8703                 0.9815
 IR Inten    --     21.4205                14.3322                 0.6109

                     22                     23                     24
                      A                      A                      A
 Frequencies --   1025.1269              1028.1858              1077.2069
 Red. masses --      1.3104                 1.3009                 1.4880
 Frc consts  --      0.8114                 0.8103                 1.0173
 IR Inten    --      3.1438                 1.1259                 2.8464

                     25                     26                     27
                      A                      A                      A
 Frequencies --   1100.6229              1200.3057              1222.6705
 Red. masses --      1.4958                 2.6275                 2.4175
 Frc consts  --      1.0676                 2.2304                 2.1293
 IR Inten    --      6.9437                32.8280                18.7340

                     28                     29                     30
                      A                      A                      A
 Frequencies --   1291.3584              1348.9924              1404.2507
 Red. masses --      2.3253                 2.1664                 1.2409
 Frc consts  --      2.2846                 2.3228                 1.4417
 IR Inten    --      4.7322                 2.1608                 6.3971

                     31                     32                     33
                      A                      A                      A
 Frequencies --   1421.7937              1427.9069              1448.0974
 Red. masses --      1.2631                 1.2140                 1.2225
 Frc consts  --      1.5044                 1.4584                 1.5104
 IR Inten    --      2.6181                 3.2911                 6.1268

                     34                     35                     36
                      A                      A                      A
 Frequencies --   1492.5206              1496.4438              1502.7243
 Red. masses --      1.0467                 1.0487                 1.0526
 Frc consts  --      1.3738                 1.3836                 1.4004
 IR Inten    --      5.8252                 0.5358                 4.6623

                     37                     38                     39
                      A                      A                      A
 Frequencies --   1510.6747              1518.8424              1527.5659
 Red. masses --      1.0469                 1.0520                 1.0689
 Frc consts  --      1.4076                 1.4299                 1.4696
 IR Inten    --      8.1128                 5.4556                 1.5984

                     40                     41                     42
                      A                      A                      A
 Frequencies --   1656.0152              1721.3872              3033.5385
 Red. masses --      1.1085                 4.9701                 1.0360
 Frc consts  --      1.7912                 8.6770                 5.6171
 IR Inten    --     31.4764                10.3656                16.2834

                     43                     44                     45
                      A                      A                      A
 Frequencies --   3035.5545              3041.6555              3086.2110
 Red. masses --      1.0383                 1.0396                 1.0997
 Frc consts  --      5.6370                 5.6669                 6.1713
 IR Inten    --     22.1742                34.3654                22.1653

                     46                     47                     48
                      A                      A                      A
 Frequencies --   3103.2621              3110.1109              3117.2370
 Red. masses --      1.1022                 1.0975                 1.1002
 Frc consts  --      6.2540                 6.2546                 6.2990
 IR Inten    --     29.3114                25.5378                49.2699

                     49                     50                     51
                      A                      A                      A
 Frequencies --   3126.9881              3144.1545              3158.4968
 Red. masses --      1.1002                 1.1030                 1.0626
 Frc consts  --      6.3383                 6.4243                 6.2459
 IR Inten    --     16.3159                20.8768                17.7434

                     52                     53                     54
                      A                      A                      A
 Frequencies --   3257.4699              3472.9686              3560.3199
 Red. masses --      1.1128                 1.0492                 1.0925
 Frc consts  --      6.9573                 7.4564                 8.1591
 IR Inten    --      6.4000                 1.8920                 0.7336

 - Thermochemistry -
 -------------------
 Temperature   298.150 Kelvin.  Pressure   1.00000 Atm.
 Atom     1 has atomic number  6 and mass  12.00000

 Molecular mass:    99.10480 amu.
 Principal axes and moments of inertia in atomic units:
                           1         2         3
     Eigenvalues --   570.99672 790.37832 958.87115
           X            1.00000   0.00003  -0.00142
           Y           -0.00004   1.00000  -0.00264
           Z            0.00142   0.00264   1.00000
 This molecule is an asymmetric top.
 Rotational symmetry number  1.
 Warning -- assumption of classical behavior for rotation
           may cause significant error
 Rotational temperatures (Kelvin)      0.15169     0.10959     0.09033
 Rotational constants (GHZ):           3.16069     2.28339     1.88215
 Zero-point vibrational energy     478989.1 (Joules/Mol)
                                  114.48115 (Kcal/Mol)
 Warning -- explicit consideration of  13 degrees of freedom as
           vibrations may cause significant error
 Vibrational temperatures:    112.02   288.83   329.90   358.23   418.40
          (Kelvin)            452.14   465.23   502.34   578.50   596.88
                              676.16   726.12   818.07   982.83  1094.02
                             1231.13  1309.45  1332.52  1363.08  1382.76
                             1397.91  1474.93  1479.33  1549.86  1583.55
                             1726.97  1759.15  1857.97  1940.90  2020.40
                             2045.64  2054.44  2083.49  2147.40  2153.05
                             2162.08  2173.52  2185.27  2197.82  2382.63
                             2476.69  4364.58  4367.48  4376.26  4440.36
                             4464.90  4474.75  4485.00  4499.03  4523.73
                             4544.37  4686.77  4996.82  5122.50

 Zero-point correction=                           0.182437 (Hartree/Particle)
 Thermal correction to Energy=                    0.191184
 Thermal correction to Enthalpy=                  0.192128
 Thermal correction to Gibbs Free Energy=         0.150378
 Sum of electronic and zero-point Energies=           -291.034697
 Sum of electronic and thermal Energies=              -291.025950
 Sum of electronic and thermal Enthalpies=            -291.025006
 Sum of electronic and thermal Free Energies=         -291.066756

                     E (Thermal)             CV                S
                      KCal/Mol        Cal/Mol-Kelvin    Cal/Mol-Kelvin
 Total                  119.970             33.647             87.870
 Electronic               0.000              0.000              0.000
 Translational            0.889              2.981             39.691
 Rotational               0.889              2.981             27.561
 Vibrational            118.192             27.685             20.618
 Vibration     1          0.599              1.964              3.944
 Vibration     2          0.638              1.839              2.126
 Vibration     3          0.652              1.796              1.884
 Vibration     4          0.662              1.764              1.738
 Vibration     5          0.687              1.691              1.469
 Vibration     6          0.702              1.646              1.340
 Vibration     7          0.708              1.629              1.293
 Vibration     8          0.726              1.577              1.170
 Vibration     9          0.768              1.466              0.955
 Vibration    10          0.778              1.438              0.910
 Vibration    11          0.827              1.317              0.738
 Vibration    12          0.860              1.240              0.647
 Vibration    13          0.925              1.099              0.507

 Optimization completed.
    -- Stationary point found.
 Normal termination of Gaussian 09 at Fri Sep 10 17:31:20 2021.
