 Gaussian 09, Revision E.01,
 Gaussian 09:  ES64L-G09RevE.01 30-Nov-2015

 ----------------------------
 #P OPT Freq B3LYP/6-31G(d,p)
 ----------------------------

 --------
 Frag_995
 --------
 Symbolic Z-matrix:
 Charge =  0 Multiplicity = 1

 SCF Done:  E(RB3LYP) =  -323.727283729     A.U. after   14 cycles
 SCF Done:  E(RB3LYP) =  -323.727387516     A.U. after   11 cycles
 SCF Done:  E(RB3LYP) =  -323.727173104     A.U. after   12 cycles
 SCF Done:  E(RB3LYP) =  -323.727403988     A.U. after    7 cycles
 SCF Done:  E(RB3LYP) =  -323.727414026     A.U. after   10 cycles
 SCF Done:  E(RB3LYP) =  -323.727414714     A.U. after   11 cycles
 SCF Done:  E(RB3LYP) =  -323.727421446     A.U. after    9 cycles
 SCF Done:  E(RB3LYP) =  -323.727424439     A.U. after    8 cycles
 SCF Done:  E(RB3LYP) =  -323.727426011     A.U. after    9 cycles
 SCF Done:  E(RB3LYP) =  -323.727426542     A.U. after    8 cycles
 SCF Done:  E(RB3LYP) =  -323.727426958     A.U. after    8 cycles
 SCF Done:  E(RB3LYP) =  -323.727427210     A.U. after    7 cycles
 SCF Done:  E(RB3LYP) =  -323.727427362     A.U. after    7 cycles
 SCF Done:  E(RB3LYP) =  -323.727427394     A.U. after    7 cycles
 SCF Done:  E(RB3LYP) =  -323.727427408     A.U. after    7 cycles
 SCF Done:  E(RB3LYP) =  -323.727427410     A.U. after    7 cycles
 Optimization completed.
    -- Stationary point found.
 Normal termination of Gaussian 09 at Thu Sep  8 15:16:03 2022.

 ----------------------------------------------------------------------
 #P Geom=AllCheck Guess=TCheck SCRF=Check GenChk RB3LYP/6-31G(d,p) Freq
 ----------------------------------------------------------------------

 Structure from the checkpoint file:  "B3LYP6-31Gdp.Frag_995.chk"
 --------
 Frag_995
 --------
 Charge =  0 Multiplicity = 1

                         Standard orientation:
 ---------------------------------------------------------------------
 Center     Atomic      Atomic             Coordinates (Angstroms)
 Number     Number       Type             X           Y           Z
 ---------------------------------------------------------------------
      1          6           0        1.903697    0.598359    0.298187
      2          6           0        0.698251   -0.261654    0.000728
      3          8           0        0.783518   -1.327840   -0.588498
      4          6           0       -0.699850    0.248805    0.413079
      5          7           0       -1.155938    1.282917   -0.520453
      6          8           0       -1.586089   -0.825800    0.434796
      7          1           0        2.127865    0.534610    1.370301
      8          1           0        2.766874    0.243697   -0.266465
      9          1           0        1.713597    1.651685    0.072577
     10          1           0       -0.655479    0.714399    1.407342
     11          1           0       -1.062268    0.964995   -1.482764
     12          1           0       -0.638755    2.151252   -0.412372
     13          1           0       -1.152289   -1.525000   -0.087790
 ---------------------------------------------------------------------

 SCF Done:  E(RB3LYP) =  -323.727427410     A.U. after    1 cycles

 The electronic state is 1-A.
 Alpha  occ. eigenvalues --  -19.16212 -19.14103 -14.33178 -10.28956 -10.27251
 Alpha  occ. eigenvalues --  -10.20855  -1.06823  -1.02097  -0.88593  -0.76639
 Alpha  occ. eigenvalues --   -0.67277  -0.57086  -0.51944  -0.50654  -0.47784
 Alpha  occ. eigenvalues --   -0.45494  -0.44780  -0.42214  -0.40650  -0.37564
 Alpha  occ. eigenvalues --   -0.34259  -0.29812  -0.27911  -0.24023
 Alpha virt. eigenvalues --   -0.03281   0.06104   0.10642   0.11993   0.13125
 Alpha virt. eigenvalues --    0.14610   0.15064   0.18772   0.21039   0.23368
 Alpha virt. eigenvalues --    0.26576   0.29946   0.34598   0.50641   0.52463

 Mulliken charges:
               1
     1  C   -0.389512
     2  C    0.394595
     3  O   -0.456726
     4  C    0.231568
     5  N   -0.563582
     6  O   -0.525959
     7  H    0.146789
     8  H    0.147044
     9  H    0.120480
    10  H    0.098376
    11  H    0.242667
    12  H    0.236858
    13  H    0.317403
 Sum of Mulliken charges =  -0.00000

 Dipole moment (field-independent basis, Debye):
    X=              2.7300    Y=              2.3491    Z=              0.0089  Tot=              3.6015
 Quadrupole moment (field-independent basis, Debye-Ang):
   XX=            -41.4054   YY=            -35.3376   ZZ=            -33.9143
   XY=              3.3210   XZ=              3.0418   YZ=             -0.6734

  Exact polarizability:  46.990   0.543  49.585   1.443   2.961  38.613
 Approx polarizability:  60.429  -1.471  77.433   0.799   8.260  56.976

                      1                      2                      3
                      A                      A                      A
 Frequencies --     65.5209                92.6638               217.9693
 Red. masses --      2.3314                 1.3482                 1.4301
 Frc consts  --      0.0059                 0.0068                 0.0400
 IR Inten    --      0.8285                 0.6964                28.8262

                      4                      5                      6
                      A                      A                      A
 Frequencies --    254.6524               297.4816               393.4159
 Red. masses --      2.0299                 3.5916                 4.3829
 Frc consts  --      0.0776                 0.1873                 0.3997
 IR Inten    --     17.4918                12.1500                 9.1362

                      7                      8                      9
                      A                      A                      A
 Frequencies --    485.5543               516.6339               607.3333
 Red. masses --      1.3892                 2.0343                 2.8636
 Frc consts  --      0.1930                 0.3199                 0.6223
 IR Inten    --     63.0844                18.5510                 3.0403

                     10                     11                     12
                      A                      A                      A
 Frequencies --    641.0196               773.9624               831.6827
 Red. masses --      3.1380                 1.6821                 2.0176
 Frc consts  --      0.7597                 0.5937                 0.8222
 IR Inten    --     19.8516               153.9626               106.2221

                     13                     14                     15
                      A                      A                      A
 Frequencies --    973.5573               994.7823              1031.1534
 Red. masses --      2.1623                 2.2970                 1.8612
 Frc consts  --      1.2075                 1.3393                 1.1660
 IR Inten    --     17.6076                10.1410                11.9344

                     16                     17                     18
                      A                      A                      A
 Frequencies --   1126.9218              1197.0188              1226.4180
 Red. masses --      3.2361                 2.1869                 1.3500
 Frc consts  --      2.4214                 1.8462                 1.1963
 IR Inten    --    120.0952                74.4411                18.8998

                     19                     20                     21
                      A                      A                      A
 Frequencies --   1306.2053              1395.6904              1421.8254
 Red. masses --      1.6500                 1.3087                 1.3151
 Frc consts  --      1.6587                 1.5020                 1.5664
 IR Inten    --     27.2190                42.9953                 4.4269

                     22                     23                     24
                      A                      A                      A
 Frequencies --   1450.6198              1475.4750              1488.8163
 Red. masses --      1.2768                 1.0685                 1.0539
 Frc consts  --      1.5830                 1.3706                 1.3764
 IR Inten    --    120.2790                11.6898                10.0233

                     25                     26                     27
                      A                      A                      A
 Frequencies --   1647.4107              1794.0249              3033.5592
 Red. masses --      1.1124                10.1415                 1.0841
 Frc consts  --      1.7788                19.2314                 5.8779
 IR Inten    --     22.8871               127.8146                36.9979

                     28                     29                     30
                      A                      A                      A
 Frequencies --   3049.0530              3115.4633              3166.8118
 Red. masses --      1.0409                 1.0956                 1.1036
 Frc consts  --      5.7017                 6.2656                 6.5207
 IR Inten    --      5.1372                 9.1080                 7.7924

                     31                     32                     33
                      A                      A                      A
 Frequencies --   3490.9517              3596.9232              3674.1053
 Red. masses --      1.0484                 1.0946                 1.0646
 Frc consts  --      7.5277                 8.3438                 8.4669
 IR Inten    --      0.7206                 0.3739                66.8656

 - Thermochemistry -
 -------------------
 Temperature   298.150 Kelvin.  Pressure   1.00000 Atm.
 Atom     1 has atomic number  6 and mass  12.00000

 Molecular mass:    89.04768 amu.
 Principal axes and moments of inertia in atomic units:
                           1         2         3
     Eigenvalues --   360.14971 587.35596 792.26739
           X            0.99794   0.05804   0.02725
           Y           -0.05794   0.99831  -0.00438
           Z           -0.02746   0.00279   0.99962
 This molecule is an asymmetric top.
 Rotational symmetry number  1.
 Rotational temperatures (Kelvin)      0.24049     0.14746     0.10932
 Rotational constants (GHZ):           5.01109     3.07265     2.27794
 Zero-point vibrational energy     280133.6 (Joules/Mol)
                                   66.95353 (Kcal/Mol)
 Warning -- explicit consideration of   9 degrees of freedom as
           vibrations may cause significant error
 Vibrational temperatures:     94.27   133.32   313.61   366.39   428.01
          (Kelvin)            566.04   698.60   743.32   873.82   922.28
                             1113.56  1196.60  1400.73  1431.27  1483.60
                             1621.39  1722.24  1764.54  1879.34  2008.08
                             2045.69  2087.12  2122.88  2142.07  2370.25
                             2581.20  4364.61  4386.90  4482.45  4556.33
                             5022.69  5175.16  5286.21

 Zero-point correction=                           0.106697 (Hartree/Particle)
 Thermal correction to Energy=                    0.113943
 Thermal correction to Enthalpy=                  0.114887
 Thermal correction to Gibbs Free Energy=         0.075430
 Sum of electronic and zero-point Energies=           -323.620730
 Sum of electronic and thermal Energies=              -323.613485
 Sum of electronic and thermal Enthalpies=            -323.612540
 Sum of electronic and thermal Free Energies=         -323.651998

                     E (Thermal)             CV                S
                      KCal/Mol        Cal/Mol-Kelvin    Cal/Mol-Kelvin
 Total                   71.500             24.827             83.045
 Electronic               0.000              0.000              0.000
 Translational            0.889              2.981             39.372
 Rotational               0.889              2.981             26.619
 Vibrational             69.723             18.866             17.054
 Vibration     1          0.597              1.971              4.284
 Vibration     2          0.602              1.954              3.603
 Vibration     3          0.646              1.814              1.976
 Vibration     4          0.665              1.755              1.698
 Vibration     5          0.691              1.678              1.431
 Vibration     6          0.761              1.484              0.987
 Vibration     7          0.842              1.282              0.695
 Vibration     8          0.872              1.213              0.618
 Vibration     9          0.966              1.016              0.437

 Optimization completed.
    -- Stationary point found.
 Normal termination of Gaussian 09 at Thu Sep  8 15:16:14 2022.
