 Gaussian 09, Revision E.01,
 Gaussian 09:  ES64L-G09RevE.01 30-Nov-2015

 ----------------------------
 #P OPT Freq B3LYP/6-31G(d,p)
 ----------------------------

 --------
 Frag_558
 --------
 Symbolic Z-matrix:
 Charge =  0 Multiplicity = 1

 SCF Done:  E(RB3LYP) =  -248.482007702     A.U. after   13 cycles
 SCF Done:  E(RB3LYP) =  -248.482062632     A.U. after    9 cycles
 SCF Done:  E(RB3LYP) =  -248.482064658     A.U. after    8 cycles
 SCF Done:  E(RB3LYP) =  -248.482064932     A.U. after    7 cycles
 SCF Done:  E(RB3LYP) =  -248.482064912     A.U. after    7 cycles
 SCF Done:  E(RB3LYP) =  -248.482064864     A.U. after    7 cycles
 Optimization completed.
    -- Stationary point found.
 Normal termination of Gaussian 09 at Thu Sep  8 15:19:11 2022.

 ----------------------------------------------------------------------
 #P Geom=AllCheck Guess=TCheck SCRF=Check GenChk RB3LYP/6-31G(d,p) Freq
 ----------------------------------------------------------------------

 Structure from the checkpoint file:  "B3LYP6-31Gdp.Frag_558.chk"
 --------
 Frag_558
 --------
 Charge =  0 Multiplicity = 1

                         Standard orientation:
 ---------------------------------------------------------------------
 Center     Atomic      Atomic             Coordinates (Angstroms)
 Number     Number       Type             X           Y           Z
 ---------------------------------------------------------------------
      1          6           0       -1.463834   -0.992933   -0.188725
      2          6           0       -0.571441   -0.038657    0.105068
      3          8           0       -0.817591    1.301666    0.027477
      4          6           0        0.837079   -0.322618    0.561278
      5          7           0        1.814967    0.102733   -0.447344
      6          1           0       -2.474150   -0.759933   -0.514143
      7          1           0       -1.198929   -2.039111   -0.103652
      8          1           0       -1.717483    1.433618   -0.301524
      9          1           0        1.024482    0.261324    1.470650
     10          1           0        0.893727   -1.387271    0.839587
     11          1           0        1.741597   -0.499368   -1.264302
     12          1           0        2.755890   -0.016469   -0.080746
 ---------------------------------------------------------------------

 SCF Done:  E(RB3LYP) =  -248.482064864     A.U. after    1 cycles

 The electronic state is 1-A.
 Alpha  occ. eigenvalues --  -19.16892 -14.31032 -10.24128 -10.21167 -10.16499
 Alpha  occ. eigenvalues --   -1.04966  -0.87669  -0.75437  -0.66732  -0.58033
 Alpha  occ. eigenvalues --   -0.50127  -0.47788  -0.45119  -0.43032  -0.40104
 Alpha  occ. eigenvalues --   -0.36689  -0.36032  -0.34581  -0.23393  -0.22209
 Alpha virt. eigenvalues --    0.03442   0.07295   0.10585   0.14061   0.14312
 Alpha virt. eigenvalues --    0.15197   0.18141   0.19322   0.24365   0.25377
 Alpha virt. eigenvalues --    0.32102   0.38433   0.53735   0.54342   0.57651

 Mulliken charges:
               1
     1  C   -0.329778
     2  C    0.373230
     3  O   -0.519561
     4  C   -0.100373
     5  N   -0.584727
     6  H    0.077268
     7  H    0.093868
     8  H    0.312696
     9  H    0.120201
    10  H    0.082918
    11  H    0.236912
    12  H    0.237346
 Sum of Mulliken charges =  -0.00000

 Dipole moment (field-independent basis, Debye):
    X=             -0.2554    Y=             -1.3726    Z=             -0.0521  Tot=              1.3971
 Quadrupole moment (field-independent basis, Debye-Ang):
   XX=            -24.1625   YY=            -31.8919   ZZ=            -30.8756
   XY=             -4.8922   XZ=              2.0571   YZ=              0.5477

  Exact polarizability:  52.001   5.427  44.565   4.675   1.633  30.599
 Approx polarizability:  67.119  12.923  68.733   7.674   4.290  42.511

                      1                      2                      3
                      A                      A                      A
 Frequencies --     83.3257               230.4038               270.4355
 Red. masses --      2.8721                 1.2083                 2.6739
 Frc consts  --      0.0117                 0.0378                 0.1152
 IR Inten    --      0.7157                38.7058                20.5267

                      4                      5                      6
                      A                      A                      A
 Frequencies --    416.3156               433.8143               482.4295
 Red. masses --      2.1520                 1.1059                 2.4411
 Frc consts  --      0.2198                 0.1226                 0.3347
 IR Inten    --      2.4275               111.8573                18.6303

                      7                      8                      9
                      A                      A                      A
 Frequencies --    647.6267               733.2114               813.2726
 Red. masses --      2.7754                 1.2370                 1.3932
 Frc consts  --      0.6858                 0.3918                 0.5429
 IR Inten    --      7.3691                 1.0001                73.0756

                     10                     11                     12
                      A                      A                      A
 Frequencies --    820.3372               868.2325               986.6522
 Red. masses --      1.6022                 1.9474                 1.5608
 Frc consts  --      0.6353                 0.8649                 0.8952
 IR Inten    --     69.3896                53.5050                 4.3627

                     13                     14                     15
                      A                      A                      A
 Frequencies --    999.6597              1073.5169              1180.7439
 Red. masses --      1.9705                 2.7026                 1.2142
 Frc consts  --      1.1602                 1.8350                 0.9973
 IR Inten    --     92.4922                13.6106                21.2817

                     16                     17                     18
                      A                      A                      A
 Frequencies --   1214.3817              1315.8691              1387.0893
 Red. masses --      1.4887                 1.2217                 1.7038
 Frc consts  --      1.2935                 1.2463                 1.9314
 IR Inten    --    104.9296                 5.4470                 7.3480

                     19                     20                     21
                      A                      A                      A
 Frequencies --   1437.6539              1470.0364              1510.3205
 Red. masses --      1.5871                 1.2830                 1.0973
 Frc consts  --      1.9327                 1.6335                 1.4747
 IR Inten    --     29.8567                10.8113                 0.9256

                     22                     23                     24
                      A                      A                      A
 Frequencies --   1663.1795              1732.4691              2982.0574
 Red. masses --      1.0971                 5.3841                 1.0701
 Frc consts  --      1.7881                 9.5212                 5.6068
 IR Inten    --     30.2001               113.4078                67.9052

                     25                     26                     27
                      A                      A                      A
 Frequencies --   3066.2151              3162.9399              3259.6899
 Red. masses --      1.0919                 1.0641                 1.1128
 Frc consts  --      6.0484                 6.2718                 6.9668
 IR Inten    --     27.3817                 6.5036                10.9371

                     28                     29                     30
                      A                      A                      A
 Frequencies --   3489.6195              3579.1209              3806.0348
 Red. masses --      1.0493                 1.0931                 1.0656
 Frc consts  --      7.5285                 8.2504                 9.0944
 IR Inten    --      2.0363                 0.1685                19.0474

 - Thermochemistry -
 -------------------
 Temperature   298.150 Kelvin.  Pressure   1.00000 Atm.
 Atom     1 has atomic number  6 and mass  12.00000

 Molecular mass:    73.05276 amu.
 Principal axes and moments of inertia in atomic units:
                           1         2         3
     Eigenvalues --   219.01902 464.38957 597.68390
           X            0.99987  -0.00105   0.01637
           Y            0.00104   1.00000   0.00051
           Z           -0.01638  -0.00050   0.99987
 This molecule is an asymmetric top.
 Rotational symmetry number  1.
 Rotational temperatures (Kelvin)      0.39546     0.18651     0.14492
 Rotational constants (GHZ):           8.24011     3.88627     3.01956
 Zero-point vibrational energy     269857.5 (Joules/Mol)
                                   64.49749 (Kcal/Mol)
 Warning -- explicit consideration of   6 degrees of freedom as
           vibrations may cause significant error
 Vibrational temperatures:    119.89   331.50   389.10   598.98   624.16
          (Kelvin)            694.11   931.79  1054.93  1170.12  1180.28
                             1249.19  1419.57  1438.29  1544.55  1698.82
                             1747.22  1893.24  1995.71  2068.46  2115.05
                             2173.01  2392.94  2492.63  4290.51  4411.59
                             4550.76  4689.96  5020.78  5149.55  5476.03

 Zero-point correction=                           0.102783 (Hartree/Particle)
 Thermal correction to Energy=                    0.108785
 Thermal correction to Enthalpy=                  0.109730
 Thermal correction to Gibbs Free Energy=         0.073734
 Sum of electronic and zero-point Energies=           -248.379282
 Sum of electronic and thermal Energies=              -248.373279
 Sum of electronic and thermal Enthalpies=            -248.372335
 Sum of electronic and thermal Free Energies=         -248.408330

                     E (Thermal)             CV                S
                      KCal/Mol        Cal/Mol-Kelvin    Cal/Mol-Kelvin
 Total                   68.264             21.117             75.759
 Electronic               0.000              0.000              0.000
 Translational            0.889              2.981             38.782
 Rotational               0.889              2.981             25.611
 Vibrational             66.486             15.156             11.365
 Vibration     1          0.600              1.961              3.811
 Vibration     2          0.652              1.795              1.876
 Vibration     3          0.674              1.728              1.593
 Vibration     4          0.780              1.435              0.905
 Vibration     5          0.795              1.397              0.846
 Vibration     6          0.839              1.289              0.704

 Optimization completed.
    -- Stationary point found.
 Normal termination of Gaussian 09 at Thu Sep  8 15:19:19 2022.
