 Gaussian 09, Revision E.01,
 Gaussian 09:  ES64L-G09RevE.01 30-Nov-2015

 ----------------------------
 #P OPT Freq B3LYP/6-31G(d,p)
 ----------------------------

 --------
 Frag_515
 --------
 Symbolic Z-matrix:
 Charge =  0 Multiplicity = 1

 SCF Done:  E(RB3LYP) =  -303.889656336     A.U. after   14 cycles
 SCF Done:  E(RB3LYP) =  -303.889748152     A.U. after   11 cycles
 SCF Done:  E(RB3LYP) =  -303.889719442     A.U. after   11 cycles
 SCF Done:  E(RB3LYP) =  -303.889759603     A.U. after    9 cycles
 SCF Done:  E(RB3LYP) =  -303.889760305     A.U. after    8 cycles
 SCF Done:  E(RB3LYP) =  -303.889760588     A.U. after    7 cycles
 SCF Done:  E(RB3LYP) =  -303.889760785     A.U. after    7 cycles
 SCF Done:  E(RB3LYP) =  -303.889760968     A.U. after    7 cycles
 SCF Done:  E(RB3LYP) =  -303.889761095     A.U. after    7 cycles
 SCF Done:  E(RB3LYP) =  -303.889761226     A.U. after    7 cycles
 SCF Done:  E(RB3LYP) =  -303.889761289     A.U. after    7 cycles
 Optimization completed.
    -- Stationary point found.
 Normal termination of Gaussian 09 at Thu Sep  8 15:16:00 2022.

 ----------------------------------------------------------------------
 #P Geom=AllCheck Guess=TCheck SCRF=Check GenChk RB3LYP/6-31G(d,p) Freq
 ----------------------------------------------------------------------

 Structure from the checkpoint file:  "B3LYP6-31Gdp.Frag_515.chk"
 --------
 Frag_515
 --------
 Charge =  0 Multiplicity = 1

                         Standard orientation:
 ---------------------------------------------------------------------
 Center     Atomic      Atomic             Coordinates (Angstroms)
 Number     Number       Type             X           Y           Z
 ---------------------------------------------------------------------
      1          6           0        1.220212    1.234392    0.574927
      2          6           0        0.654720    0.198017   -0.410268
      3          7           0        1.539339   -0.963102   -0.459569
      4          6           0       -0.777960   -0.180663    0.022368
      5          7           0       -1.774758    0.632077   -0.434420
      6          8           0       -0.993854   -1.141021    0.750348
      7          1           0        0.606905    2.140656    0.607170
      8          1           0        1.251980    0.812162    1.584762
      9          1           0        2.238171    1.500560    0.281196
     10          1           0        0.621798    0.644917   -1.412834
     11          1           0        1.369068   -1.498543    0.392800
     12          1           0        1.234903   -1.579136   -1.211781
     13          1           0       -2.715425    0.470730   -0.106955
     14          1           0       -1.590459    1.443522   -1.001374
 ---------------------------------------------------------------------

 SCF Done:  E(RB3LYP) =  -303.889761289     A.U. after    1 cycles

 The electronic state is 1-A.
 Alpha  occ. eigenvalues --  -19.11255 -14.36112 -14.30830 -10.28376 -10.22305
 Alpha  occ. eigenvalues --  -10.18072  -1.03063  -0.90560  -0.88199  -0.74016
 Alpha  occ. eigenvalues --   -0.64460  -0.57501  -0.53958  -0.50259  -0.46610
 Alpha  occ. eigenvalues --   -0.43509  -0.41312  -0.40654  -0.37583  -0.36476
 Alpha  occ. eigenvalues --   -0.34658  -0.27071  -0.25706  -0.23445
 Alpha virt. eigenvalues --    0.02807   0.06358   0.09876   0.12272   0.13767
 Alpha virt. eigenvalues --    0.15685   0.16639   0.18225   0.19362   0.22764
 Alpha virt. eigenvalues --    0.23698   0.26814   0.34612   0.38201   0.52401

 Mulliken charges:
               1
     1  C   -0.295807
     2  C   -0.033742
     3  N   -0.573377
     4  C    0.556649
     5  N   -0.605898
     6  O   -0.510951
     7  H    0.093543
     8  H    0.119374
     9  H    0.125885
    10  H    0.089166
    11  H    0.251690
    12  H    0.237258
    13  H    0.277165
    14  H    0.269044
 Sum of Mulliken charges =  -0.00000

 Dipole moment (field-independent basis, Debye):
    X=             -1.4967    Y=              2.5879    Z=             -1.7509  Tot=              3.4645
 Quadrupole moment (field-independent basis, Debye-Ang):
   XX=            -36.7821   YY=            -35.2753   ZZ=            -36.0235
   XY=             -3.9496   XZ=              3.1925   YZ=              0.6517

  Exact polarizability:  51.521  -3.105  49.900   0.746  -4.548  41.390
 Approx polarizability:  65.680  -5.151  73.706   0.612 -13.669  62.548

                      1                      2                      3
                      A                      A                      A
 Frequencies --     49.4553               174.2585               234.2078
 Red. masses --      3.9735                 1.2838                 1.0861
 Frc consts  --      0.0057                 0.0230                 0.0351
 IR Inten    --      6.9043               202.3718                 2.6500

                      4                      5                      6
                      A                      A                      A
 Frequencies --    238.3391               252.1819               306.0203
 Red. masses --      2.4679                 1.3235                 2.2217
 Frc consts  --      0.0826                 0.0496                 0.1226
 IR Inten    --      1.2330                57.0174                18.6010

                      7                      8                      9
                      A                      A                      A
 Frequencies --    370.5355               478.2649               576.9028
 Red. masses --      2.8783                 2.5854                 1.1360
 Frc consts  --      0.2328                 0.3484                 0.2227
 IR Inten    --     12.9379                 4.9609                16.7006

                     10                     11                     12
                      A                      A                      A
 Frequencies --    636.7763               752.6640               767.4790
 Red. masses --      3.5052                 3.4251                 2.7668
 Frc consts  --      0.8374                 1.1432                 0.9602
 IR Inten    --      3.7970                 9.5732                 6.9410

                     13                     14                     15
                      A                      A                      A
 Frequencies --    921.9802               947.8320              1026.2054
 Red. masses --      2.0132                 1.6288                 1.4151
 Frc consts  --      1.0083                 0.8621                 0.8780
 IR Inten    --      0.6938               158.3457                 2.0052

                     16                     17                     18
                      A                      A                      A
 Frequencies --   1069.1422              1107.1213              1163.4436
 Red. masses --      1.4924                 1.8654                 2.1094
 Frc consts  --      1.0051                 1.3471                 1.6823
 IR Inten    --     25.2970                32.5632                 4.3238

                     19                     20                     21
                      A                      A                      A
 Frequencies --   1263.7121              1298.2191              1369.9184
 Red. masses --      1.7239                 1.5707                 2.2153
 Frc consts  --      1.6221                 1.5596                 2.4494
 IR Inten    --     61.9895                24.8052                53.2175

                     22                     23                     24
                      A                      A                      A
 Frequencies --   1410.4580              1435.2256              1501.0670
 Red. masses --      1.2074                 1.4261                 1.0481
 Frc consts  --      1.4152                 1.7308                 1.3914
 IR Inten    --      2.1985                 7.5229                 5.6868

                     25                     26                     27
                      A                      A                      A
 Frequencies --   1514.2681              1623.9612              1685.9557
 Red. masses --      1.0542                 1.2608                 1.0866
 Frc consts  --      1.4242                 1.9591                 1.8198
 IR Inten    --      4.3049                99.8478                24.7791

                     28                     29                     30
                      A                      A                      A
 Frequencies --   1797.0722              3037.0388              3049.2101
 Red. masses --      9.3218                 1.0850                 1.0352
 Frc consts  --     17.7370                 5.8961                 5.6707
 IR Inten    --    256.8280                29.6067                18.7885

                     31                     32                     33
                      A                      A                      A
 Frequencies --   3120.4042              3142.7009              3469.0525
 Red. masses --      1.1024                 1.1030                 1.0505
 Frc consts  --      6.3244                 6.4185                 7.4483
 IR Inten    --     29.2040                17.7406                 2.2783

                     34                     35                     36
                      A                      A                      A
 Frequencies --   3545.6948              3599.3927              3739.3328
 Red. masses --      1.0901                 1.0449                 1.1050
 Frc consts  --      8.0742                 7.9762                 9.1034
 IR Inten    --      1.8238                28.9514                31.5435

 - Thermochemistry -
 -------------------
 Temperature   298.150 Kelvin.  Pressure   1.00000 Atm.
 Atom     1 has atomic number  6 and mass  12.00000

 Molecular mass:    88.06366 amu.
 Principal axes and moments of inertia in atomic units:
                           1         2         3
     Eigenvalues --   362.78759 615.11170 777.27001
           X            0.99947  -0.02069   0.02513
           Y            0.01966   0.99899   0.04041
           Z           -0.02594  -0.03990   0.99887
 This molecule is an asymmetric top.
 Rotational symmetry number  1.
 Rotational temperatures (Kelvin)      0.23875     0.14081     0.11143
 Rotational constants (GHZ):           4.97465     2.93401     2.32190
 Zero-point vibrational energy     315069.4 (Joules/Mol)
                                   75.30340 (Kcal/Mol)
 Warning -- explicit consideration of   9 degrees of freedom as
           vibrations may cause significant error
 Vibrational temperatures:     71.16   250.72   336.97   342.92   362.83
          (Kelvin)            440.29   533.12   688.12   830.03   916.18
                             1082.91  1104.23  1326.52  1363.72  1476.48
                             1538.26  1592.90  1673.93  1818.20  1867.85
                             1971.00  2029.33  2064.97  2159.70  2178.69
                             2336.52  2425.71  2585.58  4369.62  4387.13
                             4489.56  4521.64  4991.19  5101.46  5178.72
                             5380.06

 Zero-point correction=                           0.120004 (Hartree/Particle)
 Thermal correction to Energy=                    0.127520
 Thermal correction to Enthalpy=                  0.128464
 Thermal correction to Gibbs Free Energy=         0.088649
 Sum of electronic and zero-point Energies=           -303.769758
 Sum of electronic and thermal Energies=              -303.762241
 Sum of electronic and thermal Enthalpies=            -303.761297
 Sum of electronic and thermal Free Energies=         -303.801112

                     E (Thermal)             CV                S
                      KCal/Mol        Cal/Mol-Kelvin    Cal/Mol-Kelvin
 Total                   80.020             26.067             83.797
 Electronic               0.000              0.000              0.000
 Translational            0.889              2.981             39.339
 Rotational               0.889              2.981             26.653
 Vibrational             78.243             20.106             17.805
 Vibration     1          0.595              1.978              4.839
 Vibration     2          0.627              1.874              2.389
 Vibration     3          0.654              1.789              1.846
 Vibration     4          0.656              1.782              1.815
 Vibration     5          0.664              1.759              1.715
 Vibration     6          0.696              1.662              1.384
 Vibration     7          0.743              1.533              1.078
 Vibration     8          0.835              1.298              0.715
 Vibration     9          0.933              1.081              0.491

 Optimization completed.
    -- Stationary point found.
 Normal termination of Gaussian 09 at Thu Sep  8 15:16:11 2022.
