 Gaussian 09, Revision E.01,
 Gaussian 09:  ES64L-G09RevE.01 30-Nov-2015

 ----------------------------
 #P OPT Freq B3LYP/6-31G(d,p)
 ----------------------------

 --------
 Frag_991
 --------
 Symbolic Z-matrix:
 Charge =  0 Multiplicity = 1

 SCF Done:  E(RB3LYP) =  -300.405796496     A.U. after   14 cycles
 SCF Done:  E(RB3LYP) =  -300.405877595     A.U. after    9 cycles
 SCF Done:  E(RB3LYP) =  -300.405884347     A.U. after    8 cycles
 SCF Done:  E(RB3LYP) =  -300.405885426     A.U. after    8 cycles
 Optimization completed.
    -- Stationary point found.
 Normal termination of Gaussian 09 at Thu Sep  8 15:09:43 2022.

 ----------------------------------------------------------------------
 #P Geom=AllCheck Guess=TCheck SCRF=Check GenChk RB3LYP/6-31G(d,p) Freq
 ----------------------------------------------------------------------

 Structure from the checkpoint file:  "B3LYP6-31Gdp.Frag_991.chk"
 --------
 Frag_991
 --------
 Charge =  0 Multiplicity = 1

                         Standard orientation:
 ---------------------------------------------------------------------
 Center     Atomic      Atomic             Coordinates (Angstroms)
 Number     Number       Type             X           Y           Z
 ---------------------------------------------------------------------
      1          7           0       -0.607232    1.357795    0.000002
      2          6           0       -0.514177    0.098197   -0.000028
      3          8           0       -1.577106   -0.727307    0.000016
      4          8           0        0.592285   -0.715951   -0.000021
      5          7           0        1.804747    0.060319    0.000024
      6          1           0        0.324803    1.771126    0.000014
      7          1           0       -2.349462   -0.141797    0.000028
      8          1           0        2.302873   -0.299661    0.814985
      9          1           0        2.302820   -0.299581   -0.815007
 ---------------------------------------------------------------------

 SCF Done:  E(RB3LYP) =  -300.405885426     A.U. after    1 cycles

 The electronic state is 1-A.
 Alpha  occ. eigenvalues --  -19.21739 -19.18637 -14.40286 -14.29292 -10.32274
 Alpha  occ. eigenvalues --   -1.12708  -1.06053  -0.88106  -0.84478  -0.62552
 Alpha  occ. eigenvalues --   -0.53658  -0.52907  -0.50090  -0.46516  -0.43419
 Alpha  occ. eigenvalues --   -0.39708  -0.32445  -0.29286  -0.27621  -0.25723
 Alpha virt. eigenvalues --    0.05223   0.06223   0.07128   0.11254   0.13031
 Alpha virt. eigenvalues --    0.16200   0.22290   0.30585   0.46388   0.53353
 Alpha virt. eigenvalues --    0.53656   0.57975   0.63276   0.65107   0.71362

 Mulliken charges:
               1
     1  N   -0.584794
     2  C    0.694990
     3  O   -0.496228
     4  O   -0.406693
     5  N   -0.357925
     6  H    0.253870
     7  H    0.337470
     8  H    0.279655
     9  H    0.279655
 Sum of Mulliken charges =  -0.00000

 Dipole moment (field-independent basis, Debye):
    X=              2.3107    Y=             -0.7725    Z=             -0.0001  Tot=              2.4364
 Quadrupole moment (field-independent basis, Debye-Ang):
   XX=            -18.2216   YY=            -33.8865   ZZ=            -27.5659
   XY=             -0.5964   XZ=             -0.0001   YZ=             -0.0001

  Exact polarizability:  41.208  -0.193  32.580  -0.000   0.000  19.204
 Approx polarizability:  51.703   0.988  55.883   0.000   0.001  26.482

                      1                      2                      3
                      A                      A                      A
 Frequencies --    154.2617               208.8084               341.2188
 Red. masses --      3.7922                 1.1913                 4.3016
 Frc consts  --      0.0532                 0.0306                 0.2951
 IR Inten    --      5.3038                37.7304                 2.6387

                      4                      5                      6
                      A                      A                      A
 Frequencies --    501.8290               507.4367               628.6127
 Red. masses --      1.0904                 4.8695                 4.4753
 Frc consts  --      0.1618                 0.7387                 1.0419
 IR Inten    --    138.6137                29.7001                25.5037

                      7                      8                      9
                      A                      A                      A
 Frequencies --    722.5291               854.1840               891.9101
 Red. masses --      9.1448                 1.1317                 5.0174
 Frc consts  --      2.8128                 0.4865                 2.3516
 IR Inten    --     29.2062                64.0636                45.6358

                     10                     11                     12
                      A                      A                      A
 Frequencies --    978.5028              1086.5527              1243.7905
 Red. masses --      3.9660                 1.8343                 1.5035
 Frc consts  --      2.2373                 1.2759                 1.3704
 IR Inten    --     28.1947               126.7719               276.7829

                     13                     14                     15
                      A                      A                      A
 Frequencies --   1253.2837              1339.9422              1450.0976
 Red. masses --      1.5428                 1.1125                 2.5659
 Frc consts  --      1.4278                 1.1768                 3.1790
 IR Inten    --     62.4036                 1.4883               198.3079

                     16                     17                     18
                      A                      A                      A
 Frequencies --   1661.7617              1791.1239              3449.4401
 Red. masses --      1.0945                 7.7458                 1.0481
 Frc consts  --      1.7808                14.6409                 7.3475
 IR Inten    --     27.7288               335.8073                 0.6359

                     19                     20                     21
                      A                      A                      A
 Frequencies --   3530.4139              3541.6294              3804.3230
 Red. masses --      1.0727                 1.0961                 1.0644
 Frc consts  --      7.8774                 8.1005                 9.0765
 IR Inten    --     17.1351                 2.1014                75.4547

 - Thermochemistry -
 -------------------
 Temperature   298.150 Kelvin.  Pressure   1.00000 Atm.
 Atom     1 has atomic number  7 and mass  14.00307

 Molecular mass:    76.02728 amu.
 Principal axes and moments of inertia in atomic units:
                           1         2         3
     Eigenvalues --   169.01108 417.65235 577.10133
           X            0.99998  -0.00615  -0.00000
           Y            0.00615   0.99998  -0.00000
           Z            0.00000   0.00000   1.00000
 This molecule is an asymmetric top.
 Rotational symmetry number  1.
 Rotational temperatures (Kelvin)      0.51247     0.20738     0.15008
 Rotational constants (GHZ):          10.67824     4.32116     3.12725
 Zero-point vibrational energy     179090.8 (Joules/Mol)
                                   42.80374 (Kcal/Mol)
 Warning -- explicit consideration of   5 degrees of freedom as
           vibrations may cause significant error
 Vibrational temperatures:    221.95   300.43   490.94   722.02   730.09
          (Kelvin)            904.43  1039.56  1228.98  1283.26  1407.85
                             1563.30  1789.53  1803.19  1927.88  2086.36
                             2390.90  2577.02  4962.97  5079.47  5095.61
                             5473.57

 Zero-point correction=                           0.068212 (Hartree/Particle)
 Thermal correction to Energy=                    0.073522
 Thermal correction to Enthalpy=                  0.074466
 Thermal correction to Gibbs Free Energy=         0.039988
 Sum of electronic and zero-point Energies=           -300.337673
 Sum of electronic and thermal Energies=              -300.332363
 Sum of electronic and thermal Enthalpies=            -300.331419
 Sum of electronic and thermal Free Energies=         -300.365897

                     E (Thermal)             CV                S
                      KCal/Mol        Cal/Mol-Kelvin    Cal/Mol-Kelvin
 Total                   46.136             17.925             72.565
 Electronic               0.000              0.000              0.000
 Translational            0.889              2.981             38.901
 Rotational               0.889              2.981             25.213
 Vibrational             44.358             11.964              8.450
 Vibration     1          0.620              1.898              2.619
 Vibration     2          0.642              1.827              2.054
 Vibration     3          0.721              1.593              1.206
 Vibration     4          0.857              1.246              0.654
 Vibration     5          0.863              1.234              0.640

 Optimization completed.
    -- Stationary point found.
 Normal termination of Gaussian 09 at Thu Sep  8 15:09:50 2022.
