 Gaussian 09, Revision E.01,
 Gaussian 09:  ES64L-G09RevE.01 30-Nov-2015

 ----------------------------
 #P OPT Freq B3LYP/6-31G(d,p)
 ----------------------------

 --------
 Frag_645
 --------
 Symbolic Z-matrix:
 Charge =  0 Multiplicity = 1

 SCF Done:  E(RB3LYP) =  -358.474844587     A.U. after   15 cycles
 SCF Done:  E(RB3LYP) =  -358.474854074     A.U. after    9 cycles
 SCF Done:  E(RB3LYP) =  -358.474855710     A.U. after    9 cycles
 SCF Done:  E(RB3LYP) =  -358.474852830     A.U. after   10 cycles
 SCF Done:  E(RB3LYP) =  -358.474856261     A.U. after    9 cycles
 SCF Done:  E(RB3LYP) =  -358.474856348     A.U. after    8 cycles
 Optimization completed.
    -- Stationary point found.
 Normal termination of Gaussian 09 at Thu Sep  8 20:04:24 2022.

 ----------------------------------------------------------------------
 #P Geom=AllCheck Guess=TCheck SCRF=Check GenChk RB3LYP/6-31G(d,p) Freq
 ----------------------------------------------------------------------

 Structure from the checkpoint file:  "B3LYP6-31Gdp.Frag_645.chk"
 --------
 Frag_645
 --------
 Charge =  0 Multiplicity = 1

                         Standard orientation:
 ---------------------------------------------------------------------
 Center     Atomic      Atomic             Coordinates (Angstroms)
 Number     Number       Type             X           Y           Z
 ---------------------------------------------------------------------
      1          7           0       -1.557687    0.863506   -0.000318
      2          6           0       -0.724188   -0.187826   -0.000046
      3          8           0       -1.026881   -1.378606    0.000410
      4          6           0        0.768022    0.210865    0.000258
      5          8           0        1.149965    1.357998    0.000303
      6          8           0        1.554102   -0.862687   -0.000409
      7          1           0       -2.555724    0.721775   -0.000333
      8          1           0       -1.162608    1.792985   -0.000489
      9          1           0        0.941655   -1.631176   -0.000657
 ---------------------------------------------------------------------

 SCF Done:  E(RB3LYP) =  -358.474856348     A.U. after    1 cycles

 The electronic state is 1-A.
 Alpha  occ. eigenvalues --  -19.20802 -19.15868 -19.15672 -14.39213 -10.33725
 Alpha  occ. eigenvalues --  -10.32386  -1.12400  -1.06292  -1.04112  -0.94142
 Alpha  occ. eigenvalues --   -0.69045  -0.61680  -0.59313  -0.54282  -0.47815
 Alpha  occ. eigenvalues --   -0.47265  -0.45084  -0.41523  -0.39901  -0.33988
 Alpha  occ. eigenvalues --   -0.33309  -0.30295  -0.27096
 Alpha virt. eigenvalues --   -0.05947   0.06504   0.08105   0.09637   0.12530
 Alpha virt. eigenvalues --    0.22395   0.26440   0.30332   0.32928   0.39902
 Alpha virt. eigenvalues --    0.49803   0.52788   0.59919   0.60956   0.62567

 Mulliken charges:
               1
     1  N   -0.592779
     2  C    0.528105
     3  O   -0.521847
     4  C    0.570834
     5  O   -0.460416
     6  O   -0.472681
     7  H    0.293366
     8  H    0.307704
     9  H    0.347714
 Sum of Mulliken charges =  -0.00000

 Dipole moment (field-independent basis, Debye):
    X=             -2.9159    Y=              0.8108    Z=             -0.0017  Tot=              3.0265
 Quadrupole moment (field-independent basis, Debye-Ang):
   XX=            -32.8369   YY=            -33.8184   ZZ=            -32.8507
   XY=             -7.8779   XZ=              0.0016   YZ=              0.0006

  Exact polarizability:  37.665  -2.556  46.077  -0.000  -0.001  16.669
 Approx polarizability:  49.488  -1.582  85.637  -0.002  -0.004  24.098

                      1                      2                      3
                      A                      A                      A
 Frequencies --    120.1710               273.6905               377.7419
 Red. masses --      9.9771                 4.7125                 1.3002
 Frc consts  --      0.0849                 0.2080                 0.1093
 IR Inten    --      5.2770                42.8743               127.3481

                      4                      5                      6
                      A                      A                      A
 Frequencies --    405.0305               467.8450               545.5606
 Red. masses --      4.8626                 3.6307                 6.2598
 Frc consts  --      0.4700                 0.4682                 1.0977
 IR Inten    --      7.3727               144.7843                 1.7409

                      7                      8                      9
                      A                      A                      A
 Frequencies --    629.3577               663.2671               758.2919
 Red. masses --      4.4016                 1.1675                 1.2265
 Frc consts  --      1.0272                 0.3026                 0.4155
 IR Inten    --     12.4881                 3.5408               100.1816

                     10                     11                     12
                      A                      A                      A
 Frequencies --    803.3571               805.2616              1104.2117
 Red. masses --      4.5774                 5.7654                 1.8893
 Frc consts  --      1.7406                 2.2027                 1.3572
 IR Inten    --      9.1709                 9.5030                 4.6447

                     13                     14                     15
                      A                      A                      A
 Frequencies --   1223.6737              1353.7750              1452.4363
 Red. masses --      2.8186                 2.0775                 2.3539
 Frc consts  --      2.4867                 2.2433                 2.9258
 IR Inten    --      5.9166               339.7192               239.3955

                     16                     17                     18
                      A                      A                      A
 Frequencies --   1608.1322              1807.5724              1876.3753
 Red. masses --      1.4444                 9.4476                 9.5438
 Frc consts  --      2.2008                18.1871                19.7975
 IR Inten    --     77.9418               285.7237               211.0879

                     19                     20                     21
                      A                      A                      A
 Frequencies --   3568.8109              3594.3385              3737.4780
 Red. masses --      1.0641                 1.0448                 1.1065
 Frc consts  --      7.9851                 7.9526                 9.1067
 IR Inten    --    130.7896                72.3663                84.9276

 - Thermochemistry -
 -------------------
 Temperature   298.150 Kelvin.  Pressure   1.00000 Atm.
 Atom     1 has atomic number  7 and mass  14.00307

 Molecular mass:    89.01129 amu.
 Principal axes and moments of inertia in atomic units:
                           1         2         3
     Eigenvalues --   317.68749 476.47864 794.16606
           X            0.99238  -0.12321   0.00001
           Y            0.12321   0.99238  -0.00000
           Z           -0.00001   0.00000   1.00000
 This molecule is an asymmetric top.
 Rotational symmetry number  1.
 Rotational temperatures (Kelvin)      0.27264     0.18178     0.10906
 Rotational constants (GHZ):           5.68087     3.78766     2.27250
 Zero-point vibrational energy     162550.8 (Joules/Mol)
                                   38.85058 (Kcal/Mol)
 Warning -- explicit consideration of   6 degrees of freedom as
           vibrations may cause significant error
 Vibrational temperatures:    172.90   393.78   543.49   582.75   673.12
          (Kelvin)            784.94   905.50   954.29  1091.01  1155.85
                             1158.59  1588.71  1760.59  1947.78  2089.73
                             2313.74  2600.69  2699.68  5134.72  5171.44
                             5377.39

 Zero-point correction=                           0.061912 (Hartree/Particle)
 Thermal correction to Energy=                    0.067552
 Thermal correction to Enthalpy=                  0.068496
 Thermal correction to Gibbs Free Energy=         0.032779
 Sum of electronic and zero-point Energies=           -358.412944
 Sum of electronic and thermal Energies=              -358.407304
 Sum of electronic and thermal Enthalpies=            -358.406360
 Sum of electronic and thermal Free Energies=         -358.442078

                     E (Thermal)             CV                S
                      KCal/Mol        Cal/Mol-Kelvin    Cal/Mol-Kelvin
 Total                   42.390             19.717             75.174
 Electronic               0.000              0.000              0.000
 Translational            0.889              2.981             39.371
 Rotational               0.889              2.981             26.289
 Vibrational             40.612             13.756              9.514
 Vibration     1          0.609              1.932              3.098
 Vibration     2          0.676              1.722              1.573
 Vibration     3          0.748              1.518              1.048
 Vibration     4          0.770              1.459              0.944
 Vibration     5          0.825              1.321              0.744
 Vibration     6          0.901              1.149              0.553

 Optimization completed.
    -- Stationary point found.
 Normal termination of Gaussian 09 at Thu Sep  8 20:04:31 2022.
