 Gaussian 09, Revision E.01,
 Gaussian 09:  ES64L-G09RevE.01 30-Nov-2015

 ----------------------------
 #P OPT Freq B3LYP/6-31G(d,p)
 ----------------------------

 ---------
 Frag_1157
 ---------
 Symbolic Z-matrix:
 Charge =  0 Multiplicity = 1

 SCF Done:  E(RB3LYP) =  -400.166373693     A.U. after   13 cycles
 SCF Done:  E(RB3LYP) =  -400.166444275     A.U. after    9 cycles
 SCF Done:  E(RB3LYP) =  -400.166436371     A.U. after   10 cycles
 SCF Done:  E(RB3LYP) =  -400.166450778     A.U. after    9 cycles
 SCF Done:  E(RB3LYP) =  -400.166452267     A.U. after    7 cycles
 SCF Done:  E(RB3LYP) =  -400.166453194     A.U. after    8 cycles
 SCF Done:  E(RB3LYP) =  -400.166453485     A.U. after    7 cycles
 SCF Done:  E(RB3LYP) =  -400.166453626     A.U. after    7 cycles
 Optimization completed.
    -- Stationary point found.
 Normal termination of Gaussian 09 at Thu Sep  8 14:46:10 2022.

 ----------------------------------------------------------------------
 #P Geom=AllCheck Guess=TCheck SCRF=Check GenChk RB3LYP/6-31G(d,p) Freq
 ----------------------------------------------------------------------

 Structure from the checkpoint file:  "B3LYP6-31Gdp.Frag_1157.chk"
 ---------
 Frag_1157
 ---------
 Charge =  0 Multiplicity = 1

                         Standard orientation:
 ---------------------------------------------------------------------
 Center     Atomic      Atomic             Coordinates (Angstroms)
 Number     Number       Type             X           Y           Z
 ---------------------------------------------------------------------
      1          6           0        1.519649    1.152441   -0.219615
      2          6           0        0.628178   -0.059379    0.017412
      3          8           0        1.078253   -1.180526   -0.757194
      4          8           0        0.647576   -0.359171    1.381116
      5          6           0       -0.833773    0.140829   -0.465457
      6          7           0       -1.594739   -0.990536    0.037323
      7          8           0       -1.444650    1.284615    0.099906
      8          1           0        2.533772    0.932760    0.126270
      9          1           0        1.152512    2.013496    0.344753
     10          1           0        1.564321    1.395592   -1.285443
     11          1           0        1.809988   -1.562589   -0.252735
     12          1           0       -0.202696   -0.815644    1.541885
     13          1           0       -0.821130    0.216163   -1.567776
     14          1           0       -1.298332   -1.831092   -0.450033
     15          1           0       -2.585216   -0.836954   -0.125181
     16          1           0       -1.123805    2.059327   -0.377660
 ---------------------------------------------------------------------

 SCF Done:  E(RB3LYP) =  -400.166453626     A.U. after    1 cycles

 The electronic state is 1-A.
 Alpha  occ. eigenvalues --  -19.15432 -19.14136 -19.13357 -14.32684 -10.27736
 Alpha  occ. eigenvalues --  -10.26466 -10.17578  -1.05825  -1.02991  -0.97943
 Alpha  occ. eigenvalues --   -0.88235  -0.74543  -0.66858  -0.58416  -0.55192
 Alpha  occ. eigenvalues --   -0.50653  -0.49835  -0.46881  -0.44273  -0.41639
 Alpha  occ. eigenvalues --   -0.40781  -0.38799  -0.37343  -0.35850  -0.33910
 Alpha  occ. eigenvalues --   -0.29182  -0.27843  -0.27038  -0.24937
 Alpha virt. eigenvalues --    0.06316   0.08872   0.10468   0.13762   0.14828
 Alpha virt. eigenvalues --    0.15443   0.16036   0.17261   0.19918   0.21294
 Alpha virt. eigenvalues --    0.22176   0.24633   0.27100   0.28355   0.32740

 Mulliken charges:
               1
     1  C   -0.326682
     2  C    0.465865
     3  O   -0.560120
     4  O   -0.554483
     5  C    0.270127
     6  N   -0.624784
     7  O   -0.532804
     8  H    0.113108
     9  H    0.111928
    10  H    0.102085
    11  H    0.304571
    12  H    0.323710
    13  H    0.076576
    14  H    0.263658
    15  H    0.255734
    16  H    0.311510
 Sum of Mulliken charges =   0.00000

 Dipole moment (field-independent basis, Debye):
    X=             -0.3139    Y=              0.0951    Z=             -1.9320  Tot=              1.9597
 Quadrupole moment (field-independent basis, Debye-Ang):
   XX=            -38.9735   YY=            -36.8206   ZZ=            -45.7411
   XY=              1.2713   XZ=              2.2998   YZ=             -2.7862

  Exact polarizability:  53.983   1.470  51.786  -0.377  -1.058  44.546
 Approx polarizability:  69.058  -0.588  69.614  -1.254  -0.173  66.215

                      1                      2                      3
                      A                      A                      A
 Frequencies --    105.3981               222.6279               236.2224
 Red. masses --      3.8825                 1.2213                 2.4117
 Frc consts  --      0.0254                 0.0357                 0.0793
 IR Inten    --      4.4944                16.8028                44.3351

                      4                      5                      6
                      A                      A                      A
 Frequencies --    251.6985               272.4895               303.9717
 Red. masses --      1.3790                 1.1440                 3.2227
 Frc consts  --      0.0515                 0.0500                 0.1754
 IR Inten    --     39.3864                57.6698                16.2297

                      7                      8                      9
                      A                      A                      A
 Frequencies --    322.5500               367.0107               398.3871
 Red. masses --      1.1346                 2.9329                 2.6601
 Frc consts  --      0.0696                 0.2328                 0.2487
 IR Inten    --     76.6015                 1.0916                 7.7323

                     10                     11                     12
                      A                      A                      A
 Frequencies --    446.3843               500.6678               563.1360
 Red. masses --      3.8432                 2.3971                 4.8326
 Frc consts  --      0.4512                 0.3540                 0.9029
 IR Inten    --     15.9623                 4.6248                16.6693

                     13                     14                     15
                      A                      A                      A
 Frequencies --    648.3851               672.3154               801.5753
 Red. masses --      3.5276                 1.2670                 2.4885
 Frc consts  --      0.8738                 0.3374                 0.9420
 IR Inten    --     35.4747                74.8120                36.3202

                     16                     17                     18
                      A                      A                      A
 Frequencies --    906.5609               923.7581               973.1587
 Red. masses --      2.3566                 1.6153                 1.8751
 Frc consts  --      1.1411                 0.8121                 1.0463
 IR Inten    --     54.3075               157.2880                31.8566

                     19                     20                     21
                      A                      A                      A
 Frequencies --   1020.5080              1079.7682              1095.0235
 Red. masses --      2.5832                 2.2039                 1.4356
 Frc consts  --      1.5850                 1.5139                 1.0142
 IR Inten    --     16.2312               156.6825                93.8143

                     22                     23                     24
                      A                      A                      A
 Frequencies --   1147.2836              1178.3866              1240.3931
 Red. masses --      2.8521                 2.4341                 1.3296
 Frc consts  --      2.2119                 1.9915                 1.2053
 IR Inten    --     79.4515                48.5934                 6.3963

                     25                     26                     27
                      A                      A                      A
 Frequencies --   1294.7902              1367.3054              1393.1455
 Red. masses --      1.2875                 1.6922                 1.3967
 Frc consts  --      1.2718                 1.8640                 1.5972
 IR Inten    --     65.0642                25.3039                75.2866

                     28                     29                     30
                      A                      A                      A
 Frequencies --   1419.4144              1434.2580              1468.4157
 Red. masses --      1.4742                 1.4029                 1.5534
 Frc consts  --      1.7500                 1.7003                 1.9735
 IR Inten    --     38.6123                 1.4514               100.0214

                     31                     32                     33
                      A                      A                      A
 Frequencies --   1500.7322              1518.8298              1623.8521
 Red. masses --      1.0894                 1.1060                 1.1121
 Frc consts  --      1.4455                 1.5032                 1.7278
 IR Inten    --     12.0261                 4.6782                57.4392

                     34                     35                     36
                      A                      A                      A
 Frequencies --   2950.1665              3055.3280              3131.3090
 Red. masses --      1.0838                 1.0351                 1.1026
 Frc consts  --      5.5577                 5.6932                 6.3696
 IR Inten    --     84.4334                12.2396                19.0212

                     37                     38                     39
                      A                      A                      A
 Frequencies --   3140.4690              3520.7532              3614.2539
 Red. masses --      1.1033                 1.0487                 1.0648
 Frc consts  --      6.4109                 7.6588                 8.1948
 IR Inten    --     20.7564                 4.7547               119.4184

                     40                     41                     42
                      A                      A                      A
 Frequencies --   3618.7543              3807.6705              3843.7513
 Red. masses --      1.0940                 1.0657                 1.0662
 Frc consts  --      8.4409                 9.1032                 9.2811
 IR Inten    --     13.6587                26.7134                23.1855

 - Thermochemistry -
 -------------------
 Temperature   298.150 Kelvin.  Pressure   1.00000 Atm.
 Atom     1 has atomic number  6 and mass  12.00000

 Molecular mass:   107.05824 amu.
 Principal axes and moments of inertia in atomic units:
                           1         2         3
     Eigenvalues --   530.71081 749.00161 922.46150
           X            0.99476   0.10220   0.00253
           Y           -0.10200   0.99393  -0.04124
           Z           -0.00673   0.04076   0.99915
 This molecule is an asymmetric top.
 Rotational symmetry number  1.
 Warning -- assumption of classical behavior for rotation
           may cause significant error
 Rotational temperatures (Kelvin)      0.16320     0.11564     0.09389
 Rotational constants (GHZ):           3.40061     2.40953     1.95644
 Zero-point vibrational energy     355176.4 (Joules/Mol)
                                   84.88920 (Kcal/Mol)
 Warning -- explicit consideration of  12 degrees of freedom as
           vibrations may cause significant error
 Vibrational temperatures:    151.64   320.31   339.87   362.14   392.05
          (Kelvin)            437.35   464.08   528.05   573.19   642.25
                              720.35   810.23   932.88   967.31  1153.29
                             1304.34  1329.08  1400.16  1468.28  1553.54
                             1575.49  1650.68  1695.43  1784.65  1862.91
                             1967.24  2004.42  2042.22  2063.57  2112.72
                             2159.22  2185.25  2336.36  4244.63  4395.93
                             4505.25  4518.43  5065.57  5200.10  5206.57
                             5478.38  5530.29

 Zero-point correction=                           0.135280 (Hartree/Particle)
 Thermal correction to Energy=                    0.143621
 Thermal correction to Enthalpy=                  0.144565
 Thermal correction to Gibbs Free Energy=         0.103585
 Sum of electronic and zero-point Energies=           -400.031174
 Sum of electronic and thermal Energies=              -400.022833
 Sum of electronic and thermal Enthalpies=            -400.021888
 Sum of electronic and thermal Free Energies=         -400.062869

                     E (Thermal)             CV                S
                      KCal/Mol        Cal/Mol-Kelvin    Cal/Mol-Kelvin
 Total                   90.124             31.277             86.250
 Electronic               0.000              0.000              0.000
 Translational            0.889              2.981             39.921
 Rotational               0.889              2.981             27.397
 Vibrational             88.346             25.315             18.932
 Vibration     1          0.605              1.945              3.352
 Vibration     2          0.648              1.807              1.938
 Vibration     3          0.655              1.785              1.831
 Vibration     4          0.664              1.760              1.719
 Vibration     5          0.675              1.724              1.580
 Vibration     6          0.695              1.666              1.395
 Vibration     7          0.708              1.630              1.297
 Vibration     8          0.740              1.540              1.092
 Vibration     9          0.765              1.474              0.969
 Vibration    10          0.806              1.369              0.807
 Vibration    11          0.856              1.249              0.656
 Vibration    12          0.919              1.111              0.518

 Normal termination of Gaussian 09 at Thu Sep  8 14:46:25 2022.
