 Gaussian 09, Revision E.01,
 Gaussian 09:  ES64L-G09RevE.01 30-Nov-2015

 ----------------------------
 #P OPT Freq B3LYP/6-31G(d,p)
 ----------------------------

 --------
 Frag_453
 --------
 Symbolic Z-matrix:
 Charge =  0 Multiplicity = 1

 SCF Done:  E(RB3LYP) =  -289.029848914     A.U. after   13 cycles
 SCF Done:  E(RB3LYP) =  -289.029891900     A.U. after    9 cycles
 SCF Done:  E(RB3LYP) =  -289.029899006     A.U. after    9 cycles
 SCF Done:  E(RB3LYP) =  -289.029899756     A.U. after    8 cycles
 SCF Done:  E(RB3LYP) =  -289.029899426     A.U. after    7 cycles
 SCF Done:  E(RB3LYP) =  -289.029899119     A.U. after    7 cycles
 Optimization completed.
    -- Stationary point found.
 Normal termination of Gaussian 09 at Thu Sep  8 14:54:55 2022.

 ----------------------------------------------------------------------
 #P Geom=AllCheck Guess=TCheck SCRF=Check GenChk RB3LYP/6-31G(d,p) Freq
 ----------------------------------------------------------------------

 Structure from the checkpoint file:  "B3LYP6-31Gdp.Frag_453.chk"
 --------
 Frag_453
 --------
 Charge =  0 Multiplicity = 1

                         Standard orientation:
 ---------------------------------------------------------------------
 Center     Atomic      Atomic             Coordinates (Angstroms)
 Number     Number       Type             X           Y           Z
 ---------------------------------------------------------------------
      1          6           0       -2.026752   -0.104373   -0.085617
      2          8           0       -0.775432   -0.621308   -0.516101
      3          6           0        0.392233    0.003586    0.019637
      4          6           0        0.451699    1.500370   -0.319436
      5          6           0        1.545169   -0.755477   -0.651385
      6          7           0        0.369218   -0.141965    1.478237
      7          1           0       -2.781782   -0.830010   -0.398849
      8          1           0       -2.260055    0.861084   -0.556669
      9          1           0       -2.059942    0.012356    1.002467
     10          1           0        1.420867    1.922889   -0.033947
     11          1           0       -0.326420    2.055620    0.209891
     12          1           0        0.321432    1.643326   -1.395234
     13          1           0        1.516230   -0.631428   -1.737927
     14          1           0        2.510925   -0.395305   -0.283137
     15          1           0        1.459755   -1.824091   -0.431068
     16          1           0        0.528142   -1.116914    1.723804
     17          1           0        1.115683    0.402064    1.902620
 ---------------------------------------------------------------------

 SCF Done:  E(RB3LYP) =  -289.029899119     A.U. after    1 cycles

 The electronic state is 1-A.
 Alpha  occ. eigenvalues --  -19.13214 -14.31133 -10.26128 -10.20898 -10.17316
 Alpha  occ. eigenvalues --  -10.17001  -1.02019  -0.87367  -0.74891  -0.69455
 Alpha  occ. eigenvalues --   -0.66316  -0.55814  -0.49583  -0.47466  -0.45767
 Alpha  occ. eigenvalues --   -0.43176  -0.41736  -0.39766  -0.38243  -0.37241
 Alpha  occ. eigenvalues --   -0.36395  -0.34597  -0.29940  -0.24795  -0.24077
 Alpha virt. eigenvalues --    0.07366   0.11858   0.12485   0.14394   0.15227
 Alpha virt. eigenvalues --    0.16637   0.17168   0.17928   0.18686   0.19955
 Alpha virt. eigenvalues --    0.20446   0.20774   0.22643   0.25189   0.27795

 Mulliken charges:
               1
     1  C   -0.065642
     2  O   -0.495982
     3  C    0.372016
     4  C   -0.325189
     5  C   -0.306586
     6  N   -0.585166
     7  H    0.103381
     8  H    0.084395
     9  H    0.117526
    10  H    0.094949
    11  H    0.115590
    12  H    0.115426
    13  H    0.110890
    14  H    0.088490
    15  H    0.104959
    16  H    0.237766
    17  H    0.233177
 Sum of Mulliken charges =  -0.00000

 Dipole moment (field-independent basis, Debye):
    X=              1.1589    Y=              0.5644    Z=              0.6474  Tot=              1.4425
 Quadrupole moment (field-independent basis, Debye-Ang):
   XX=            -35.6194   YY=            -38.1809   ZZ=            -39.2585
   XY=             -0.3879   XZ=              1.8930   YZ=             -1.6646

  Exact polarizability:  60.071   0.555  52.772   1.257  -0.657  52.013
 Approx polarizability:  75.020   2.015  71.686   2.636   0.747  72.719

                      1                      2                      3
                      A                      A                      A
 Frequencies --    122.1428               182.3341               229.8263
 Red. masses --      1.6464                 1.2831                 1.1012
 Frc consts  --      0.0145                 0.0251                 0.0343
 IR Inten    --      3.0572                 4.8673                16.2635

                      4                      5                      6
                      A                      A                      A
 Frequencies --    255.9119               276.1122               286.9963
 Red. masses --      1.1485                 1.5168                 1.3823
 Frc consts  --      0.0443                 0.0681                 0.0671
 IR Inten    --     14.8918                 1.3968                11.0790

                      7                      8                      9
                      A                      A                      A
 Frequencies --    349.1003               385.4916               430.4216
 Red. masses --      2.2707                 2.7572                 2.3567
 Frc consts  --      0.1630                 0.2414                 0.2572
 IR Inten    --      5.3187                 3.2328                 0.7097

                     10                     11                     12
                      A                      A                      A
 Frequencies --    491.2996               557.6922               751.6111
 Red. masses --      2.9296                 2.9330                 4.1769
 Frc consts  --      0.4166                 0.5375                 1.3902
 IR Inten    --     12.7796                 2.4123                 3.7437

                     13                     14                     15
                      A                      A                      A
 Frequencies --    831.3722               903.0418               925.6484
 Red. masses --      1.8736                 1.6219                 1.4870
 Frc consts  --      0.7630                 0.7793                 0.7507
 IR Inten    --    124.5889                42.1856                 1.8263

                     16                     17                     18
                      A                      A                      A
 Frequencies --    956.2173              1019.6163              1084.2041
 Red. masses --      1.7605                 1.3553                 1.6741
 Frc consts  --      0.9484                 0.8301                 1.1595
 IR Inten    --      4.2909                 7.6286                43.9564

                     19                     20                     21
                      A                      A                      A
 Frequencies --   1112.3717              1180.9634              1208.1860
 Red. masses --      3.6425                 1.2832                 1.6099
 Frc consts  --      2.6555                 1.0544                 1.3846
 IR Inten    --     69.0788                 0.7927                35.0445

                     22                     23                     24
                      A                      A                      A
 Frequencies --   1243.3294              1256.5062              1337.8505
 Red. masses --      2.6465                 2.5206                 1.8406
 Frc consts  --      2.4104                 2.3447                 1.9410
 IR Inten    --    114.6368                48.9856                19.5195

                     25                     26                     27
                      A                      A                      A
 Frequencies --   1410.9788              1425.0583              1470.3665
 Red. masses --      1.3729                 1.2686                 1.1381
 Frc consts  --      1.6103                 1.5179                 1.4497
 IR Inten    --     20.3041                11.4860                 0.6542

                     28                     29                     30
                      A                      A                      A
 Frequencies --   1490.0405              1498.1249              1504.6081
 Red. masses --      1.0514                 1.0526                 1.0551
 Frc consts  --      1.3754                 1.3919                 1.4073
 IR Inten    --      0.4941                 0.1167                 3.5467

                     31                     32                     33
                      A                      A                      A
 Frequencies --   1513.1991              1526.6135              1531.5430
 Red. masses --      1.0565                 1.0668                 1.0490
 Frc consts  --      1.4253                 1.4649                 1.4498
 IR Inten    --      0.1976                 2.9877                 5.8530

                     34                     35                     36
                      A                      A                      A
 Frequencies --   1653.0019              3010.3874              3046.2460
 Red. masses --      1.1069                 1.0422                 1.0349
 Frc consts  --      1.7821                 5.5645                 5.6580
 IR Inten    --     30.9884                65.3205                17.9655

                     37                     38                     39
                      A                      A                      A
 Frequencies --   3055.0486              3086.3542              3121.8980
 Red. masses --      1.0370                 1.0914                 1.1014
 Frc consts  --      5.7023                 6.1251                 6.3248
 IR Inten    --     10.9966                43.6507                 5.9891

                     40                     41                     42
                      A                      A                      A
 Frequencies --   3125.8732              3128.5438              3128.9981
 Red. masses --      1.1028                 1.1046                 1.1021
 Frc consts  --      6.3489                 6.3699                 6.3573
 IR Inten    --     30.9600                34.4626                30.3678

                     43                     44                     45
                      A                      A                      A
 Frequencies --   3145.4371              3491.8420              3585.4040
 Red. masses --      1.1036                 1.0495                 1.0927
 Frc consts  --      6.4332                 7.5393                 8.2762
 IR Inten    --     22.1700                 0.2699                 0.2868

 - Thermochemistry -
 -------------------
 Temperature   298.150 Kelvin.  Pressure   1.00000 Atm.
 Atom     1 has atomic number  6 and mass  12.00000

 Molecular mass:    89.08406 amu.
 Principal axes and moments of inertia in atomic units:
                           1         2         3
     Eigenvalues --   401.85584 642.54907 656.59346
           X            0.99950  -0.03065  -0.00798
           Y            0.02653   0.94783  -0.31768
           Z            0.01730   0.31731   0.94816
 This molecule is an asymmetric top.
 Rotational symmetry number  1.
 Rotational temperatures (Kelvin)      0.21553     0.13480     0.13191
 Rotational constants (GHZ):           4.49102     2.80872     2.74864
 Zero-point vibrational energy     402709.8 (Joules/Mol)
                                   96.24994 (Kcal/Mol)
 Warning -- explicit consideration of  11 degrees of freedom as
           vibrations may cause significant error
 Vibrational temperatures:    175.74   262.34   330.67   368.20   397.26
          (Kelvin)            412.92   502.28   554.64   619.28   706.87
                              802.39  1081.40  1196.16  1299.27  1331.80
                             1375.78  1467.00  1559.93  1600.45  1699.14
                             1738.31  1788.87  1807.83  1924.87  2030.08
                             2050.34  2115.53  2143.83  2155.46  2164.79
                             2177.15  2196.45  2203.55  2378.30  4331.27
                             4382.86  4395.53  4440.57  4491.71  4497.43
                             4501.27  4501.92  4525.58  5023.98  5158.59

 Zero-point correction=                           0.153384 (Hartree/Particle)
 Thermal correction to Energy=                    0.161278
 Thermal correction to Enthalpy=                  0.162222
 Thermal correction to Gibbs Free Energy=         0.122518
 Sum of electronic and zero-point Energies=           -288.876515
 Sum of electronic and thermal Energies=              -288.868622
 Sum of electronic and thermal Enthalpies=            -288.867677
 Sum of electronic and thermal Free Energies=         -288.907382

                     E (Thermal)             CV                S
                      KCal/Mol        Cal/Mol-Kelvin    Cal/Mol-Kelvin
 Total                  101.203             28.895             83.565
 Electronic               0.000              0.000              0.000
 Translational            0.889              2.981             39.374
 Rotational               0.889              2.981             26.630
 Vibrational             99.426             22.933             17.561
 Vibration     1          0.610              1.931              3.066
 Vibration     2          0.630              1.864              2.304
 Vibration     3          0.652              1.795              1.880
 Vibration     4          0.666              1.753              1.689
 Vibration     5          0.678              1.718              1.558
 Vibration     6          0.684              1.698              1.492
 Vibration     7          0.726              1.577              1.170
 Vibration     8          0.754              1.501              1.018
 Vibration     9          0.792              1.404              0.857
 Vibration    10          0.847              1.269              0.680
 Vibration    11          0.913              1.123              0.528

 Normal termination of Gaussian 09 at Thu Sep  8 14:55:09 2022.
