 Gaussian 09, Revision E.01,
 Gaussian 09:  ES64L-G09RevE.01 30-Nov-2015

 --------------------------------
 #P OPT=calcfc Freq B3LYP/6-31G**
 --------------------------------

 --------
 Frag_169
 --------
 Symbolic Z-matrix:
 Charge =  0 Multiplicity = 1

 SCF Done:  E(RB3LYP) =  -212.564294126     A.U. after   13 cycles
 SCF Done:  E(RB3LYP) =  -212.572288123     A.U. after   13 cycles
 SCF Done:  E(RB3LYP) =  -212.573882036     A.U. after   14 cycles
 SCF Done:  E(RB3LYP) =  -212.573850416     A.U. after   14 cycles
 SCF Done:  E(RB3LYP) =  -212.574539166     A.U. after   10 cycles
 SCF Done:  E(RB3LYP) =  -212.550029128     A.U. after   13 cycles
 SCF Done:  E(RB3LYP) =  -212.574716952     A.U. after    9 cycles
 SCF Done:  E(RB3LYP) =  -212.574826548     A.U. after   12 cycles
 SCF Done:  E(RB3LYP) =  -212.575000151     A.U. after   12 cycles
 SCF Done:  E(RB3LYP) =  -212.575100264     A.U. after   10 cycles
 SCF Done:  E(RB3LYP) =  -212.575102838     A.U. after    8 cycles
 SCF Done:  E(RB3LYP) =  -212.575103020     A.U. after    7 cycles
 Optimization completed.
    -- Stationary point found.
 Normal termination of Gaussian 09 at Sat Aug 21 02:19:34 2021.

 ----------------------------------------------------------------------
 #P Geom=AllCheck Guess=TCheck SCRF=Check GenChk RB3LYP/6-31G(d,p) Freq
 ----------------------------------------------------------------------

 Structure from the checkpoint file:  "/public/home/users/caep010/.cache/gau_scr/Gau-227387.chk"
 --------
 Frag_169
 --------
 Charge =  0 Multiplicity = 1

                         Standard orientation:
 ---------------------------------------------------------------------
 Center     Atomic      Atomic             Coordinates (Angstroms)
 Number     Number       Type             X           Y           Z
 ---------------------------------------------------------------------
      1          6           0        2.003259   -0.112394    0.119165
      2          6           0        0.802225   -0.665150   -0.117969
      3          7           0       -0.420578   -0.020962   -0.256649
      4          6           0       -0.463185    1.405960   -0.004421
      5          6           0       -1.608789   -0.761140    0.137125
      6          1           0        2.887441   -0.737913    0.119368
      7          1           0        2.147644    0.947217    0.293432
      8          1           0        0.728924   -1.741643   -0.263783
      9          1           0        0.286912    1.911800   -0.619471
     10          1           0       -1.448419    1.792997   -0.278287
     11          1           0       -0.268591    1.662475    1.050952
     12          1           0       -2.492555   -0.325389   -0.340057
     13          1           0       -1.776781   -0.767323    1.227434
     14          1           0       -1.521596   -1.799145   -0.196441
 ---------------------------------------------------------------------

 SCF Done:  E(RB3LYP) =  -212.575103020     A.U. after    1 cycles

 The electronic state is 1-A.
 Alpha  occ. eigenvalues --  -14.34425 -10.21336 -10.20813 -10.20541 -10.15120
 Alpha  occ. eigenvalues --   -0.93489  -0.74235  -0.71619  -0.64603  -0.54595
 Alpha  occ. eigenvalues --   -0.49201  -0.46346  -0.45621  -0.40619  -0.39349
 Alpha  occ. eigenvalues --   -0.38609  -0.37597  -0.35245  -0.29374  -0.18841
 Alpha virt. eigenvalues --    0.04989   0.09202   0.12443   0.13546   0.14034
 Alpha virt. eigenvalues --    0.16213   0.16893   0.17712   0.19095   0.20839
 Alpha virt. eigenvalues --    0.22372   0.24684   0.33914   0.36380   0.48289

 Mulliken charges:
               1
     1  C   -0.306944
     2  C    0.143200
     3  N   -0.404788
     4  C   -0.165695
     5  C   -0.167821
     6  H    0.084840
     7  H    0.081023
     8  H    0.081798
     9  H    0.123008
    10  H    0.105083
    11  H    0.101022
    12  H    0.109766
    13  H    0.101638
    14  H    0.113871
 Sum of Mulliken charges =  -0.00000

 Dipole moment (field-independent basis, Debye):
    X=             -1.4038    Y=              0.0669    Z=              0.2846  Tot=              1.4340
 Quadrupole moment (field-independent basis, Debye-Ang):
   XX=            -31.8810   YY=            -29.4722   ZZ=            -34.9039
   XY=              0.1861   XZ=             -0.1144   YZ=              0.2233

  Exact polarizability:  69.741   1.194  50.675   1.549   1.650  33.527
 Approx polarizability:  97.994   4.859  67.455   5.345   3.020  47.635

                      1                      2                      3
                      A                      A                      A
 Frequencies --    150.4849               211.2307               224.8248
 Red. masses --      2.3428                 1.1554                 1.1194
 Frc consts  --      0.0313                 0.0304                 0.0333
 IR Inten    --      6.3017                 0.1288                 0.7558

                      4                      5                      6
                      A                      A                      A
 Frequencies --    277.7100               321.0971               424.9668
 Red. masses --      1.8047                 2.0478                 2.0770
 Frc consts  --      0.0820                 0.1244                 0.2210
 IR Inten    --     10.2139                 0.8506                 0.2008

                      7                      8                      9
                      A                      A                      A
 Frequencies --    570.0443               705.5695               799.6899
 Red. masses --      2.5418                 1.5620                 1.3867
 Frc consts  --      0.4866                 0.4582                 0.5225
 IR Inten    --      2.4871                 2.8504                54.8405

                     10                     11                     12
                      A                      A                      A
 Frequencies --    806.1305               997.5474              1025.0151
 Red. masses --      2.9220                 1.1527                 1.6391
 Frc consts  --      1.1188                 0.6758                 1.0146
 IR Inten    --      8.9624                 9.7119                21.5768

                     13                     14                     15
                      A                      A                      A
 Frequencies --   1086.8020              1127.6330              1128.8829
 Red. masses --      1.4920                 1.6066                 1.2924
 Frc consts  --      1.0383                 1.2036                 0.9704
 IR Inten    --     12.8125                57.5112                 8.1459

                     16                     17                     18
                      A                      A                      A
 Frequencies --   1173.0572              1284.5104              1344.5370
 Red. masses --      1.3988                 2.9017                 1.6088
 Frc consts  --      1.1341                 2.8208                 1.7136
 IR Inten    --     21.4229                17.7621                 5.6103

                     19                     20                     21
                      A                      A                      A
 Frequencies --   1385.7812              1451.3573              1462.1145
 Red. masses --      1.9765                 1.2002                 1.2085
 Frc consts  --      2.2363                 1.4896                 1.5221
 IR Inten    --     59.4919                 5.4135                15.5294

                     22                     23                     24
                      A                      A                      A
 Frequencies --   1492.0297              1495.1169              1501.9804
 Red. masses --      1.1106                 1.0659                 1.0885
 Frc consts  --      1.4566                 1.4039                 1.4467
 IR Inten    --      3.4581                10.1270                13.7355

                     25                     26                     27
                      A                      A                      A
 Frequencies --   1522.9760              1538.8296              1712.2872
 Red. masses --      1.0559                 1.0993                 4.3019
 Frc consts  --      1.4430                 1.5337                 7.4312
 IR Inten    --      8.9958                15.8882               160.9607

                     28                     29                     30
                      A                      A                      A
 Frequencies --   2969.2147              2976.5927              3074.1517
 Red. masses --      1.0549                 1.0580                 1.0784
 Frc consts  --      5.4793                 5.5228                 6.0048
 IR Inten    --     56.7590               112.4730                35.3777

                     31                     32                     33
                      A                      A                      A
 Frequencies --   3081.3127              3121.5128              3127.0954
 Red. masses --      1.0768                 1.1029                 1.1038
 Frc consts  --      6.0239                 6.3314                 6.3595
 IR Inten    --     33.9518                17.2395                25.4818

                     34                     35                     36
                      A                      A                      A
 Frequencies --   3159.7698              3184.5891              3267.3307
 Red. masses --      1.0853                 1.0638                 1.1160
 Frc consts  --      6.3844                 6.3564                 7.0194
 IR Inten    --     21.2894                 0.5630                16.1061

 - Thermochemistry -
 -------------------
 Temperature   298.150 Kelvin.  Pressure   1.00000 Atm.
 Atom     1 has atomic number  6 and mass  12.00000

 Molecular mass:    71.07350 amu.
 Principal axes and moments of inertia in atomic units:
                           1         2         3
     Eigenvalues --   211.35931 444.60702 621.02098
           X            0.99987   0.01570  -0.00280
           Y           -0.01569   0.99986   0.00493
           Z            0.00288  -0.00489   0.99998
 This molecule is an asymmetric top.
 Rotational symmetry number  1.
 Rotational temperatures (Kelvin)      0.40979     0.19481     0.13947
 Rotational constants (GHZ):           8.53874     4.05918     2.90609
 Zero-point vibrational energy     330072.3 (Joules/Mol)
                                   78.88917 (Kcal/Mol)
 Warning -- explicit consideration of   7 degrees of freedom as
           vibrations may cause significant error
 Vibrational temperatures:    216.51   303.91   323.47   399.56   461.99
          (Kelvin)            611.43   820.17  1015.16  1150.57  1159.84
                             1435.25  1474.77  1563.66  1622.41  1624.21
                             1687.77  1848.12  1934.49  1993.83  2088.18
                             2103.65  2146.70  2151.14  2161.01  2191.22
                             2214.03  2463.60  4272.03  4282.65  4423.01
                             4433.32  4491.16  4499.19  4546.20  4581.91
                             4700.95

 Zero-point correction=                           0.125718 (Hartree/Particle)
 Thermal correction to Energy=                    0.132058
 Thermal correction to Enthalpy=                  0.133002
 Thermal correction to Gibbs Free Energy=         0.096705
 Sum of electronic and zero-point Energies=           -212.449385
 Sum of electronic and thermal Energies=              -212.443045
 Sum of electronic and thermal Enthalpies=            -212.442101
 Sum of electronic and thermal Free Energies=         -212.478398

                     E (Thermal)             CV                S
                      KCal/Mol        Cal/Mol-Kelvin    Cal/Mol-Kelvin
 Total                   82.867             22.187             76.394
 Electronic               0.000              0.000              0.000
 Translational            0.889              2.981             38.700
 Rotational               0.889              2.981             25.571
 Vibrational             81.090             16.225             12.123
 Vibration     1          0.618              1.902              2.666
 Vibration     2          0.643              1.824              2.033
 Vibration     3          0.649              1.803              1.920
 Vibration     4          0.679              1.715              1.548
 Vibration     5          0.707              1.633              1.305
 Vibration     6          0.787              1.416              0.875
 Vibration     7          0.926              1.096              0.504

 Optimization completed.
    -- Stationary point found.
 Normal termination of Gaussian 09 at Sat Aug 21 02:19:44 2021.
