 Gaussian 09, Revision E.01,
 Gaussian 09:  ES64L-G09RevE.01 30-Nov-2015

 -------------------------
 #P OPT Freq B3LYP/6-31G**
 -------------------------

 --------
 Frag_132
 --------
 Symbolic Z-matrix:
 Charge =  0 Multiplicity = 1

 SCF Done:  E(RB3LYP) =  -264.517627747     A.U. after   14 cycles
 SCF Done:  E(RB3LYP) =  -264.528530336     A.U. after   13 cycles
 SCF Done:  E(RB3LYP) =  -264.528872684     A.U. after   12 cycles
 SCF Done:  E(RB3LYP) =  -264.528864671     A.U. after   11 cycles
 SCF Done:  E(RB3LYP) =  -264.529057528     A.U. after    8 cycles
 SCF Done:  E(RB3LYP) =  -264.529193891     A.U. after   11 cycles
 SCF Done:  E(RB3LYP) =  -264.529765926     A.U. after   12 cycles
 SCF Done:  E(RB3LYP) =  -264.468614189     A.U. after   13 cycles
 SCF Done:  E(RB3LYP) =  -264.529952771     A.U. after    9 cycles
 SCF Done:  E(RB3LYP) =  -264.524288780     A.U. after   14 cycles
 SCF Done:  E(RB3LYP) =  -264.532929383     A.U. after   11 cycles
 SCF Done:  E(RB3LYP) =  -264.532974391     A.U. after   11 cycles
 SCF Done:  E(RB3LYP) =  -264.532986904     A.U. after   10 cycles
 SCF Done:  E(RB3LYP) =  -264.532990360     A.U. after    9 cycles
 SCF Done:  E(RB3LYP) =  -264.532994282     A.U. after    8 cycles
 SCF Done:  E(RB3LYP) =  -264.533004600     A.U. after   11 cycles
 SCF Done:  E(RB3LYP) =  -264.533010096     A.U. after    9 cycles
 SCF Done:  E(RB3LYP) =  -264.533014144     A.U. after   10 cycles
 SCF Done:  E(RB3LYP) =  -264.533014293     A.U. after    7 cycles
 Optimization completed.
    -- Stationary point found.
 Normal termination of Gaussian 09 at Sat Aug 21 01:38:06 2021.

 ----------------------------------------------------------------------
 #P Geom=AllCheck Guess=TCheck SCRF=Check GenChk RB3LYP/6-31G(d,p) Freq
 ----------------------------------------------------------------------

 Structure from the checkpoint file:  "/public/home/users/caep010/.cache/gau_scr/Gau-23573.chk"
 --------
 Frag_132
 --------
 Charge =  0 Multiplicity = 1

                         Standard orientation:
 ---------------------------------------------------------------------
 Center     Atomic      Atomic             Coordinates (Angstroms)
 Number     Number       Type             X           Y           Z
 ---------------------------------------------------------------------
      1          6           0       -1.766312   -0.622792    0.000051
      2          6           0       -0.477164    0.192799   -0.000040
      3          8           0       -0.478173    1.408600   -0.000036
      4          7           0        0.661563   -0.585532   -0.000155
      5          7           0        1.930917   -0.004562   -0.000061
      6          1           0       -2.351886   -0.346861    0.880800
      7          1           0       -2.351640   -0.347302   -0.880997
      8          1           0       -1.616884   -1.706722    0.000293
      9          1           0        0.564047   -1.593543    0.000687
     10          1           0        2.448012   -0.282728   -0.829000
     11          1           0        2.447236   -0.281032    0.829943
 ---------------------------------------------------------------------

 SCF Done:  E(RB3LYP) =  -264.533014293     A.U. after    1 cycles

 The electronic state is 1-A.
 Alpha  occ. eigenvalues --  -19.09780 -14.38169 -14.35986 -10.27897 -10.18887
 Alpha  occ. eigenvalues --   -1.02723  -0.96878  -0.80953  -0.71901  -0.57899
 Alpha  occ. eigenvalues --   -0.53981  -0.51356  -0.46220  -0.43393  -0.39885
 Alpha  occ. eigenvalues --   -0.39061  -0.35071  -0.26640  -0.25380  -0.23647
 Alpha virt. eigenvalues --    0.04020   0.06350   0.08382   0.13768   0.14864
 Alpha virt. eigenvalues --    0.16317   0.18117   0.20811   0.23844   0.32686
 Alpha virt. eigenvalues --    0.40908   0.53379   0.54552   0.57386   0.60321

 Mulliken charges:
               1
     1  C   -0.397458
     2  C    0.590584
     3  O   -0.477497
     4  N   -0.447477
     5  N   -0.420562
     6  H    0.146135
     7  H    0.146152
     8  H    0.090582
     9  H    0.249477
    10  H    0.260036
    11  H    0.260030
 Sum of Mulliken charges =   0.00000

 Dipole moment (field-independent basis, Debye):
    X=              1.2713    Y=             -4.8227    Z=              0.0029  Tot=              4.9874
 Quadrupole moment (field-independent basis, Debye-Ang):
   XX=            -23.1781   YY=            -33.0000   ZZ=            -28.3552
   XY=             -1.8468   XZ=              0.0040   YZ=              0.0005

  Exact polarizability:  48.428  -1.193  38.937   0.000   0.002  27.249
 Approx polarizability:  57.685  -4.462  63.477  -0.001   0.004  37.762

                      1                      2                      3
                      A                      A                      A
 Frequencies --     46.2209               111.4969               194.0457
 Red. masses --      1.1052                 1.5728                 1.8144
 Frc consts  --      0.0014                 0.0115                 0.0403
 IR Inten    --     14.8956                77.0720                17.3184

                      4                      5                      6
                      A                      A                      A
 Frequencies --    294.9790               430.4684               444.0944
 Red. masses --      4.1206                 3.3353                 1.2191
 Frc consts  --      0.2112                 0.3641                 0.1417
 IR Inten    --      3.4673                 3.1466                33.7708

                      7                      8                      9
                      A                      A                      A
 Frequencies --    627.4181               642.3822               795.3095
 Red. masses --      3.9499                 1.9910                 1.4959
 Frc consts  --      0.9161                 0.4841                 0.5575
 IR Inten    --     26.0150                 0.5243               131.8383

                     10                     11                     12
                      A                      A                      A
 Frequencies --    936.7221              1000.7658              1054.3178
 Red. masses --      2.8387                 2.3979                 1.7173
 Frc consts  --      1.4675                 1.4150                 1.1247
 IR Inten    --      2.4864                28.5687                 9.5303

                     13                     14                     15
                      A                      A                      A
 Frequencies --   1165.6529              1284.6863              1319.2421
 Red. masses --      3.3495                 1.9517                 1.1504
 Frc consts  --      2.6814                 1.8978                 1.1796
 IR Inten    --     34.7675                68.4013                 0.8115

                     16                     17                     18
                      A                      A                      A
 Frequencies --   1408.2387              1484.4397              1502.9717
 Red. masses --      1.2557                 1.0456                 1.0666
 Frc consts  --      1.4672                 1.3575                 1.4195
 IR Inten    --     24.1103                 4.8393                10.8156

                     19                     20                     21
                      A                      A                      A
 Frequencies --   1534.5703              1693.7593              1828.8213
 Red. masses --      1.6735                 1.1390                 8.7799
 Frc consts  --      2.3220                 1.9252                17.3015
 IR Inten    --     78.5327                10.0148               270.1905

                     22                     23                     24
                      A                      A                      A
 Frequencies --   3057.1213              3135.3716              3143.3039
 Red. masses --      1.0367                 1.1022                 1.1014
 Frc consts  --      5.7084                 6.3839                 6.4115
 IR Inten    --     10.3755                21.0256                 6.4913

                     25                     26                     27
                      A                      A                      A
 Frequencies --   3486.9436              3559.3290              3582.9691
 Red. masses --      1.0448                 1.0774                 1.0995
 Frc consts  --      7.4846                 8.0419                 8.3166
 IR Inten    --      2.6249                13.8653                 0.5643

 - Thermochemistry -
 -------------------
 Temperature   298.150 Kelvin.  Pressure   1.00000 Atm.
 Atom     1 has atomic number  6 and mass  12.00000

 Molecular mass:    74.04801 amu.
 Principal axes and moments of inertia in atomic units:
                           1         2         3
     Eigenvalues --   179.10673 469.03336 627.06422
           X            0.99965   0.02646   0.00001
           Y           -0.02646   0.99965  -0.00000
           Z           -0.00001   0.00000   1.00000
 This molecule is an asymmetric top.
 Rotational symmetry number  1.
 Rotational temperatures (Kelvin)      0.48359     0.18466     0.13813
 Rotational constants (GHZ):          10.07634     3.84779     2.87808
 Zero-point vibrational energy     237851.4 (Joules/Mol)
                                   56.84784 (Kcal/Mol)
 Warning -- explicit consideration of   6 degrees of freedom as
           vibrations may cause significant error
 Vibrational temperatures:     66.50   160.42   279.19   424.41   619.35
          (Kelvin)            638.95   902.71   924.24  1144.27  1347.73
                             1439.88  1516.93  1677.11  1848.37  1898.09
                             2026.14  2135.77  2162.44  2207.90  2436.94
                             2631.26  4398.51  4511.09  4522.51  5016.93
                             5121.07  5155.09

 Zero-point correction=                           0.090593 (Hartree/Particle)
 Thermal correction to Energy=                    0.097071
 Thermal correction to Enthalpy=                  0.098015
 Thermal correction to Gibbs Free Energy=         0.060355
 Sum of electronic and zero-point Energies=           -264.442421
 Sum of electronic and thermal Energies=              -264.435944
 Sum of electronic and thermal Enthalpies=            -264.434999
 Sum of electronic and thermal Free Energies=         -264.472659

                     E (Thermal)             CV                S
                      KCal/Mol        Cal/Mol-Kelvin    Cal/Mol-Kelvin
 Total                   60.913             20.822             79.261
 Electronic               0.000              0.000              0.000
 Translational            0.889              2.981             38.822
 Rotational               0.889              2.981             25.469
 Vibrational             59.135             14.860             14.969
 Vibration     1          0.595              1.979              4.973
 Vibration     2          0.607              1.940              3.243
 Vibration     3          0.635              1.848              2.189
 Vibration     4          0.689              1.683              1.445
 Vibration     5          0.792              1.404              0.857
 Vibration     6          0.804              1.374              0.814

 Optimization completed.
    -- Stationary point found.
 Normal termination of Gaussian 09 at Sat Aug 21 01:38:14 2021.
