 Gaussian 09, Revision E.01,
 Gaussian 09:  ES64L-G09RevE.01 30-Nov-2015

 ----------------------------
 #P OPT Freq B3LYP/6-31G(d,p)
 ----------------------------

 --------
 Frag_574
 --------
 Symbolic Z-matrix:
 Charge =  0 Multiplicity = 1

 SCF Done:  E(RB3LYP) =  -189.268101061     A.U. after   12 cycles
 SCF Done:  E(RB3LYP) =  -189.268131418     A.U. after   10 cycles
 SCF Done:  E(RB3LYP) =  -189.268148099     A.U. after    9 cycles
 SCF Done:  E(RB3LYP) =  -189.268151819     A.U. after    7 cycles
 Optimization completed.
    -- Stationary point found.
 Normal termination of Gaussian 09 at Thu Sep  8 15:06:13 2022.

 ----------------------------------------------------------------------
 #P Geom=AllCheck Guess=TCheck SCRF=Check GenChk RB3LYP/6-31G(d,p) Freq
 ----------------------------------------------------------------------

 Structure from the checkpoint file:  "B3LYP6-31Gdp.Frag_574.chk"
 --------
 Frag_574
 --------
 Charge =  0 Multiplicity = 1

                         Standard orientation:
 ---------------------------------------------------------------------
 Center     Atomic      Atomic             Coordinates (Angstroms)
 Number     Number       Type             X           Y           Z
 ---------------------------------------------------------------------
      1          6           0       -1.363906    0.501505    0.000001
      2          7           0       -0.621472   -0.782733   -0.000001
      3          7           0        0.621472   -0.782733    0.000001
      4          6           0        1.363906    0.501505   -0.000001
      5          1           0       -1.128206    1.101710    0.887577
      6          1           0       -1.128237    1.101686   -0.887600
      7          1           0       -2.428405    0.266707    0.000021
      8          1           0        1.128205    1.101710   -0.887577
      9          1           0        2.428405    0.266707   -0.000022
     10          1           0        1.128237    1.101686    0.887600
 ---------------------------------------------------------------------

 SCF Done:  E(RB3LYP) =  -189.268151819     A.U. after    1 cycles

 The electronic state is 1-A.
 Alpha  occ. eigenvalues --  -14.37849 -14.37798 -10.21486 -10.21485  -1.02167
 Alpha  occ. eigenvalues --   -0.77585  -0.72371  -0.56371  -0.49212  -0.47341
 Alpha  occ. eigenvalues --   -0.46582  -0.41789  -0.40358  -0.33509  -0.32701
 Alpha  occ. eigenvalues --   -0.21593
 Alpha virt. eigenvalues --   -0.03719   0.07934   0.12053   0.13029   0.15729
 Alpha virt. eigenvalues --    0.16105   0.18044   0.21305   0.23236   0.41396
 Alpha virt. eigenvalues --    0.48676   0.51028   0.53834   0.56150   0.56848

 Mulliken charges:
               1
     1  C   -0.215557
     2  N   -0.168643
     3  N   -0.168644
     4  C   -0.215557
     5  H    0.125134
     6  H    0.125136
     7  H    0.133932
     8  H    0.125134
     9  H    0.133932
    10  H    0.125136
 Sum of Mulliken charges =   0.00000

 Dipole moment (field-independent basis, Debye):
    X=             -0.0000    Y=              3.1872    Z=              0.0000  Tot=              3.1872
 Quadrupole moment (field-independent basis, Debye-Ang):
   XX=            -23.3357   YY=            -28.5944   ZZ=            -24.3845
   XY=              0.0000   XZ=              0.0000   YZ=              0.0000

  Exact polarizability:  47.739   0.000  32.127   0.000  -0.000  26.896
 Approx polarizability:  68.832   0.000  46.801   0.000  -0.000  38.164

                      1                      2                      3
                      A                      A                      A
 Frequencies --     59.6480               180.3736               366.7658
 Red. masses --      1.0397                 1.0744                 2.5483
 Frc consts  --      0.0022                 0.0206                 0.2020
 IR Inten    --      0.0000                 0.0260                 0.6475

                      4                      5                      6
                      A                      A                      A
 Frequencies --    476.1789               626.3832               863.6127
 Red. masses --      3.1574                 2.4840                 5.9265
 Frc consts  --      0.4218                 0.5742                 2.6043
 IR Inten    --      0.0000                 0.3266                 0.0901

                      7                      8                      9
                      A                      A                      A
 Frequencies --    939.1156               941.9865              1090.5656
 Red. masses --      6.3164                 1.2235                 1.5169
 Frc consts  --      3.2822                 0.6397                 1.0629
 IR Inten    --     16.8677                 1.4813                 0.0000

                     10                     11                     12
                      A                      A                      A
 Frequencies --   1098.1129              1178.2850              1392.6889
 Red. masses --      1.3303                 1.7610                 1.1707
 Frc consts  --      0.9451                 1.4405                 1.3378
 IR Inten    --      4.5399                15.6882                 3.7642

                     13                     14                     15
                      A                      A                      A
 Frequencies --   1410.4684              1473.5214              1484.8448
 Red. masses --      1.1504                 1.0477                 1.0799
 Frc consts  --      1.3484                 1.3403                 1.4028
 IR Inten    --     15.8856                 9.1874                 0.5339

                     16                     17                     18
                      A                      A                      A
 Frequencies --   1494.0038              1518.5230              1668.3974
 Red. masses --      1.0475                 1.0517                 8.6401
 Frc consts  --      1.3776                 1.4288                14.1699
 IR Inten    --      0.0000                19.3768                14.1890

                     19                     20                     21
                      A                      A                      A
 Frequencies --   3024.5120              3025.4746              3090.2403
 Red. masses --      1.0374                 1.0358                 1.1017
 Frc consts  --      5.5911                 5.5862                 6.1988
 IR Inten    --      1.8356                14.6694                36.4430

                     22                     23                     24
                      A                      A                      A
 Frequencies --   3095.1623              3157.7595              3158.6537
 Red. masses --      1.1024                 1.1004                 1.1000
 Frc consts  --      6.2226                 6.4650                 6.4660
 IR Inten    --      0.0000                35.7677                 1.6149

 - Thermochemistry -
 -------------------
 Temperature   298.150 Kelvin.  Pressure   1.00000 Atm.
 Atom     1 has atomic number  6 and mass  12.00000

 Molecular mass:    58.05310 amu.
 Principal axes and moments of inertia in atomic units:
                           1         2         3
     Eigenvalues --   110.67557 270.17385 358.16664
           X            1.00000  -0.00000   0.00000
           Y            0.00000   1.00000  -0.00000
           Z           -0.00000   0.00000   1.00000
 This molecule is an asymmetric top.
 Rotational symmetry number  1.
 Rotational temperatures (Kelvin)      0.78259     0.32059     0.24183
 Rotational constants (GHZ):          16.30659     6.67993     5.03883
 Zero-point vibrational energy     220204.3 (Joules/Mol)
                                   52.63008 (Kcal/Mol)
 Warning -- explicit consideration of   4 degrees of freedom as
           vibrations may cause significant error
 Vibrational temperatures:     85.82   259.52   527.69   685.11   901.22
          (Kelvin)           1242.54  1351.18  1355.31  1569.08  1579.94
                             1695.29  2003.77  2029.35  2120.07  2136.36
                             2149.54  2184.81  2400.45  4351.59  4352.98
                             4446.16  4453.24  4543.31  4544.59

 Zero-point correction=                           0.083871 (Hartree/Particle)
 Thermal correction to Energy=                    0.089104
 Thermal correction to Enthalpy=                  0.090048
 Thermal correction to Gibbs Free Energy=         0.056001
 Sum of electronic and zero-point Energies=           -189.184280
 Sum of electronic and thermal Energies=              -189.179048
 Sum of electronic and thermal Enthalpies=            -189.178104
 Sum of electronic and thermal Free Energies=         -189.212151

                     E (Thermal)             CV                S
                      KCal/Mol        Cal/Mol-Kelvin    Cal/Mol-Kelvin
 Total                   55.913             16.417             71.659
 Electronic               0.000              0.000              0.000
 Translational            0.889              2.981             38.097
 Rotational               0.889              2.981             23.886
 Vibrational             54.136             10.455              9.675
 Vibration     1          0.597              1.974              4.469
 Vibration     2          0.629              1.866              2.325
 Vibration     3          0.740              1.541              1.093
 Vibration     4          0.833              1.303              0.720

 Optimization completed.
    -- Stationary point found.
 Normal termination of Gaussian 09 at Thu Sep  8 15:06:19 2022.
