 Gaussian 09, Revision E.01,
 Gaussian 09:  ES64L-G09RevE.01 30-Nov-2015

 ----------------------------
 #P OPT Freq B3LYP/6-31G(d,p)
 ----------------------------

 --------
 Frag_916
 --------
 Symbolic Z-matrix:
 Charge =  0 Multiplicity = 1

 SCF Done:  E(RB3LYP) =  -269.137988534     A.U. after   12 cycles
 SCF Done:  E(RB3LYP) =  -269.138014096     A.U. after    9 cycles
 SCF Done:  E(RB3LYP) =  -269.138016047     A.U. after    7 cycles
 SCF Done:  E(RB3LYP) =  -269.138017029     A.U. after    7 cycles
 Optimization completed.
    -- Stationary point found.
 Normal termination of Gaussian 09 at Thu Sep  8 15:00:28 2022.

 ----------------------------------------------------------------------
 #P Geom=AllCheck Guess=TCheck SCRF=Check GenChk RB3LYP/6-31G(d,p) Freq
 ----------------------------------------------------------------------

 Structure from the checkpoint file:  "B3LYP6-31Gdp.Frag_916.chk"
 --------
 Frag_916
 --------
 Charge =  0 Multiplicity = 1

                         Standard orientation:
 ---------------------------------------------------------------------
 Center     Atomic      Atomic             Coordinates (Angstroms)
 Number     Number       Type             X           Y           Z
 ---------------------------------------------------------------------
      1          6           0        0.503218    1.456409    0.515490
      2          6           0        0.405332    0.010534    0.009224
      3          6           0        1.572339   -0.300426   -0.939778
      4          6           0        0.413889   -0.971354    1.198678
      5          7           0       -0.823689   -0.109496   -0.812137
      6          7           0       -2.017850    0.051696   -0.039858
      7          1           0       -0.369270    1.701717    1.125329
      8          1           0        1.405634    1.595310    1.120183
      9          1           0        0.537822    2.151954   -0.328529
     10          1           0        2.530902   -0.185554   -0.424808
     11          1           0        1.519798   -1.331354   -1.312270
     12          1           0        1.556552    0.373888   -1.801117
     13          1           0        1.334341   -0.877245    1.784736
     14          1           0       -0.430139   -0.773372    1.865879
     15          1           0        0.346470   -2.010153    0.851114
     16          1           0       -0.810384   -1.022456   -1.270887
     17          1           0       -2.723745    0.450666   -0.651183
     18          1           0       -2.375879   -0.839782    0.303834
 ---------------------------------------------------------------------

 SCF Done:  E(RB3LYP) =  -269.138017029     A.U. after    1 cycles

 The electronic state is 1-A.
 Alpha  occ. eigenvalues --  -14.33475 -14.33303 -10.21005 -10.16796 -10.16507
 Alpha  occ. eigenvalues --  -10.15515  -0.94909  -0.81023  -0.71586  -0.67809
 Alpha  occ. eigenvalues --   -0.67311  -0.53723  -0.49973  -0.47834  -0.45374
 Alpha  occ. eigenvalues --   -0.42677  -0.41164  -0.37930  -0.37103  -0.35373
 Alpha  occ. eigenvalues --   -0.35213  -0.32422  -0.31848  -0.24362  -0.22229
 Alpha virt. eigenvalues --    0.06931   0.10168   0.12846   0.13655   0.15591
 Alpha virt. eigenvalues --    0.16263   0.16756   0.17798   0.19228   0.19531
 Alpha virt. eigenvalues --    0.20963   0.22705   0.23307   0.23941   0.26128

 Mulliken charges:
               1
     1  C   -0.288054
     2  C    0.179362
     3  C   -0.311179
     4  C   -0.313809
     5  N   -0.405248
     6  N   -0.468867
     7  H    0.121394
     8  H    0.085793
     9  H    0.099510
    10  H    0.101323
    11  H    0.085379
    12  H    0.112830
    13  H    0.098216
    14  H    0.111727
    15  H    0.079857
    16  H    0.222492
    17  H    0.256123
    18  H    0.233154
 Sum of Mulliken charges =   0.00000

 Dipole moment (field-independent basis, Debye):
    X=             -0.6285    Y=             -1.6069    Z=             -0.2943  Tot=              1.7504
 Quadrupole moment (field-independent basis, Debye-Ang):
   XX=            -35.3651   YY=            -38.9892   ZZ=            -40.8192
   XY=              2.4392   XZ=              1.5638   YZ=              0.6745

  Exact polarizability:  64.514   0.035  56.433  -0.277   0.064  54.856
 Approx polarizability:  83.984  -0.485  76.659   0.083   0.455  75.817

                      1                      2                      3
                      A                      A                      A
 Frequencies --    145.1582               214.9318               255.6162
 Red. masses --      2.5255                 1.0715                 1.2552
 Frc consts  --      0.0314                 0.0292                 0.0483
 IR Inten    --      4.2655                 1.1771                 3.4713

                      4                      5                      6
                      A                      A                      A
 Frequencies --    264.4353               268.8978               307.0585
 Red. masses --      1.0563                 1.7642                 1.1508
 Frc consts  --      0.0435                 0.0752                 0.0639
 IR Inten    --     12.2735                 1.1849                27.0229

                      7                      8                      9
                      A                      A                      A
 Frequencies --    341.4646               356.8906               411.4472
 Red. masses --      2.0330                 2.4368                 2.2305
 Frc consts  --      0.1397                 0.1829                 0.2225
 IR Inten    --      5.6662                 2.1775                 0.3595

                     10                     11                     12
                      A                      A                      A
 Frequencies --    457.3374               541.3003               730.7294
 Red. masses --      2.2180                 3.0804                 3.3799
 Frc consts  --      0.2733                 0.5318                 1.0633
 IR Inten    --      5.7465                 8.9424                16.8931

                     13                     14                     15
                      A                      A                      A
 Frequencies --    776.3673               880.2029               918.0115
 Red. masses --      1.7813                 1.8251                 1.7005
 Frc consts  --      0.6326                 0.8331                 0.8443
 IR Inten    --     25.0407                52.7173                 0.4387

                     16                     17                     18
                      A                      A                      A
 Frequencies --    932.5184               960.6542               977.2654
 Red. masses --      1.7432                 1.2101                 1.3857
 Frc consts  --      0.8931                 0.6580                 0.7797
 IR Inten    --      3.8747                 0.2889                50.2893

                     19                     20                     21
                      A                      A                      A
 Frequencies --   1046.6420              1069.8055              1138.9238
 Red. masses --      1.4063                 1.4256                 2.3371
 Frc consts  --      0.9076                 0.9613                 1.7861
 IR Inten    --      2.8093                14.5999                 8.7162

                     22                     23                     24
                      A                      A                      A
 Frequencies --   1243.0370              1264.5184              1289.5987
 Red. masses --      2.2758                 2.6099                 2.7592
 Frc consts  --      2.0718                 2.4589                 2.7036
 IR Inten    --     19.0994                21.4404                 7.2828

                     25                     26                     27
                      A                      A                      A
 Frequencies --   1309.7030              1398.5881              1404.8045
 Red. masses --      1.2817                 1.2693                 1.2671
 Frc consts  --      1.2953                 1.4629                 1.4733
 IR Inten    --      7.6487                10.2190                 7.9478

                     28                     29                     30
                      A                      A                      A
 Frequencies --   1429.7335              1485.4823              1492.3844
 Red. masses --      1.2414                 1.0721                 1.0890
 Frc consts  --      1.4951                 1.3939                 1.4290
 IR Inten    --      7.3718                 1.5527                 1.6027

                     31                     32                     33
                      A                      A                      A
 Frequencies --   1502.4757              1504.9267              1512.2998
 Red. masses --      1.0539                 1.0469                 1.0597
 Frc consts  --      1.4018                 1.3970                 1.4280
 IR Inten    --      0.1392                 0.0469                 2.9559

                     34                     35                     36
                      A                      A                      A
 Frequencies --   1529.4964              1535.8481              1678.8092
 Red. masses --      1.1129                 1.0582                 1.0826
 Frc consts  --      1.5340                 1.4707                 1.7977
 IR Inten    --      2.1037                 6.7238                 9.2364

                     37                     38                     39
                      A                      A                      A
 Frequencies --   3028.6140              3035.0836              3050.0508
 Red. masses --      1.0384                 1.0388                 1.0369
 Frc consts  --      5.6120                 5.6378                 5.6832
 IR Inten    --     21.2632                38.5784                14.3887

                     40                     41                     42
                      A                      A                      A
 Frequencies --   3097.0111              3104.3548              3118.5812
 Red. masses --      1.0988                 1.0966                 1.1023
 Frc consts  --      6.2092                 6.2267                 6.3161
 IR Inten    --     11.3453                53.4144                13.3826

                     43                     44                     45
                      A                      A                      A
 Frequencies --   3122.1736              3129.8142              3142.1026
 Red. masses --      1.1020                 1.1028                 1.1013
 Frc consts  --      6.3292                 6.3647                 6.4063
 IR Inten    --     19.2770                43.3849                19.7791

                     46                     47                     48
                      A                      A                      A
 Frequencies --   3418.7109              3444.0759              3561.5872
 Red. masses --      1.0716                 1.0550                 1.0906
 Frc consts  --      7.3789                 7.3734                 8.1506
 IR Inten    --     17.5095                 9.8295                 0.1739

 - Thermochemistry -
 -------------------
 Temperature   298.150 Kelvin.  Pressure   1.00000 Atm.
 Atom     1 has atomic number  6 and mass  12.00000

 Molecular mass:    88.10005 amu.
 Principal axes and moments of inertia in atomic units:
                           1         2         3
     Eigenvalues --   411.65053 679.38146 680.56371
           X            0.99986  -0.01661   0.00289
           Y           -0.01191  -0.57432   0.81854
           Z            0.01194   0.81846   0.57444
 This molecule is an asymmetric top.
 Rotational symmetry number  1.
 Rotational temperatures (Kelvin)      0.21041     0.12749     0.12727
 Rotational constants (GHZ):           4.38416     2.65645     2.65183
 Zero-point vibrational energy     435617.3 (Joules/Mol)
                                  104.11503 (Kcal/Mol)
 Warning -- explicit consideration of  11 degrees of freedom as
           vibrations may cause significant error
 Vibrational temperatures:    208.85   309.24   367.77   380.46   386.88
          (Kelvin)            441.79   491.29   513.49   591.98   658.01
                              778.81  1051.36  1117.02  1266.41  1320.81
                             1341.68  1382.17  1406.07  1505.88  1539.21
                             1638.66  1788.45  1819.36  1855.44  1884.37
                             2012.25  2021.20  2057.07  2137.28  2147.21
                             2161.72  2165.25  2175.86  2200.60  2209.74
                             2415.43  4357.49  4366.80  4388.34  4455.90
                             4466.47  4486.94  4492.11  4503.10  4520.78
                             4918.76  4955.25  5124.32

 Zero-point correction=                           0.165918 (Hartree/Particle)
 Thermal correction to Energy=                    0.173845
 Thermal correction to Enthalpy=                  0.174789
 Thermal correction to Gibbs Free Energy=         0.135211
 Sum of electronic and zero-point Energies=           -268.972099
 Sum of electronic and thermal Energies=              -268.964172
 Sum of electronic and thermal Enthalpies=            -268.963228
 Sum of electronic and thermal Free Energies=         -269.002806

                     E (Thermal)             CV                S
                      KCal/Mol        Cal/Mol-Kelvin    Cal/Mol-Kelvin
 Total                  109.090             29.802             83.299
 Electronic               0.000              0.000              0.000
 Translational            0.889              2.981             39.340
 Rotational               0.889              2.981             26.745
 Vibrational            107.312             23.840             17.214
 Vibration     1          0.617              1.908              2.735
 Vibration     2          0.645              1.818              2.001
 Vibration     3          0.666              1.753              1.692
 Vibration     4          0.671              1.738              1.632
 Vibration     5          0.673              1.730              1.603
 Vibration     6          0.697              1.660              1.378
 Vibration     7          0.721              1.593              1.205
 Vibration     8          0.732              1.561              1.136
 Vibration     9          0.775              1.445              0.922
 Vibration    10          0.815              1.345              0.774
 Vibration    11          0.896              1.159              0.562

 Optimization completed.
    -- Stationary point found.
 Normal termination of Gaussian 09 at Thu Sep  8 15:00:43 2022.
