 Gaussian 09, Revision E.01,
 Gaussian 09:  ES64L-G09RevE.01 30-Nov-2015

 ----------------------------
 #P OPT Freq B3LYP/6-31G(d,p)
 ----------------------------

 ---------
 Frag_1030
 ---------
 Symbolic Z-matrix:
 Charge =  0 Multiplicity = 1

 SCF Done:  E(RB3LYP) =  -375.599329261     A.U. after   15 cycles
 SCF Done:  E(RB3LYP) =  -375.599476635     A.U. after   11 cycles
 SCF Done:  E(RB3LYP) =  -375.599472509     A.U. after   11 cycles
 SCF Done:  E(RB3LYP) =  -375.599496509     A.U. after    9 cycles
 SCF Done:  E(RB3LYP) =  -375.599499821     A.U. after    8 cycles
 SCF Done:  E(RB3LYP) =  -375.599501173     A.U. after    8 cycles
 SCF Done:  E(RB3LYP) =  -375.599501758     A.U. after    8 cycles
 SCF Done:  E(RB3LYP) =  -375.599501984     A.U. after    8 cycles
 Optimization completed.
    -- Stationary point found.
 Normal termination of Gaussian 09 at Thu Sep  8 14:52:51 2022.

 ----------------------------------------------------------------------
 #P Geom=AllCheck Guess=TCheck SCRF=Check GenChk RB3LYP/6-31G(d,p) Freq
 ----------------------------------------------------------------------

 Structure from the checkpoint file:  "B3LYP6-31Gdp.Frag_1030.chk"
 ---------
 Frag_1030
 ---------
 Charge =  0 Multiplicity = 1

                         Standard orientation:
 ---------------------------------------------------------------------
 Center     Atomic      Atomic             Coordinates (Angstroms)
 Number     Number       Type             X           Y           Z
 ---------------------------------------------------------------------
      1          7           0        1.464703    0.956137   -0.042636
      2          6           0        0.757512   -0.203206    0.053309
      3          8           0        1.218448   -1.323718    0.029792
      4          7           0       -0.648892    0.001350    0.367760
      5          8           0       -1.077673    1.270213   -0.119025
      6          8           0       -1.411964   -0.981999   -0.293199
      7          1           0        2.433950    0.855156   -0.298860
      8          1           0        0.976914    1.809912   -0.262718
      9          1           0       -1.657726    1.587926    0.588298
     10          1           0       -1.839367   -1.452139    0.437018
 ---------------------------------------------------------------------

 SCF Done:  E(RB3LYP) =  -375.599501984     A.U. after    1 cycles

 The electronic state is 1-A.
 Alpha  occ. eigenvalues --  -19.20513 -19.19177 -19.11635 -14.45025 -14.35916
 Alpha  occ. eigenvalues --  -10.31459  -1.13476  -1.03973  -1.02749  -0.91211
 Alpha  occ. eigenvalues --   -0.79759  -0.60707  -0.55884  -0.55249  -0.52192
 Alpha  occ. eigenvalues --   -0.48910  -0.42568  -0.41882  -0.40393  -0.34980
 Alpha  occ. eigenvalues --   -0.31227  -0.27694  -0.26932  -0.25527
 Alpha virt. eigenvalues --    0.01836   0.06151   0.08348   0.09909   0.12819
 Alpha virt. eigenvalues --    0.13293   0.16433   0.24645   0.33389   0.39140
 Alpha virt. eigenvalues --    0.55325   0.57900   0.60705   0.64713   0.67325

 Mulliken charges:
               1
     1  N   -0.615458
     2  C    0.742516
     3  O   -0.484345
     4  N   -0.101230
     5  O   -0.410549
     6  O   -0.376762
     7  H    0.284532
     8  H    0.289336
     9  H    0.335729
    10  H    0.336232
 Sum of Mulliken charges =  -0.00000

 Dipole moment (field-independent basis, Debye):
    X=             -1.2547    Y=              3.1849    Z=              1.3294  Tot=              3.6723
 Quadrupole moment (field-independent basis, Debye-Ang):
   XX=            -27.1240   YY=            -31.9374   ZZ=            -34.3064
   XY=              5.0060   XZ=             -5.7499   YZ=             -0.8801

  Exact polarizability:  41.299   0.931  44.179  -2.879  -0.366  20.291
 Approx polarizability:  53.196  -1.626  72.080  -3.404  -0.019  30.085

                      1                      2                      3
                      A                      A                      A
 Frequencies --     95.1483               213.8186               320.1052
 Red. masses --      6.5208                 1.1202                 5.9782
 Frc consts  --      0.0348                 0.0302                 0.3609
 IR Inten    --      2.8948                53.0106                 7.4127

                      4                      5                      6
                      A                      A                      A
 Frequencies --    324.3298               385.0090               432.7187
 Red. masses --      2.3050                 1.4227                 1.4682
 Frc consts  --      0.1429                 0.1243                 0.1620
 IR Inten    --     25.3312               121.4162               161.2096

                      7                      8                      9
                      A                      A                      A
 Frequencies --    494.7103               521.9599               576.9184
 Red. masses --      6.2814                 2.4570                 1.4465
 Frc consts  --      0.9057                 0.3944                 0.2837
 IR Inten    --     39.2950                36.8621                 3.2280

                     10                     11                     12
                      A                      A                      A
 Frequencies --    595.9383               745.8914               786.1952
 Red. masses --      3.1865                 4.4944                 9.7293
 Frc consts  --      0.6668                 1.4732                 3.5432
 IR Inten    --     18.7891                51.4745                36.6460

                     13                     14                     15
                      A                      A                      A
 Frequencies --    976.6979              1063.6274              1109.9989
 Red. masses --      8.9906                 8.3096                 1.9770
 Frc consts  --      5.0531                 5.5387                 1.4352
 IR Inten    --    130.3859                26.2471                 0.5684

                     16                     17                     18
                      A                      A                      A
 Frequencies --   1345.9191              1385.7593              1408.5508
 Red. masses --      1.7763                 1.5752                 1.1639
 Frc consts  --      1.8959                 1.7823                 1.3605
 IR Inten    --    138.7620                84.6115                84.8157

                     19                     20                     21
                      A                      A                      A
 Frequencies --   1596.7183              1860.2764              3610.9079
 Red. masses --      1.2650                10.5397                 1.0444
 Frc consts  --      1.9002                21.4898                 8.0231
 IR Inten    --    149.8205               330.9648                43.5123

                     22                     23                     24
                      A                      A                      A
 Frequencies --   3748.8856              3786.4588              3792.4353
 Red. masses --      1.1050                 1.0683                 1.0685
 Frc consts  --      9.1500                 9.0244                 9.0542
 IR Inten    --     68.5231                41.0599                49.3456

 - Thermochemistry -
 -------------------
 Temperature   298.150 Kelvin.  Pressure   1.00000 Atm.
 Atom     1 has atomic number  7 and mass  14.00307

 Molecular mass:    92.02219 amu.
 Principal axes and moments of inertia in atomic units:
                           1         2         3
     Eigenvalues --   339.29372 481.32061 790.57845
           X            0.99508   0.09667  -0.02191
           Y           -0.09682   0.99529  -0.00572
           Z            0.02125   0.00782   0.99974
 This molecule is an asymmetric top.
 Rotational symmetry number  1.
 Rotational temperatures (Kelvin)      0.25528     0.17995     0.10956
 Rotational constants (GHZ):           5.31911     3.74956     2.28281
 Zero-point vibrational energy     186491.7 (Joules/Mol)
                                   44.57259 (Kcal/Mol)
 Warning -- explicit consideration of  10 degrees of freedom as
           vibrations may cause significant error
 Vibrational temperatures:    136.90   307.64   460.56   466.64   553.94
          (Kelvin)            622.58   711.78   750.98   830.06   857.42
                             1073.17  1131.16  1405.25  1530.32  1597.04
                             1936.48  1993.80  2026.59  2297.32  2676.52
                             5195.28  5393.80  5447.86  5456.46

 Zero-point correction=                           0.071031 (Hartree/Particle)
 Thermal correction to Energy=                    0.077608
 Thermal correction to Enthalpy=                  0.078552
 Thermal correction to Gibbs Free Energy=         0.041082
 Sum of electronic and zero-point Energies=           -375.528471
 Sum of electronic and thermal Energies=              -375.521894
 Sum of electronic and thermal Enthalpies=            -375.520950
 Sum of electronic and thermal Free Energies=         -375.558420

                     E (Thermal)             CV                S
                      KCal/Mol        Cal/Mol-Kelvin    Cal/Mol-Kelvin
 Total                   48.700             23.302             78.863
 Electronic               0.000              0.000              0.000
 Translational            0.889              2.981             39.470
 Rotational               0.889              2.981             26.360
 Vibrational             46.922             17.340             13.033
 Vibration     1          0.603              1.953              3.551
 Vibration     2          0.644              1.820              2.011
 Vibration     3          0.706              1.635              1.310
 Vibration     4          0.709              1.627              1.288
 Vibration     5          0.754              1.502              1.019
 Vibration     6          0.794              1.399              0.850
 Vibration     7          0.850              1.262              0.671
 Vibration     8          0.877              1.201              0.605
 Vibration     9          0.933              1.081              0.491
 Vibration    10          0.954              1.040              0.457

 Optimization completed.
    -- Stationary point found.
 Normal termination of Gaussian 09 at Thu Sep  8 14:52:58 2022.
