 Gaussian 09, Revision D.01,
 Gaussian 09:  ES64L-G09RevD.01 24-Apr-2013

 -------------------------
 #P OPT Freq B3LYP/6-31G**
 -------------------------

 ------
 Frag_4
 ------
 Symbolic Z-matrix:
 Charge =  0 Multiplicity = 1

 SCF Done:  E(RB3LYP) =  -195.338810358     A.U. after   11 cycles
 Optimization completed.
    -- Stationary point found.
 Normal termination of Gaussian 09 at Fri Jul 23 03:36:25 2021.

 ----------------------------------------------------------------------
 #P Geom=AllCheck Guess=TCheck SCRF=Check GenChk RB3LYP/6-31G(d,p) Freq
 ----------------------------------------------------------------------

 Structure from the checkpoint file:  "/vol2/users/liuj201281/HOFBenchmark/IsodesmicSplit/Sample60/Ring26/Running/Gau-238688.chk"
 ------
 Frag_4
 ------
 Charge =  0 Multiplicity = 1

                         Standard orientation:
 ---------------------------------------------------------------------
 Center     Atomic      Atomic             Coordinates (Angstroms)
 Number     Number       Type             X           Y           Z
 ---------------------------------------------------------------------
      1          6           0       -0.066434    1.074618    0.667600
      2          6           0       -0.066434    1.074618   -0.667600
      3          6           0       -0.066434   -0.326382   -1.236600
      4          6           0        0.257566   -1.207382    0.000000
      5          6           0       -0.066434   -0.326382    1.236600
      6          1           0       -0.103134    1.962818    1.291700
      7          1           0       -0.103134    1.962818   -1.291700
      8          1           0       -1.050534   -0.567482   -1.665400
      9          1           0        0.660366   -0.459982   -2.047000
     10          1           0        1.325166   -1.450982    0.000000
     11          1           0       -0.289534   -2.154282    0.000000
     12          1           0       -1.050534   -0.567482    1.665400
     13          1           0        0.660366   -0.459982    2.047000
 ---------------------------------------------------------------------

 SCF Done:  E(RB3LYP) =  -195.338810358     A.U. after    1 cycles

 The electronic state is 1-A'.
 Alpha  occ. eigenvalues --  -10.17993 -10.17992 -10.17818 -10.17564 -10.17477
 Alpha  occ. eigenvalues --   -0.83117  -0.69974  -0.69761  -0.56735  -0.52181
 Alpha  occ. eigenvalues --   -0.48908  -0.45924  -0.39154  -0.37160  -0.34221
 Alpha  occ. eigenvalues --   -0.34123  -0.33677  -0.33309  -0.23293
 Alpha virt. eigenvalues --    0.03213   0.09941   0.12549   0.14906   0.15320
 Alpha virt. eigenvalues --    0.17217   0.17532   0.19353   0.19373   0.21296
 Alpha virt. eigenvalues --    0.23842   0.28442   0.33268   0.40793   0.52546

 Mulliken charges:
               1
     1  C   -0.066323
     2  C   -0.066323
     3  C   -0.212344
     4  C   -0.202070
     5  C   -0.212344
     6  H    0.077847
     7  H    0.077847
     8  H    0.103735
     9  H    0.098682
    10  H    0.105544
    11  H    0.093333
    12  H    0.103735
    13  H    0.098682
 Sum of Mulliken charges =   0.00000

 Dipole moment (field-independent basis, Debye):
    X=             -0.0407    Y=             -0.1511    Z=              0.0000  Tot=              0.1565
 Quadrupole moment (field-independent basis, Debye-Ang):
   XX=            -32.1454   YY=            -30.8851   ZZ=            -30.3547
   XY=             -0.0335   XZ=              0.0000   YZ=              0.0000

  Exact polarizability:  36.678  -0.467  50.703   0.000   0.000  60.193
 Approx polarizability:  53.221   0.498  66.074   0.000   0.000  91.714

                      1                      2                      3
                     A'                     A"                     A'
 Frequencies --    138.9296               390.3813               614.7292
 Red. masses --      1.5861                 2.0440                 1.6017
 Frc consts  --      0.0180                 0.1835                 0.3566
 IR Inten    --      0.1978                 0.0737                10.0358

                      4                      5                      6
                     A'                     A"                     A'
 Frequencies --    717.7607               780.9762               823.6141
 Red. masses --      1.3940                 5.3742                 1.5857
 Frc consts  --      0.4231                 1.9313                 0.6338
 IR Inten    --     24.3916                 0.1985                 0.4654

                      7                      8                      9
                     A"                     A'                     A"
 Frequencies --    896.0904               906.2434               922.7726
 Red. masses --      1.5776                 3.0768                 1.7336
 Frc consts  --      0.7463                 1.4888                 0.8697
 IR Inten    --      2.5144                 0.3542                 5.7792

                     10                     11                     12
                     A"                     A'                     A"
 Frequencies --    973.6086               978.0519              1041.0396
 Red. masses --      1.2502                 2.5584                 1.9450
 Frc consts  --      0.6982                 1.4419                 1.2420
 IR Inten    --      0.1288                 0.5926                 1.6893

                     13                     14                     15
                     A'                     A'                     A"
 Frequencies --   1074.1873              1135.8093              1153.5228
 Red. masses --      1.7316                 1.0921                 1.1814
 Frc consts  --      1.1772                 0.8301                 0.9262
 IR Inten    --      4.9251                 0.0780                 1.2987

                     16                     17                     18
                     A"                     A'                     A"
 Frequencies --   1233.2631              1234.6085              1313.5126
 Red. masses --      1.3683                 1.2117                 1.3383
 Frc consts  --      1.2262                 1.0881                 1.3604
 IR Inten    --      0.0497                 1.2729                 1.6925

                     19                     20                     21
                     A"                     A'                     A"
 Frequencies --   1326.3141              1337.9164              1390.7269
 Red. masses --      1.2482                 1.6825                 1.6668
 Frc consts  --      1.2937                 1.7744                 1.8994
 IR Inten    --      0.3700                 0.0769                 0.6896

                     22                     23                     24
                     A'                     A"                     A'
 Frequencies --   1496.1637              1501.9433              1521.9799
 Red. masses --      1.0845                 1.0872                 1.1045
 Frc consts  --      1.4303                 1.4451                 1.5074
 IR Inten    --      0.7014                 0.2571                 0.6246

                     25                     26                     27
                     A'                     A'                     A"
 Frequencies --   1699.1807              3012.9859              3013.2833
 Red. masses --      5.9297                 1.0700                 1.0684
 Frc consts  --     10.0869                 5.7232                 5.7156
 IR Inten    --      1.7221                31.5761                60.1258

                     28                     29                     30
                     A'                     A"                     A'
 Frequencies --   3053.5055              3061.0935              3071.9022
 Red. masses --      1.0817                 1.0939                 1.0740
 Frc consts  --      5.9422                 6.0395                 5.9715
 IR Inten    --      7.5437                32.0451                58.3427

                     31                     32                     33
                     A'                     A"                     A'
 Frequencies --   3112.0540              3186.2859              3211.0032
 Red. masses --      1.1047                 1.0850                 1.1038
 Frc consts  --      6.3037                 6.4899                 6.7053
 IR Inten    --     43.1007                 8.0558                27.6288

 - Thermochemistry -
 -------------------
 Temperature   298.150 Kelvin.  Pressure   1.00000 Atm.
 Atom     1 has atomic number  6 and mass  12.00000

 Molecular mass:    68.06260 amu.
 Principal axes and moments of inertia in atomic units:
                           1         2         3
     Eigenvalues --   247.64990 250.51840 459.91629
           X            0.00000  -0.10376   0.99460
           Y            0.00000   0.99460   0.10376
           Z            1.00000   0.00000   0.00000
 This molecule is an asymmetric top.
 Rotational symmetry number  1.
 Rotational temperatures (Kelvin)      0.34974     0.34574     0.18833
 Rotational constants (GHZ):           7.28747     7.20403     3.92406
 Zero-point vibrational energy     306994.3 (Joules/Mol)
                                   73.37340 (Kcal/Mol)
 Warning -- explicit consideration of   3 degrees of freedom as
           vibrations may cause significant error
 Vibrational temperatures:    199.89   561.67   884.46  1032.70  1123.65
          (Kelvin)           1185.00  1289.27  1303.88  1327.66  1400.80
                             1407.20  1497.82  1545.51  1634.17  1659.66
                             1774.39  1776.32  1889.85  1908.27  1924.96
                             2000.94  2152.64  2160.96  2189.79  2444.74
                             4335.01  4335.44  4393.31  4404.23  4419.78
                             4477.55  4584.35  4619.91

 Zero-point correction=                           0.116928 (Hartree/Particle)
 Thermal correction to Energy=                    0.121578
 Thermal correction to Enthalpy=                  0.122522
 Thermal correction to Gibbs Free Energy=         0.089530
 Sum of electronic and zero-point Energies=           -195.221882
 Sum of electronic and thermal Energies=              -195.217232
 Sum of electronic and thermal Enthalpies=            -195.216288
 Sum of electronic and thermal Free Energies=         -195.249281

                     E (Thermal)             CV                S
                      KCal/Mol        Cal/Mol-Kelvin    Cal/Mol-Kelvin
 Total                   76.292             17.001             69.439
 Electronic               0.000              0.000              0.000
 Translational            0.889              2.981             38.571
 Rotational               0.889              2.981             24.860
 Vibrational             74.514             11.039              6.008
 Vibration     1          0.615              1.914              2.819
 Vibration     2          0.758              1.491              0.999
 Vibration     3          0.974              1.001              0.425

 Optimization completed.
    -- Stationary point found.
 Normal termination of Gaussian 09 at Fri Jul 23 03:36:50 2021.
