 Gaussian 09, Revision E.01,
 Gaussian 09:  ES64L-G09RevE.01 30-Nov-2015

 ----------------------------
 #P OPT Freq B3LYP/6-31G(d,p)
 ----------------------------

 --------
 Frag_552
 --------
 Symbolic Z-matrix:
 Charge =  0 Multiplicity = 1

 SCF Done:  E(RB3LYP) =  -287.803063061     A.U. after   13 cycles
 SCF Done:  E(RB3LYP) =  -287.803119468     A.U. after    9 cycles
 SCF Done:  E(RB3LYP) =  -287.803126809     A.U. after    8 cycles
 SCF Done:  E(RB3LYP) =  -287.803133137     A.U. after    9 cycles
 SCF Done:  E(RB3LYP) =  -287.803137493     A.U. after    9 cycles
 SCF Done:  E(RB3LYP) =  -287.803139913     A.U. after    9 cycles
 SCF Done:  E(RB3LYP) =  -287.803140393     A.U. after    8 cycles
 Optimization completed.
    -- Stationary point found.
 Normal termination of Gaussian 09 at Thu Sep  8 15:13:57 2022.

 ----------------------------------------------------------------------
 #P Geom=AllCheck Guess=TCheck SCRF=Check GenChk RB3LYP/6-31G(d,p) Freq
 ----------------------------------------------------------------------

 Structure from the checkpoint file:  "B3LYP6-31Gdp.Frag_552.chk"
 --------
 Frag_552
 --------
 Charge =  0 Multiplicity = 1

                         Standard orientation:
 ---------------------------------------------------------------------
 Center     Atomic      Atomic             Coordinates (Angstroms)
 Number     Number       Type             X           Y           Z
 ---------------------------------------------------------------------
      1          6           0        1.078925    1.416934   -0.384745
      2          6           0        0.752971    0.195820    0.043454
      3          6           0        1.763936   -0.902309    0.250786
      4          6           0       -0.685901   -0.185301    0.351798
      5          7           0       -1.095384   -1.272980   -0.521002
      6          8           0       -1.501030    0.984071    0.258701
      7          1           0        0.330097    2.188997   -0.512612
      8          1           0        2.110737    1.672293   -0.609454
      9          1           0        2.774695   -0.557698    0.017789
     10          1           0        1.529899   -1.771750   -0.371382
     11          1           0        1.756107   -1.252881    1.291475
     12          1           0       -0.728288   -0.583364    1.379408
     13          1           0       -1.153859   -0.927694   -1.476817
     14          1           0       -2.014732   -1.622870   -0.261812
     15          1           0       -2.388315    0.742393    0.553059
 ---------------------------------------------------------------------

 SCF Done:  E(RB3LYP) =  -287.803140393     A.U. after    1 cycles

 The electronic state is 1-A.
 Alpha  occ. eigenvalues --  -19.14215 -14.31971 -10.26100 -10.18478 -10.17075
 Alpha  occ. eigenvalues --  -10.16292  -1.02249  -0.87679  -0.78320  -0.67502
 Alpha  occ. eigenvalues --   -0.65170  -0.53237  -0.51612  -0.48441  -0.45058
 Alpha  occ. eigenvalues --   -0.42943  -0.40058  -0.39403  -0.37640  -0.34761
 Alpha  occ. eigenvalues --   -0.32702  -0.28844  -0.24597  -0.24099
 Alpha virt. eigenvalues --    0.02617   0.07063   0.11149   0.12380   0.14293
 Alpha virt. eigenvalues --    0.15959   0.16921   0.18293   0.19517   0.20475
 Alpha virt. eigenvalues --    0.24655   0.25888   0.28030   0.32553   0.36994

 Mulliken charges:
               1
     1  C   -0.269054
     2  C    0.133742
     3  C   -0.355193
     4  C    0.209028
     5  N   -0.576228
     6  O   -0.539245
     7  H    0.117081
     8  H    0.082994
     9  H    0.102996
    10  H    0.133665
    11  H    0.105302
    12  H    0.088030
    13  H    0.244065
    14  H    0.230439
    15  H    0.292377
 Sum of Mulliken charges =  -0.00000

 Dipole moment (field-independent basis, Debye):
    X=             -1.7135    Y=             -0.8858    Z=              0.2705  Tot=              1.9478
 Quadrupole moment (field-independent basis, Debye-Ang):
   XX=            -29.5807   YY=            -40.7836   ZZ=            -36.3125
   XY=              2.1797   XZ=             -0.9479   YZ=             -0.8889

  Exact polarizability:  58.307   4.150  60.813  -2.811  -6.042  40.423
 Approx polarizability:  72.449   7.396  91.192  -5.378 -11.698  58.441

                      1                      2                      3
                      A                      A                      A
 Frequencies --     57.1165               171.5927               236.4886
 Red. masses --      3.3361                 1.0729                 1.0974
 Frc consts  --      0.0064                 0.0186                 0.0362
 IR Inten    --      1.7732                 0.9298                92.0952

                      4                      5                      6
                      A                      A                      A
 Frequencies --    265.4160               296.7924               386.0385
 Red. masses --      2.5820                 1.9878                 2.7561
 Frc consts  --      0.1072                 0.1032                 0.2420
 IR Inten    --     21.7894                13.7189                 7.2507

                      7                      8                      9
                      A                      A                      A
 Frequencies --    395.4890               471.4808               518.0035
 Red. masses --      1.4819                 2.3664                 3.4168
 Frc consts  --      0.1366                 0.3099                 0.5402
 IR Inten    --     45.7034                21.6444                21.7472

                     10                     11                     12
                      A                      A                      A
 Frequencies --    599.4146               738.0801               822.4353
 Red. masses --      2.3039                 1.3041                 1.9854
 Frc consts  --      0.4877                 0.4186                 0.7912
 IR Inten    --     24.7972                 1.1176                15.3394

                     13                     14                     15
                      A                      A                      A
 Frequencies --    836.2554               944.3394               955.6966
 Red. masses --      1.7912                 1.3447                 1.9719
 Frc consts  --      0.7380                 0.7065                 1.0612
 IR Inten    --    115.8589                34.3872                 7.6676

                     16                     17                     18
                      A                      A                      A
 Frequencies --   1009.3169              1066.4458              1073.8908
 Red. masses --      1.6342                 1.6227                 2.4515
 Frc consts  --      0.9809                 1.0874                 1.6657
 IR Inten    --     64.5310                49.7284                65.2691

                     19                     20                     21
                      A                      A                      A
 Frequencies --   1087.2383              1207.5185              1227.0248
 Red. masses --      1.8724                 1.6129                 1.1088
 Frc consts  --      1.3041                 1.3856                 0.9836
 IR Inten    --     32.4764                16.1897                42.8775

                     22                     23                     24
                      A                      A                      A
 Frequencies --   1284.8329              1396.0704              1419.7483
 Red. masses --      2.3499                 1.1520                 1.2329
 Frc consts  --      2.2855                 1.3229                 1.4642
 IR Inten    --      5.0886                 7.6378                 1.9147

                     25                     26                     27
                      A                      A                      A
 Frequencies --   1443.2803              1469.1940              1487.9102
 Red. masses --      1.3308                 1.4884                 1.0519
 Frc consts  --      1.6334                 1.8929                 1.3721
 IR Inten    --      2.3943                22.2411                 6.9140

                     28                     29                     30
                      A                      A                      A
 Frequencies --   1510.9567              1664.7102              1739.7481
 Red. masses --      1.0644                 1.1008                 5.4946
 Frc consts  --      1.4317                 1.7974                 9.7985
 IR Inten    --     16.0573                24.5239                 5.2454

                     31                     32                     33
                      A                      A                      A
 Frequencies --   2981.6405              3031.9014              3094.7917
 Red. masses --      1.0830                 1.0433                 1.0912
 Frc consts  --      5.6725                 5.6508                 6.1577
 IR Inten    --     57.3432                32.1922                19.4703

                     34                     35                     36
                      A                      A                      A
 Frequencies --   3133.3680              3163.0330              3262.3239
 Red. masses --      1.1033                 1.0626                 1.1134
 Frc consts  --      6.3820                 6.2636                 6.9817
 IR Inten    --     18.3029                12.9252                 5.9897

                     37                     38                     39
                      A                      A                      A
 Frequencies --   3486.0919              3579.5063              3821.6073
 Red. masses --      1.0483                 1.0939                 1.0666
 Frc consts  --      7.5059                 8.2582                 9.1776
 IR Inten    --      2.5489                 0.8300                11.3238

 - Thermochemistry -
 -------------------
 Temperature   298.150 Kelvin.  Pressure   1.00000 Atm.
 Atom     1 has atomic number  6 and mass  12.00000

 Molecular mass:    87.06841 amu.
 Principal axes and moments of inertia in atomic units:
                           1         2         3
     Eigenvalues --   377.98252 578.21052 843.17762
           X            0.99992   0.01284   0.00137
           Y           -0.01280   0.99966  -0.02288
           Z           -0.00166   0.02286   0.99974
 This molecule is an asymmetric top.
 Rotational symmetry number  1.
 Rotational temperatures (Kelvin)      0.22915     0.14980     0.10272
 Rotational constants (GHZ):           4.77467     3.12125     2.14040
 Zero-point vibrational energy     342950.2 (Joules/Mol)
                                   81.96706 (Kcal/Mol)
 Warning -- explicit consideration of  10 degrees of freedom as
           vibrations may cause significant error
 Vibrational temperatures:     82.18   246.88   340.25   381.87   427.02
          (Kelvin)            555.42   569.02   678.35   745.29   862.42
                             1061.93  1183.30  1203.18  1358.69  1375.03
                             1452.18  1534.38  1545.09  1564.29  1737.35
                             1765.41  1848.59  2008.63  2042.70  2076.56
                             2113.84  2140.77  2173.93  2395.14  2503.11
                             4289.91  4362.22  4452.71  4508.21  4550.89
                             4693.75  5015.70  5150.10  5498.43

 Zero-point correction=                           0.130623 (Hartree/Particle)
 Thermal correction to Energy=                    0.138061
 Thermal correction to Enthalpy=                  0.139005
 Thermal correction to Gibbs Free Energy=         0.099552
 Sum of electronic and zero-point Energies=           -287.672518
 Sum of electronic and thermal Energies=              -287.665079
 Sum of electronic and thermal Enthalpies=            -287.664135
 Sum of electronic and thermal Free Energies=         -287.703588

                     E (Thermal)             CV                S
                      KCal/Mol        Cal/Mol-Kelvin    Cal/Mol-Kelvin
 Total                   86.635             26.807             83.036
 Electronic               0.000              0.000              0.000
 Translational            0.889              2.981             39.305
 Rotational               0.889              2.981             26.713
 Vibrational             84.857             20.845             17.018
 Vibration     1          0.596              1.975              4.554
 Vibration     2          0.626              1.877              2.418
 Vibration     3          0.655              1.785              1.829
 Vibration     4          0.671              1.736              1.626
 Vibration     5          0.690              1.680              1.435
 Vibration     6          0.755              1.500              1.015
 Vibration     7          0.762              1.480              0.979
 Vibration     8          0.828              1.313              0.733
 Vibration     9          0.873              1.210              0.615
 Vibration    10          0.957              1.033              0.451

 Optimization completed.
    -- Stationary point found.
 Normal termination of Gaussian 09 at Thu Sep  8 15:14:09 2022.
