 Gaussian 09, Revision E.01,
 Gaussian 09:  ES64L-G09RevE.01 30-Nov-2015

 -------------------------
 #P OPT Freq B3LYP/6-31G**
 -------------------------

 --------
 Frag_122
 --------
 Symbolic Z-matrix:
 Charge =  0 Multiplicity = 1

 SCF Done:  E(RB3LYP) =  -209.213371903     A.U. after   14 cycles
 SCF Done:  E(RB3LYP) =  -209.222874007     A.U. after   12 cycles
 SCF Done:  E(RB3LYP) =  -209.223094897     A.U. after   11 cycles
 SCF Done:  E(RB3LYP) =  -209.223057243     A.U. after   11 cycles
 SCF Done:  E(RB3LYP) =  -209.223113695     A.U. after    9 cycles
 SCF Done:  E(RB3LYP) =  -209.223118013     A.U. after    8 cycles
 SCF Done:  E(RB3LYP) =  -209.223120494     A.U. after    8 cycles
 SCF Done:  E(RB3LYP) =  -209.223131187     A.U. after   10 cycles
 SCF Done:  E(RB3LYP) =  -209.223157972     A.U. after   11 cycles
 SCF Done:  E(RB3LYP) =  -209.223157698     A.U. after   10 cycles
 SCF Done:  E(RB3LYP) =  -209.223209897     A.U. after   11 cycles
 SCF Done:  E(RB3LYP) =  -209.223214432     A.U. after    9 cycles
 SCF Done:  E(RB3LYP) =  -209.223220160     A.U. after   10 cycles
 SCF Done:  E(RB3LYP) =  -209.223223351     A.U. after   10 cycles
 SCF Done:  E(RB3LYP) =  -209.223223608     A.U. after    8 cycles
 SCF Done:  E(RB3LYP) =  -209.223224022     A.U. after    9 cycles
 SCF Done:  E(RB3LYP) =  -209.223224081     A.U. after    7 cycles
 SCF Done:  E(RB3LYP) =  -209.223224220     A.U. after    8 cycles
 SCF Done:  E(RB3LYP) =  -209.223224206     A.U. after    6 cycles
 Optimization completed.
    -- Stationary point found.
 Normal termination of Gaussian 09 at Sat Aug 21 01:36:34 2021.

 ----------------------------------------------------------------------
 #P Geom=AllCheck Guess=TCheck SCRF=Check GenChk RB3LYP/6-31G(d,p) Freq
 ----------------------------------------------------------------------

 Structure from the checkpoint file:  "/public/home/users/caep010/.cache/gau_scr/Gau-154948.chk"
 --------
 Frag_122
 --------
 Charge =  0 Multiplicity = 1

                         Standard orientation:
 ---------------------------------------------------------------------
 Center     Atomic      Atomic             Coordinates (Angstroms)
 Number     Number       Type             X           Y           Z
 ---------------------------------------------------------------------
      1          6           0        1.365429   -0.338612   -0.000147
      2          6           0       -0.077694    0.146608   -0.003549
      3          7           0       -1.029350   -0.835838   -0.003292
      4          8           0       -0.365970    1.333578    0.000724
      5          1           0        1.835892   -0.031655    0.938304
      6          1           0        1.901338    0.159280   -0.811555
      7          1           0        1.471199   -1.421174   -0.111108
      8          1           0       -0.803458   -1.816072    0.007831
      9          1           0       -1.998173   -0.556115    0.015956
 ---------------------------------------------------------------------

 SCF Done:  E(RB3LYP) =  -209.223224206     A.U. after    1 cycles

 The electronic state is 1-A.
 Alpha  occ. eigenvalues --  -19.10256 -14.35582 -10.28670 -10.19091  -1.02322
 Alpha  occ. eigenvalues --   -0.89941  -0.73547  -0.58676  -0.53720  -0.46468
 Alpha  occ. eigenvalues --   -0.44098  -0.39908  -0.39268  -0.36137  -0.26327
 Alpha  occ. eigenvalues --   -0.24319
 Alpha virt. eigenvalues --    0.03535   0.07027   0.12204   0.13359   0.16976
 Alpha virt. eigenvalues --    0.18006   0.22662   0.30788   0.39172   0.52534
 Alpha virt. eigenvalues --    0.53199   0.57730   0.62407   0.64418   0.66506

 Mulliken charges:
               1
     1  C   -0.386729
     2  C    0.553747
     3  N   -0.602470
     4  O   -0.496220
     5  H    0.146482
     6  H    0.147522
     7  H    0.095511
     8  H    0.265746
     9  H    0.276411
 Sum of Mulliken charges =  -0.00000

 Dipole moment (field-independent basis, Debye):
    X=              0.0679    Y=             -3.7127    Z=              0.0667  Tot=              3.7139
 Quadrupole moment (field-independent basis, Debye-Ang):
   XX=            -20.0420   YY=            -25.4642   ZZ=            -24.4692
   XY=              2.3632   XZ=             -0.0539   YZ=             -0.0799

  Exact polarizability:  34.431   1.418  36.247  -0.002   0.011  19.899
 Approx polarizability:  42.196   2.039  59.177   0.046   0.061  27.294

                      1                      2                      3
                      A                      A                      A
 Frequencies --     33.0715               113.5279               429.5590
 Red. masses --      1.0546                 1.2514                 2.3984
 Frc consts  --      0.0007                 0.0095                 0.2607
 IR Inten    --      8.9154               220.1847                 4.5705

                      4                      5                      6
                      A                      A                      A
 Frequencies --    521.5844               540.7530               674.5335
 Red. masses --      1.3849                 3.0846                 1.6268
 Frc consts  --      0.2220                 0.5314                 0.4361
 IR Inten    --      6.9589                13.7281                15.4573

                      7                      8                      9
                      A                      A                      A
 Frequencies --    842.6558               987.7837              1058.6818
 Red. masses --      3.0401                 1.5030                 1.7229
 Frc consts  --      1.2718                 0.8640                 1.1378
 IR Inten    --      2.0607                 7.1189                 7.2924

                     10                     11                     12
                      A                      A                      A
 Frequencies --   1123.3998              1351.7536              1412.5213
 Red. masses --      1.7320                 2.4584                 1.3627
 Frc consts  --      1.2878                 2.6466                 1.6020
 IR Inten    --      0.5861               116.7166                52.9080

                     13                     14                     15
                      A                      A                      A
 Frequencies --   1486.8015              1504.9448              1626.7887
 Red. masses --      1.0471                 1.1165                 1.2660
 Frc consts  --      1.3637                 1.4898                 1.9740
 IR Inten    --      5.3124                 8.6706               107.2747

                     16                     17                     18
                      A                      A                      A
 Frequencies --   1810.7758              3060.7607              3137.2885
 Red. masses --      9.2340                 1.0359                 1.1028
 Frc consts  --     17.8390                 5.7178                 6.3951
 IR Inten    --    311.9446                 7.9390                15.6117

                     19                     20                     21
                      A                      A                      A
 Frequencies --   3147.9401              3608.8909              3751.7294
 Red. masses --      1.1022                 1.0452                 1.1051
 Frc consts  --      6.4350                 8.0203                 9.1646
 IR Inten    --     11.0062                30.8366                31.8353

 - Thermochemistry -
 -------------------
 Temperature   298.150 Kelvin.  Pressure   1.00000 Atm.
 Atom     1 has atomic number  6 and mass  12.00000

 Molecular mass:    59.03711 amu.
 Principal axes and moments of inertia in atomic units:
                           1         2         3
     Eigenvalues --   167.34372 195.79669 351.96942
           X            0.99745   0.07130  -0.00040
           Y           -0.07130   0.99745  -0.00061
           Z            0.00036   0.00063   1.00000
 This molecule is an asymmetric top.
 Rotational symmetry number  1.
 Rotational temperatures (Kelvin)      0.51758     0.44237     0.24608
 Rotational constants (GHZ):          10.78464     9.21742     5.12755
 Zero-point vibrational energy     192752.8 (Joules/Mol)
                                   46.06902 (Kcal/Mol)
 Warning -- explicit consideration of   5 degrees of freedom as
           vibrations may cause significant error
 Vibrational temperatures:     47.58   163.34   618.04   750.44   778.02
          (Kelvin)            970.50  1212.39  1421.20  1523.21  1616.32
                             1944.87  2032.30  2139.17  2165.28  2340.58
                             2605.30  4403.75  4513.85  4529.18  5192.38
                             5397.90

 Zero-point correction=                           0.073416 (Hartree/Particle)
 Thermal correction to Energy=                    0.078825
 Thermal correction to Enthalpy=                  0.079770
 Thermal correction to Gibbs Free Energy=         0.044707
 Sum of electronic and zero-point Energies=           -209.149809
 Sum of electronic and thermal Energies=              -209.144399
 Sum of electronic and thermal Enthalpies=            -209.143455
 Sum of electronic and thermal Free Energies=         -209.178517

                     E (Thermal)             CV                S
                      KCal/Mol        Cal/Mol-Kelvin    Cal/Mol-Kelvin
 Total                   49.464             16.532             73.795
 Electronic               0.000              0.000              0.000
 Translational            0.889              2.981             38.147
 Rotational               0.889              2.981             23.960
 Vibrational             47.686             10.570             11.689
 Vibration     1          0.594              1.983              5.636
 Vibration     2          0.607              1.938              3.208
 Vibration     3          0.791              1.406              0.860
 Vibration     4          0.877              1.202              0.606
 Vibration     5          0.896              1.160              0.564

 Optimization completed.
    -- Stationary point found.
 Normal termination of Gaussian 09 at Sat Aug 21 01:36:41 2021.
