 Gaussian 09, Revision E.01,
 Gaussian 09:  ES64L-G09RevE.01 30-Nov-2015

 -------------------------
 #P OPT Freq B3LYP/6-31G**
 -------------------------

 --------
 Frag_139
 --------
 Symbolic Z-matrix:
 Charge =  0 Multiplicity = 1

 SCF Done:  E(RB3LYP) =  -210.400931852     A.U. after   13 cycles
 SCF Done:  E(RB3LYP) =  -210.405326416     A.U. after   11 cycles
 SCF Done:  E(RB3LYP) =  -210.405874578     A.U. after   10 cycles
 SCF Done:  E(RB3LYP) =  -210.406340592     A.U. after   11 cycles
 SCF Done:  E(RB3LYP) =  -210.406431194     A.U. after   10 cycles
 SCF Done:  E(RB3LYP) =  -210.406454910     A.U. after    9 cycles
 SCF Done:  E(RB3LYP) =  -210.406457071     A.U. after    7 cycles
 SCF Done:  E(RB3LYP) =  -210.406457071     A.U. after    7 cycles
 Optimization completed.
    -- Stationary point found.
 Normal termination of Gaussian 09 at Sat Aug 21 01:39:43 2021.

 ----------------------------------------------------------------------
 #P Geom=AllCheck Guess=TCheck SCRF=Check GenChk RB3LYP/6-31G(d,p) Freq
 ----------------------------------------------------------------------

 Structure from the checkpoint file:  "/public/home/users/caep010/.cache/gau_scr/Gau-139165.chk"
 --------
 Frag_139
 --------
 Charge =  0 Multiplicity = 1

                         Standard orientation:
 ---------------------------------------------------------------------
 Center     Atomic      Atomic             Coordinates (Angstroms)
 Number     Number       Type             X           Y           Z
 ---------------------------------------------------------------------
      1          6           0       -1.384416    0.324306   -0.096888
      2          6           0        0.029450   -0.024252    0.360509
      3          7           0        1.083063    0.879351   -0.093177
      4          8           0        0.304839   -1.322290   -0.133364
      5          1           0       -2.103529   -0.416283    0.265296
      6          1           0       -1.428319    0.334409   -1.191369
      7          1           0       -1.680032    1.309026    0.278514
      8          1           0        0.067964   -0.008123    1.463471
      9          1           0        1.043717    1.761248    0.412125
     10          1           0        0.953093    1.089594   -1.081788
     11          1           0        1.256752   -1.447326   -0.008828
 ---------------------------------------------------------------------

 SCF Done:  E(RB3LYP) =  -210.406457071     A.U. after    1 cycles

 The electronic state is 1-A.
 Alpha  occ. eigenvalues --  -19.13329 -14.31806 -10.25752 -10.17320  -1.01787
 Alpha  occ. eigenvalues --   -0.87119  -0.72657  -0.59936  -0.52149  -0.48782
 Alpha  occ. eigenvalues --   -0.43067  -0.41794  -0.38123  -0.37034  -0.33451
 Alpha  occ. eigenvalues --   -0.27171  -0.24487
 Alpha virt. eigenvalues --    0.07744   0.11348   0.13350   0.14327   0.16408
 Alpha virt. eigenvalues --    0.17818   0.18723   0.22328   0.25004   0.28348
 Alpha virt. eigenvalues --    0.53711   0.55562   0.57009   0.58159   0.64652

 Mulliken charges:
               1
     1  C   -0.311841
     2  C    0.270912
     3  N   -0.601380
     4  O   -0.532539
     5  H    0.118594
     6  H    0.106942
     7  H    0.092581
     8  H    0.076425
     9  H    0.236474
    10  H    0.238497
    11  H    0.305336
 Sum of Mulliken charges =  -0.00000

 Dipole moment (field-independent basis, Debye):
    X=              0.0326    Y=              1.7652    Z=              0.2752  Tot=              1.7868
 Quadrupole moment (field-independent basis, Debye-Ang):
   XX=            -26.1142   YY=            -24.7112   ZZ=            -24.3295
   XY=             -1.4715   XZ=             -0.2808   YZ=             -0.7402

  Exact polarizability:  34.716   0.382  35.126  -0.615   0.620  31.492
 Approx polarizability:  43.214   1.265  47.134  -1.041   1.974  43.526

                      1                      2                      3
                      A                      A                      A
 Frequencies --    254.7394               265.0102               376.1485
 Red. masses --      1.1236                 1.0515                 2.1900
 Frc consts  --      0.0430                 0.0435                 0.1826
 IR Inten    --     10.6086                26.2945                 9.3281

                      4                      5                      6
                      A                      A                      A
 Frequencies --    398.7745               474.8011               558.2216
 Red. masses --      1.4291                 1.8830                 2.3043
 Frc consts  --      0.1339                 0.2501                 0.4231
 IR Inten    --     82.8003                22.8304                46.5717

                      7                      8                      9
                      A                      A                      A
 Frequencies --    847.5116               877.1350               964.4051
 Red. masses --      2.5079                 1.4342                 1.7731
 Frc consts  --      1.0613                 0.6501                 0.9716
 IR Inten    --     61.1285               120.0226                34.9066

                     10                     11                     12
                      A                      A                      A
 Frequencies --   1026.2549              1053.3025              1183.0529
 Red. masses --      1.2810                 2.5190                 2.1682
 Frc consts  --      0.7949                 1.6466                 1.7880
 IR Inten    --      3.1348                73.7917                60.5985

                     13                     14                     15
                      A                      A                      A
 Frequencies --   1270.0842              1299.8597              1403.2862
 Red. masses --      1.6349                 1.1935                 1.2491
 Frc consts  --      1.5538                 1.1881                 1.4493
 IR Inten    --      6.5113                85.2788                 1.6820

                     16                     17                     18
                      A                      A                      A
 Frequencies --   1427.4104              1450.1441              1497.0306
 Red. masses --      1.2596                 1.4688                 1.0574
 Frc consts  --      1.5121                 1.8199                 1.3962
 IR Inten    --     16.9202                46.8199                 2.9583

                     19                     20                     21
                      A                      A                      A
 Frequencies --   1513.1326              1654.2938              2968.5485
 Red. masses --      1.0574                 1.1154                 1.0844
 Frc consts  --      1.4265                 1.7985                 5.6305
 IR Inten    --      2.1826                34.0006                76.2226

                     22                     23                     24
                      A                      A                      A
 Frequencies --   3045.1248              3121.8492              3128.4782
 Red. masses --      1.0352                 1.1030                 1.1028
 Frc consts  --      5.6556                 6.3335                 6.3591
 IR Inten    --     14.1114                33.2285                26.0944

                     25                     26                     27
                      A                      A                      A
 Frequencies --   3479.1898              3576.3882              3792.4771
 Red. masses --      1.0497                 1.0923                 1.0651
 Frc consts  --      7.4864                 8.2318                 9.0261
 IR Inten    --      0.3227                 0.1402                17.9377

 - Thermochemistry -
 -------------------
 Temperature   298.150 Kelvin.  Pressure   1.00000 Atm.
 Atom     1 has atomic number  6 and mass  12.00000

 Molecular mass:    61.05276 amu.
 Principal axes and moments of inertia in atomic units:
                           1         2         3
     Eigenvalues --   198.00282 218.24237 365.12279
           X            0.98923  -0.14634   0.00363
           Y            0.14638   0.98913  -0.01425
           Z           -0.00151   0.01462   0.99989
 This molecule is an asymmetric top.
 Rotational symmetry number  1.
 Rotational temperatures (Kelvin)      0.43744     0.39687     0.23722
 Rotational constants (GHZ):           9.11472     8.26944     4.94283
 Zero-point vibrational energy     256638.8 (Joules/Mol)
                                   61.33814 (Kcal/Mol)
 Warning -- explicit consideration of   6 degrees of freedom as
           vibrations may cause significant error
 Vibrational temperatures:    366.51   381.29   541.19   573.75   683.13
          (Kelvin)            803.16  1219.38  1262.00  1387.56  1476.55
                             1515.47  1702.15  1827.37  1870.21  2019.01
                             2053.72  2086.43  2153.89  2177.06  2380.16
                             4271.07  4381.25  4491.64  4501.18  5005.77
                             5145.62  5456.52

 Zero-point correction=                           0.097749 (Hartree/Particle)
 Thermal correction to Energy=                    0.102903
 Thermal correction to Enthalpy=                  0.103847
 Thermal correction to Gibbs Free Energy=         0.070640
 Sum of electronic and zero-point Energies=           -210.308709
 Sum of electronic and thermal Energies=              -210.303555
 Sum of electronic and thermal Enthalpies=            -210.302610
 Sum of electronic and thermal Free Energies=         -210.335817

                     E (Thermal)             CV                S
                      KCal/Mol        Cal/Mol-Kelvin    Cal/Mol-Kelvin
 Total                   64.572             18.081             69.890
 Electronic               0.000              0.000              0.000
 Translational            0.889              2.981             38.247
 Rotational               0.889              2.981             24.271
 Vibrational             62.795             12.119              7.372
 Vibration     1          0.665              1.755              1.698
 Vibration     2          0.671              1.737              1.629
 Vibration     3          0.747              1.521              1.055
 Vibration     4          0.765              1.473              0.967
 Vibration     5          0.832              1.306              0.724
 Vibration     6          0.914              1.122              0.527

 Optimization completed.
    -- Stationary point found.
 Normal termination of Gaussian 09 at Sat Aug 21 01:39:51 2021.
