 Gaussian 09, Revision D.01,
 Gaussian 09:  ES64L-G09RevD.01 24-Apr-2013

 -------------------------
 #P OPT Freq B3LYP/6-31G**
 -------------------------

 -------
 Frag_46
 -------
 Symbolic Z-matrix:
 Charge =  0 Multiplicity = 1

 SCF Done:  E(RB3LYP) =  -190.491576169     A.U. after   13 cycles
 SCF Done:  E(RB3LYP) =  -190.491576495     A.U. after    7 cycles
 Optimization completed.
    -- Stationary point found.

 1\1\GINC-FN17\FOpt\RB3LYP\6-31G(d,p)\C2H8N2\LIUJ201281\22-Jul-2021\0\\
 #P OPT Freq B3LYP/6-31G**\\Frag_46\\0,1\C,1.1975098557,-0.6703402275,0
 .0715271966\N,0.,0.0074141811,-0.4149277319\C,-1.1975098557,-0.6703402
 275,0.0715271966\N,0.,1.3500646978,0.200750937\H,1.255149873,-0.701379
 6924,1.1731641706\H,2.0891647904,-0.1573764919,-0.306164768\H,1.208572
 8244,-1.6913636539,-0.3200160597\H,-1.255149873,-0.7013796924,1.173164
 1706\H,-1.2085728244,-1.6913636539,-0.3200160597\H,-2.0891647904,-0.15
 73764919,-0.306164768\H,0.8002232137,1.8199206262,-0.2303221421\H,-0.8

 Normal termination of Gaussian 09 at Thu Jul 22 18:54:48 2021.

 ----------------------------------------------------------------------
 #P Geom=AllCheck Guess=TCheck SCRF=Check GenChk RB3LYP/6-31G(d,p) Freq
 ----------------------------------------------------------------------

 Structure from the checkpoint file:  "/vol2/users/liuj201281/HOFBenchmark/IsodesmicSplit/Sample60/Ring26/Running/Gau-506431.chk"
 -------
 Frag_46
 -------
 Charge =  0 Multiplicity = 1

                         Standard orientation:
 ---------------------------------------------------------------------
 Center     Atomic      Atomic             Coordinates (Angstroms)
 Number     Number       Type             X           Y           Z
 ---------------------------------------------------------------------
      1          6           0        0.332547   -0.586372    1.197510
      2          7           0        0.332547    0.247887    0.000000
      3          6           0        0.332547   -0.586372   -1.197510
      4          7           0       -0.950528    0.979659    0.000000
      5          1           0       -0.544326   -1.253951    1.255150
      6          1           0        0.340277    0.050592    2.089165
      7          1           0        1.245994   -1.187546    1.208573
      8          1           0       -0.544326   -1.253951   -1.255150
      9          1           0        1.245994   -1.187546   -1.208573
     10          1           0        0.340277    0.050592   -2.089165
     11          1           0       -0.874295    1.612728    0.800223
     12          1           0       -0.874295    1.612728   -0.800223
 ---------------------------------------------------------------------

 SCF Done:  E(RB3LYP) =  -190.491576495     A.U. after    1 cycles

 The electronic state is 1-A'.
 Alpha  occ. eigenvalues --  -14.34479 -14.33648 -10.19753 -10.19752  -0.95667
 Alpha  occ. eigenvalues --   -0.79381  -0.70169  -0.60048  -0.48908  -0.47524
 Alpha  occ. eigenvalues --   -0.44648  -0.40282  -0.38000  -0.36821  -0.35918
 Alpha  occ. eigenvalues --   -0.30843  -0.18904
 Alpha virt. eigenvalues --    0.07596   0.12326   0.13469   0.14272   0.16143
 Alpha virt. eigenvalues --    0.16479   0.17855   0.19719   0.21943   0.22317
 Alpha virt. eigenvalues --    0.25380   0.52224   0.53198   0.56187   0.57059

 Mulliken charges:
               1
     1  C   -0.142935
     2  N   -0.337168
     3  C   -0.142935
     4  N   -0.461580
     5  H    0.093945
     6  H    0.098390
     7  H    0.107084
     8  H    0.093945
     9  H    0.107084
    10  H    0.098390
    11  H    0.242890
    12  H    0.242890
 Sum of Mulliken charges =   0.00000

 Dipole moment (field-independent basis, Debye):
    X=              0.4230    Y=              0.3747    Z=              0.0000  Tot=              0.5651
 Quadrupole moment (field-independent basis, Debye-Ang):
   XX=            -29.7012   YY=            -23.4974   ZZ=            -23.9614
   XY=             -2.2553   XZ=              0.0000   YZ=              0.0000

  Exact polarizability:  33.428  -4.905  39.448   0.000   0.000  41.778
 Approx polarizability:  46.540  -5.027  52.256   0.000   0.000  52.727

                      1                      2                      3
                     A"                     A"                     A'
 Frequencies --    188.8767               275.2176               284.9571
 Red. masses --      1.0579                 1.0383                 1.0949
 Frc consts  --      0.0222                 0.0463                 0.0524
 IR Inten    --     40.4514                10.9484                 0.0490

                      4                      5                      6
                     A'                     A"                     A'
 Frequencies --    413.1609               438.2233               440.6055
 Red. masses --      2.1157                 2.6476                 2.6092
 Frc consts  --      0.2128                 0.2996                 0.2984
 IR Inten    --      5.2332                 1.0922                16.2342

                      7                      8                      9
                     A'                     A'                     A"
 Frequencies --    818.0057               991.8772              1046.2805
 Red. masses --      4.6994                 2.9911                 1.7423
 Frc consts  --      1.8527                 1.7338                 1.1237
 IR Inten    --     12.4809                17.5080                14.7574

                     10                     11                     12
                     A"                     A'                     A"
 Frequencies --   1113.5590              1138.8026              1139.2070
 Red. masses --      1.2438                 1.2363                 1.6183
 Frc consts  --      0.9087                 0.9446                 1.2374
 IR Inten    --      0.7388                58.5998                10.4423

                     13                     14                     15
                     A'                     A'                     A"
 Frequencies --   1213.4518              1264.2460              1406.7194
 Red. masses --      1.5837                 1.9265                 1.5886
 Frc consts  --      1.3740                 1.8142                 1.8521
 IR Inten    --      5.7921                 0.6715                 4.8260

                     16                     17                     18
                     A"                     A'                     A"
 Frequencies --   1443.3713              1472.8336              1488.7378
 Red. masses --      1.1808                 1.1895                 1.0502
 Frc consts  --      1.4493                 1.5203                 1.3714
 IR Inten    --      2.2482                 0.5827                 9.0584

                     19                     20                     21
                     A'                     A"                     A'
 Frequencies --   1500.7341              1511.2738              1527.0349
 Red. masses --      1.0421                 1.0558                 1.0560
 Frc consts  --      1.3829                 1.4208                 1.4508
 IR Inten    --      5.9003                 0.1062                 9.4229

                     22                     23                     24
                     A'                     A"                     A'
 Frequencies --   1664.0377              2967.8836              2976.6199
 Red. masses --      1.0684                 1.0515                 1.0526
 Frc consts  --      1.7430                 5.4569                 5.4951
 IR Inten    --     32.0580                46.5768                89.3315

                     25                     26                     27
                     A"                     A'                     A"
 Frequencies --   3070.9799              3073.4563              3119.0507
 Red. masses --      1.0840                 1.0839                 1.1014
 Frc consts  --      6.0233                 6.0323                 6.3129
 IR Inten    --     42.2016                38.4721                 7.3791

                     28                     29                     30
                     A'                     A'                     A"
 Frequencies --   3124.5276              3413.2391              3496.6651
 Red. masses --      1.0999                 1.0506                 1.0913
 Frc consts  --      6.3265                 7.2117                 7.8616
 IR Inten    --     48.3265                 4.8473                 2.0810

 - Thermochemistry -
 -------------------
 Temperature   298.150 Kelvin.  Pressure   1.00000 Atm.
 Atom     1 has atomic number  6 and mass  12.00000

 Molecular mass:    60.06875 amu.
 Principal axes and moments of inertia in atomic units:
                           1         2         3
     Eigenvalues --   200.42482 203.38319 358.60903
           X            0.00000  -0.60717   0.79457
           Y            0.00000   0.79457   0.60717
           Z            1.00000   0.00000   0.00000
 This molecule is an asymmetric top.
 Rotational symmetry number  1.
 Rotational temperatures (Kelvin)      0.43215     0.42587     0.24153
 Rotational constants (GHZ):           9.00458     8.87360     5.03262
 Zero-point vibrational energy     287245.1 (Joules/Mol)
                                   68.65323 (Kcal/Mol)
 Warning -- explicit consideration of   6 degrees of freedom as
           vibrations may cause significant error
 Vibrational temperatures:    271.75   395.98   409.99   594.45   630.50
          (Kelvin)            633.93  1176.93  1427.09  1505.36  1602.16
                             1638.48  1639.06  1745.88  1818.97  2023.95
                             2076.69  2119.08  2141.96  2159.22  2174.38
                             2197.06  2394.18  4270.12  4282.69  4418.45
                             4422.01  4487.61  4495.49  4910.88  5030.91

 Zero-point correction=                           0.109406 (Hartree/Particle)
 Thermal correction to Energy=                    0.114829
 Thermal correction to Enthalpy=                  0.115773
 Thermal correction to Gibbs Free Energy=         0.082051
 Sum of electronic and zero-point Energies=           -190.382171
 Sum of electronic and thermal Energies=              -190.376748
 Sum of electronic and thermal Enthalpies=            -190.375804
 Sum of electronic and thermal Free Energies=         -190.409525

                     E (Thermal)             CV                S
                      KCal/Mol        Cal/Mol-Kelvin    Cal/Mol-Kelvin
 Total                   72.056             18.525             70.973
 Electronic               0.000              0.000              0.000
 Translational            0.889              2.981             38.199
 Rotational               0.889              2.981             24.195
 Vibrational             70.279             12.563              8.579
 Vibration     1          0.633              1.855              2.239
 Vibration     2          0.677              1.719              1.563
 Vibration     3          0.683              1.702              1.504
 Vibration     4          0.777              1.442              0.916
 Vibration     5          0.798              1.387              0.832
 Vibration     6          0.801              1.382              0.825

 Optimization completed.
    -- Stationary point found.

 1\1\GINC-FN17\Freq\RB3LYP\6-31G(d,p)\C2H8N2\LIUJ201281\22-Jul-2021\0\\
 #P Geom=AllCheck Guess=TCheck SCRF=Check GenChk RB3LYP/6-31G(d,p) Freq
 \\Frag_46\\0,1\C,1.1975098557,-0.6703402275,0.0715271966\N,0.,0.007414
 1811,-0.4149277319\C,-1.1975098557,-0.6703402275,0.0715271966\N,0.,1.3
 500646978,0.200750937\H,1.255149873,-0.7013796924,1.1731641706\H,2.089
 1647904,-0.1573764919,-0.306164768\H,1.2085728244,-1.6913636539,-0.320
 0160597\H,-1.255149873,-0.7013796924,1.1731641706\H,-1.2085728244,-1.6
 913636539,-0.3200160597\H,-2.0891647904,-0.1573764919,-0.306164768\H,0

 Normal termination of Gaussian 09 at Thu Jul 22 18:55:05 2021.
