 Gaussian 09, Revision E.01,
 Gaussian 09:  ES64L-G09RevE.01 30-Nov-2015

 ----------------------------
 #P OPT Freq B3LYP/6-31G(d,p)
 ----------------------------

 ---------
 Frag_1110
 ---------
 Symbolic Z-matrix:
 Charge =  0 Multiplicity = 1

 SCF Done:  E(RB3LYP) =  -264.452784252     A.U. after   14 cycles
 SCF Done:  E(RB3LYP) =  -264.452847006     A.U. after   11 cycles
 SCF Done:  E(RB3LYP) =  -264.452850156     A.U. after   10 cycles
 SCF Done:  E(RB3LYP) =  -264.452858731     A.U. after    9 cycles
 SCF Done:  E(RB3LYP) =  -264.452859512     A.U. after    8 cycles
 SCF Done:  E(RB3LYP) =  -264.452859625     A.U. after    7 cycles
 Optimization completed.
    -- Stationary point found.
 Normal termination of Gaussian 09 at Thu Sep  8 14:46:52 2022.

 ----------------------------------------------------------------------
 #P Geom=AllCheck Guess=TCheck SCRF=Check GenChk RB3LYP/6-31G(d,p) Freq
 ----------------------------------------------------------------------

 Structure from the checkpoint file:  "B3LYP6-31Gdp.Frag_1110.chk"
 ---------
 Frag_1110
 ---------
 Charge =  0 Multiplicity = 1

                         Standard orientation:
 ---------------------------------------------------------------------
 Center     Atomic      Atomic             Coordinates (Angstroms)
 Number     Number       Type             X           Y           Z
 ---------------------------------------------------------------------
      1          6           0       -1.838697   -0.163148    0.121596
      2          7           0       -0.725666   -0.751611   -0.108211
      3          7           0        0.387260   -0.018134   -0.393475
      4          6           0        1.594198   -0.619067    0.165736
      5          8           0        0.326355    1.361260   -0.053812
      6          1           0       -2.704855   -0.797434    0.281961
      7          1           0       -1.962961    0.918735    0.124795
      8          1           0        2.458681   -0.080274   -0.223121
      9          1           0        1.630176   -1.662028   -0.150779
     10          1           0        1.601630   -0.580513    1.267393
     11          1           0        0.202328    1.392939    0.918058
 ---------------------------------------------------------------------

 SCF Done:  E(RB3LYP) =  -264.452859625     A.U. after    1 cycles

 The electronic state is 1-A.
 Alpha  occ. eigenvalues --  -19.18854 -14.42321 -14.36990 -10.21945 -10.21621
 Alpha  occ. eigenvalues --   -1.09668  -0.95171  -0.81972  -0.68721  -0.60455
 Alpha  occ. eigenvalues --   -0.53330  -0.50160  -0.47784  -0.43801  -0.41046
 Alpha  occ. eigenvalues --   -0.39326  -0.35643  -0.31422  -0.27890  -0.23480
 Alpha virt. eigenvalues --   -0.00165   0.06493   0.10553   0.13736   0.14521
 Alpha virt. eigenvalues --    0.15389   0.16249   0.19314   0.20715   0.25321
 Alpha virt. eigenvalues --    0.33298   0.52264   0.53600   0.55611   0.56337

 Mulliken charges:
               1
     1  C   -0.084260
     2  N   -0.192121
     3  N   -0.039624
     4  C   -0.149949
     5  O   -0.422463
     6  H    0.114253
     7  H    0.113740
     8  H    0.134161
     9  H    0.140835
    10  H    0.091127
    11  H    0.294301
 Sum of Mulliken charges =  -0.00000

 Dipole moment (field-independent basis, Debye):
    X=              0.2489    Y=              0.1321    Z=              2.0697  Tot=              2.0888
 Quadrupole moment (field-independent basis, Debye-Ang):
   XX=            -25.6794   YY=            -32.1108   ZZ=            -30.3802
   XY=             -2.0195   XZ=              0.0615   YZ=              2.0835

  Exact polarizability:  58.298  -0.688  39.306  -2.401   1.839  27.975
 Approx polarizability:  81.400  -2.235  58.972  -8.061   3.077  42.216

                      1                      2                      3
                      A                      A                      A
 Frequencies --    201.8751               267.7700               340.4975
 Red. masses --      2.6283                 1.1206                 2.8252
 Frc consts  --      0.0631                 0.0473                 0.1930
 IR Inten    --      8.9150                 2.5690                 1.2092

                      4                      5                      6
                      A                      A                      A
 Frequencies --    387.5200               413.1228               459.5001
 Red. masses --      1.2273                 2.5415                 2.6876
 Frc consts  --      0.1086                 0.2556                 0.3343
 IR Inten    --     34.1350                27.1070                44.8980

                      7                      8                      9
                      A                      A                      A
 Frequencies --    638.1467               776.7312               818.6654
 Red. masses --      3.1131                 6.1980                 1.2701
 Frc consts  --      0.7469                 2.2031                 0.5015
 IR Inten    --     29.5708                27.9716                 3.3427

                     10                     11                     12
                      A                      A                      A
 Frequencies --    932.1405               960.7285              1130.5470
 Red. masses --      3.6645                 1.3665                 1.6732
 Frc consts  --      1.8760                 0.7431                 1.2600
 IR Inten    --     47.4940                30.5979                21.8202

                     13                     14                     15
                      A                      A                      A
 Frequencies --   1169.3107              1220.2573              1238.1209
 Red. masses --      1.5826                 1.7276                 3.1577
 Frc consts  --      1.2749                 1.5156                 2.8520
 IR Inten    --      3.4668                38.6077                 5.1349

                     16                     17                     18
                      A                      A                      A
 Frequencies --   1386.9048              1447.2792              1472.7249
 Red. masses --      1.2044                 1.1824                 1.1748
 Frc consts  --      1.3650                 1.4592                 1.5012
 IR Inten    --     22.8403                 1.5489                 2.7533

                     19                     20                     21
                      A                      A                      A
 Frequencies --   1498.7641              1513.5279              1684.9099
 Red. masses --      1.0521                 1.0622                 5.8028
 Frc consts  --      1.3925                 1.4336                 9.7061
 IR Inten    --     18.9018                 9.1066                11.2419

                     22                     23                     24
                      A                      A                      A
 Frequencies --   2986.9786              3125.8124              3126.9519
 Red. masses --      1.0560                 1.0696                 1.0611
 Frc consts  --      5.5512                 6.1575                 6.1131
 IR Inten    --     68.8811                 7.9895                16.2302

                     25                     26                     27
                      A                      A                      A
 Frequencies --   3177.7213              3235.6461              3576.8461
 Red. masses --      1.1066                 1.1181                 1.0668
 Frc consts  --      6.5836                 6.8970                 8.0413
 IR Inten    --      8.5741                10.1479                 3.2104

 - Thermochemistry -
 -------------------
 Temperature   298.150 Kelvin.  Pressure   1.00000 Atm.
 Atom     1 has atomic number  6 and mass  12.00000

 Molecular mass:    74.04801 amu.
 Principal axes and moments of inertia in atomic units:
                           1         2         3
     Eigenvalues --   193.96015 394.63043 549.70115
           X            0.99837  -0.05695   0.00401
           Y            0.05688   0.99827   0.01511
           Z           -0.00486  -0.01486   0.99988
 This molecule is an asymmetric top.
 Rotational symmetry number  1.
 Rotational temperatures (Kelvin)      0.44655     0.21948     0.15757
 Rotational constants (GHZ):           9.30470     4.57324     3.28313
 Zero-point vibrational energy     234402.3 (Joules/Mol)
                                   56.02349 (Kcal/Mol)
 Warning -- explicit consideration of   6 degrees of freedom as
           vibrations may cause significant error
 Vibrational temperatures:    290.45   385.26   489.90   557.55   594.39
          (Kelvin)            661.12   918.15  1117.54  1177.88  1341.14
                             1382.27  1626.60  1682.38  1755.68  1781.38
                             1995.44  2082.31  2118.92  2156.38  2177.63
                             2424.21  4297.59  4497.34  4498.98  4572.03
                             4655.37  5146.28

 Zero-point correction=                           0.089279 (Hartree/Particle)
 Thermal correction to Energy=                    0.094869
 Thermal correction to Enthalpy=                  0.095814
 Thermal correction to Gibbs Free Energy=         0.061134
 Sum of electronic and zero-point Energies=           -264.363581
 Sum of electronic and thermal Energies=              -264.357990
 Sum of electronic and thermal Enthalpies=            -264.357046
 Sum of electronic and thermal Free Energies=         -264.391725

                     E (Thermal)             CV                S
                      KCal/Mol        Cal/Mol-Kelvin    Cal/Mol-Kelvin
 Total                   59.531             19.869             72.988
 Electronic               0.000              0.000              0.000
 Translational            0.889              2.981             38.822
 Rotational               0.889              2.981             25.246
 Vibrational             57.754             13.908              8.920
 Vibration     1          0.639              1.837              2.116
 Vibration     2          0.673              1.732              1.611
 Vibration     3          0.720              1.595              1.210
 Vibration     4          0.756              1.497              1.010
 Vibration     5          0.777              1.442              0.916
 Vibration     6          0.817              1.340              0.768

 Optimization completed.
    -- Stationary point found.
 Normal termination of Gaussian 09 at Thu Sep  8 14:47:01 2022.
