 Gaussian 09, Revision E.01,
 Gaussian 09:  ES64L-G09RevE.01 30-Nov-2015

 ----------------------------
 #P OPT Freq B3LYP/6-31G(d,p)
 ----------------------------

 --------
 Frag_858
 --------
 Symbolic Z-matrix:
 Charge =  0 Multiplicity = 1

 SCF Done:  E(RB3LYP) =  -364.199072460     A.U. after   13 cycles
 SCF Done:  E(RB3LYP) =  -364.199137558     A.U. after   11 cycles
 SCF Done:  E(RB3LYP) =  -364.199147280     A.U. after    9 cycles
 SCF Done:  E(RB3LYP) =  -364.199150965     A.U. after    9 cycles
 SCF Done:  E(RB3LYP) =  -364.199152280     A.U. after    8 cycles
 SCF Done:  E(RB3LYP) =  -364.199153099     A.U. after    7 cycles
 SCF Done:  E(RB3LYP) =  -364.199153482     A.U. after    7 cycles
 SCF Done:  E(RB3LYP) =  -364.199153617     A.U. after    7 cycles
 Optimization completed.
    -- Stationary point found.
 Normal termination of Gaussian 09 at Thu Sep  8 15:17:14 2022.

 ----------------------------------------------------------------------
 #P Geom=AllCheck Guess=TCheck SCRF=Check GenChk RB3LYP/6-31G(d,p) Freq
 ----------------------------------------------------------------------

 Structure from the checkpoint file:  "B3LYP6-31Gdp.Frag_858.chk"
 --------
 Frag_858
 --------
 Charge =  0 Multiplicity = 1

                         Standard orientation:
 ---------------------------------------------------------------------
 Center     Atomic      Atomic             Coordinates (Angstroms)
 Number     Number       Type             X           Y           Z
 ---------------------------------------------------------------------
      1          6           0       -1.732756   -0.934134   -0.144277
      2          7           0       -0.801123    0.138992   -0.479556
      3          8           0       -1.282229    1.318913    0.216395
      4          6           0        0.610362   -0.083054   -0.027456
      5          6           0        0.761518   -0.147360    1.498733
      6          6           0        1.465250    1.027347   -0.634687
      7          8           0        1.048932   -1.294506   -0.627220
      8          1           0       -2.713096   -0.671286   -0.548024
      9          1           0       -1.844921   -1.111752    0.936357
     10          1           0       -1.395552   -1.848615   -0.636906
     11          1           0       -1.463111    1.925417   -0.514584
     12          1           0        0.377314    0.763188    1.961727
     13          1           0        1.816487   -0.264690    1.761489
     14          1           0        0.209897   -0.996545    1.918997
     15          1           0        2.513549    0.883420   -0.361035
     16          1           0        1.376472    0.992663   -1.723206
     17          1           0        1.134948    2.004579   -0.277345
     18          1           0        0.835996   -2.021373   -0.027850
 ---------------------------------------------------------------------

 SCF Done:  E(RB3LYP) =  -364.199153617     A.U. after    1 cycles

 The electronic state is 1-A.
 Alpha  occ. eigenvalues --  -19.16705 -19.14792 -14.36591 -10.26505 -10.20035
 Alpha  occ. eigenvalues --  -10.17513 -10.16624  -1.05444  -1.02312  -0.83767
 Alpha  occ. eigenvalues --   -0.75985  -0.69343  -0.65420  -0.57339  -0.50800
 Alpha  occ. eigenvalues --   -0.49741  -0.46090  -0.45470  -0.42398  -0.40170
 Alpha  occ. eigenvalues --   -0.39496  -0.37970  -0.37919  -0.36110  -0.35636
 Alpha  occ. eigenvalues --   -0.32672  -0.30623  -0.26787  -0.22189
 Alpha virt. eigenvalues --    0.06742   0.07862   0.11571   0.12817   0.13344
 Alpha virt. eigenvalues --    0.14935   0.16358   0.17165   0.17342   0.19387
 Alpha virt. eigenvalues --    0.19665   0.21218   0.23065   0.23380   0.25028

 Mulliken charges:
               1
     1  C   -0.150852
     2  N   -0.238438
     3  O   -0.443838
     4  C    0.409565
     5  C   -0.337632
     6  C   -0.307810
     7  O   -0.544238
     8  H    0.113847
     9  H    0.091478
    10  H    0.112210
    11  H    0.327597
    12  H    0.135684
    13  H    0.111164
    14  H    0.088799
    15  H    0.105053
    16  H    0.118766
    17  H    0.104433
    18  H    0.304214
 Sum of Mulliken charges =  -0.00000

 Dipole moment (field-independent basis, Debye):
    X=             -0.4677    Y=             -0.2410    Z=              0.7976  Tot=              0.9555
 Quadrupole moment (field-independent basis, Debye-Ang):
   XX=            -43.6701   YY=            -38.4713   ZZ=            -45.8506
   XY=              0.6046   XZ=              3.2064   YZ=             -4.1653

  Exact polarizability:  61.506   0.930  61.325   0.600  -1.811  52.969
 Approx polarizability:  78.996  -3.298  87.208  -1.169   0.166  74.883

                      1                      2                      3
                      A                      A                      A
 Frequencies --     95.4440               223.0777               252.9707
 Red. masses --      2.8332                 1.0362                 1.1012
 Frc consts  --      0.0152                 0.0304                 0.0415
 IR Inten    --      1.3563                 1.1061                11.9253

                      4                      5                      6
                      A                      A                      A
 Frequencies --    255.7539               278.5064               295.9296
 Red. masses --      1.3499                 2.6865                 2.1281
 Frc consts  --      0.0520                 0.1228                 0.1098
 IR Inten    --      1.3833                13.1875                17.9139

                      7                      8                      9
                      A                      A                      A
 Frequencies --    317.6287               346.7359               363.5793
 Red. masses --      1.6854                 1.0635                 2.3887
 Frc consts  --      0.1002                 0.0753                 0.1860
 IR Inten    --     13.2202               149.3111                 1.9528

                     10                     11                     12
                      A                      A                      A
 Frequencies --    396.5390               419.4065               489.7437
 Red. masses --      1.6728                 3.2404                 2.8078
 Frc consts  --      0.1550                 0.3358                 0.3968
 IR Inten    --     11.4958                10.0062                 3.1764

                     13                     14                     15
                      A                      A                      A
 Frequencies --    512.7648               541.8874               713.3633
 Red. masses --      3.7422                 3.0332                 3.9960
 Frc consts  --      0.5797                 0.5248                 1.1981
 IR Inten    --      2.9991                 8.3635                 7.8741

                     16                     17                     18
                      A                      A                      A
 Frequencies --    852.1898               912.4376               933.8639
 Red. masses --      3.2438                 3.0194                 1.5340
 Frc consts  --      1.3880                 1.4811                 0.7882
 IR Inten    --     29.3247                 5.4742                 0.1679

                     19                     20                     21
                      A                      A                      A
 Frequencies --    992.0140              1008.7659              1097.2982
 Red. masses --      2.1792                 1.2986                 2.6537
 Frc consts  --      1.2635                 0.7786                 1.8826
 IR Inten    --     44.3157                 5.9767                61.8608

                     22                     23                     24
                      A                      A                      A
 Frequencies --   1134.0468              1157.9301              1188.4103
 Red. masses --      1.6644                 1.4667                 1.7491
 Frc consts  --      1.2612                 1.1587                 1.4554
 IR Inten    --     21.2570                 7.8755                20.0361

                     25                     26                     27
                      A                      A                      A
 Frequencies --   1238.2202              1263.1413              1343.6794
 Red. masses --      2.6890                 3.3798                 1.2009
 Frc consts  --      2.4291                 3.1772                 1.2774
 IR Inten    --     69.5823                54.7201                51.6362

                     28                     29                     30
                      A                      A                      A
 Frequencies --   1372.2740              1414.5734              1424.9443
 Red. masses --      1.3795                 1.4207                 1.4141
 Frc consts  --      1.5305                 1.6749                 1.6917
 IR Inten    --     25.2552                39.8983                20.3541

                     31                     32                     33
                      A                      A                      A
 Frequencies --   1441.3762              1492.6697              1501.6721
 Red. masses --      1.1854                 1.0507                 1.0506
 Frc consts  --      1.4510                 1.3793                 1.3958
 IR Inten    --      0.2574                 0.5699                 4.2683

                     34                     35                     36
                      A                      A                      A
 Frequencies --   1507.7722              1509.8025              1522.7905
 Red. masses --      1.0538                 1.0584                 1.0542
 Frc consts  --      1.4115                 1.4215                 1.4403
 IR Inten    --      3.1401                 8.6623                 2.4595

                     37                     38                     39
                      A                      A                      A
 Frequencies --   1528.9371              3000.8621              3048.4072
 Red. masses --      1.0582                 1.0513                 1.0405
 Frc consts  --      1.4575                 5.5778                 5.6970
 IR Inten    --      0.5651                47.4658                25.2659

                     40                     41                     42
                      A                      A                      A
 Frequencies --   3066.6103              3106.7043              3117.1608
 Red. masses --      1.0350                 1.0824                 1.0974
 Frc consts  --      5.7344                 6.1550                 6.2827
 IR Inten    --      9.8425                33.2811                23.5935

                     43                     44                     45
                      A                      A                      A
 Frequencies --   3144.7305              3147.7482              3154.6698
 Red. masses --      1.1032                 1.1031                 1.1028
 Frc consts  --      6.4280                 6.4397                 6.4664
 IR Inten    --     17.9664                16.9454                 4.8466

                     46                     47                     48
                      A                      A                      A
 Frequencies --   3158.6607              3804.6585              3818.5217
 Red. masses --      1.1016                 1.0683                 1.0663
 Frc consts  --      6.4756                 9.1110                 9.1608
 IR Inten    --     22.1794                34.7330                12.0631

 - Thermochemistry -
 -------------------
 Temperature   298.150 Kelvin.  Pressure   1.00000 Atm.
 Atom     1 has atomic number  6 and mass  12.00000

 Molecular mass:   105.07898 amu.
 Principal axes and moments of inertia in atomic units:
                           1         2         3
     Eigenvalues --   556.66481 762.49621 907.43432
           X            0.99126   0.13111   0.01490
           Y           -0.12924   0.98744  -0.09082
           Z           -0.02662   0.08810   0.99576
 This molecule is an asymmetric top.
 Rotational symmetry number  1.
 Warning -- assumption of classical behavior for rotation
           may cause significant error
 Rotational temperatures (Kelvin)      0.15559     0.11359     0.09545
 Rotational constants (GHZ):           3.24206     2.36689     1.98884
 Zero-point vibrational energy     412178.6 (Joules/Mol)
                                   98.51304 (Kcal/Mol)
 Warning -- explicit consideration of  14 degrees of freedom as
           vibrations may cause significant error
 Vibrational temperatures:    137.32   320.96   363.97   367.97   400.71
          (Kelvin)            425.78   457.00   498.87   523.11   570.53
                              603.43   704.63   737.75   779.65  1026.37
                             1226.11  1312.79  1343.62  1427.29  1451.39
                             1578.77  1631.64  1666.00  1709.86  1781.52
                             1817.38  1933.25  1974.39  2035.25  2050.17
                             2073.82  2147.62  2160.57  2169.35  2172.27
                             2190.95  2199.80  4317.57  4385.97  4412.16
                             4469.85  4484.89  4524.56  4528.90  4538.86
                             4544.60  5474.05  5493.99

 Zero-point correction=                           0.156991 (Hartree/Particle)
 Thermal correction to Energy=                    0.165803
 Thermal correction to Enthalpy=                  0.166747
 Thermal correction to Gibbs Free Energy=         0.125001
 Sum of electronic and zero-point Energies=           -364.042163
 Sum of electronic and thermal Energies=              -364.033350
 Sum of electronic and thermal Enthalpies=            -364.032406
 Sum of electronic and thermal Free Energies=         -364.074153

                     E (Thermal)             CV                S
                      KCal/Mol        Cal/Mol-Kelvin    Cal/Mol-Kelvin
 Total                  104.043             33.315             87.863
 Electronic               0.000              0.000              0.000
 Translational            0.889              2.981             39.866
 Rotational               0.889              2.981             27.446
 Vibrational            102.266             27.353             20.551
 Vibration     1          0.603              1.952              3.545
 Vibration     2          0.649              1.806              1.934
 Vibration     3          0.664              1.758              1.710
 Vibration     4          0.666              1.753              1.691
 Vibration     5          0.679              1.713              1.543
 Vibration     6          0.690              1.681              1.440
 Vibration     7          0.704              1.640              1.322
 Vibration     8          0.725              1.582              1.181
 Vibration     9          0.737              1.547              1.107
 Vibration    10          0.763              1.478              0.975
 Vibration    11          0.782              1.428              0.894
 Vibration    12          0.846              1.273              0.684
 Vibration    13          0.868              1.222              0.627
 Vibration    14          0.897              1.157              0.561

 Optimization completed.
    -- Stationary point found.
 Normal termination of Gaussian 09 at Thu Sep  8 15:17:31 2022.
