 Gaussian 09, Revision E.01,
 Gaussian 09:  ES64L-G09RevE.01 30-Nov-2015

 -------------------------
 #P OPT Freq B3LYP/6-31G**
 -------------------------

 --------
 Frag_159
 --------
 Symbolic Z-matrix:
 Charge =  0 Multiplicity = 1

 SCF Done:  E(RB3LYP) =  -323.514908611     A.U. after   15 cycles
 SCF Done:  E(RB3LYP) =  -323.526429687     A.U. after   13 cycles
 SCF Done:  E(RB3LYP) =  -323.527571114     A.U. after   12 cycles
 SCF Done:  E(RB3LYP) =  -323.527601541     A.U. after   10 cycles
 SCF Done:  E(RB3LYP) =  -323.527604608     A.U. after    8 cycles
 Optimization completed.
    -- Stationary point found.
 Normal termination of Gaussian 09 at Sat Aug 21 01:34:12 2021.

 ----------------------------------------------------------------------
 #P Geom=AllCheck Guess=TCheck SCRF=Check GenChk RB3LYP/6-31G(d,p) Freq
 ----------------------------------------------------------------------

 Structure from the checkpoint file:  "/public/home/users/caep010/.cache/gau_scr/Gau-7904.chk"
 --------
 Frag_159
 --------
 Charge =  0 Multiplicity = 1

                         Standard orientation:
 ---------------------------------------------------------------------
 Center     Atomic      Atomic             Coordinates (Angstroms)
 Number     Number       Type             X           Y           Z
 ---------------------------------------------------------------------
      1          8           0        2.292573    0.003376   -0.000016
      2          6           0        1.067283    0.063964    0.000035
      3          6           0        0.247583    1.264515   -0.000003
      4          6           0       -1.116416    1.202687   -0.000001
      5          6           0       -1.806082   -0.047615    0.000001
      6          6           0       -1.061493   -1.189614   -0.000008
      7          7           0        0.301526   -1.123856    0.000005
      8          1           0        0.781986    2.207299   -0.000024
      9          1           0       -1.694709    2.123028   -0.000004
     10          1           0       -2.887256   -0.098373   -0.000002
     11          1           0       -1.492641   -2.184658   -0.000020
     12          1           0        0.856113   -1.970939   -0.000005
 ---------------------------------------------------------------------

 SCF Done:  E(RB3LYP) =  -323.527604608     A.U. after    1 cycles

 The electronic state is 1-A.
 Alpha  occ. eigenvalues --  -19.10002 -14.39307 -10.28408 -10.25302 -10.21464
 Alpha  occ. eigenvalues --  -10.19975 -10.19432  -1.02673  -0.95257  -0.81731
 Alpha  occ. eigenvalues --   -0.75656  -0.65209  -0.63429  -0.56026  -0.50306
 Alpha  occ. eigenvalues --   -0.48606  -0.46033  -0.43367  -0.42091  -0.38593
 Alpha  occ. eigenvalues --   -0.37475  -0.33909  -0.30517  -0.24624  -0.21685
 Alpha virt. eigenvalues --   -0.03942   0.01628   0.06603   0.11248   0.13331
 Alpha virt. eigenvalues --    0.14168   0.16167   0.17546   0.21720   0.27175
 Alpha virt. eigenvalues --    0.28610   0.30854   0.32494   0.45268   0.47031

 Mulliken charges:
               1
     1  O   -0.532926
     2  C    0.573248
     3  C   -0.156540
     4  C   -0.044095
     5  C   -0.146315
     6  C    0.149787
     7  N   -0.551954
     8  H    0.108176
     9  H    0.102674
    10  H    0.098407
    11  H    0.124259
    12  H    0.275281
 Sum of Mulliken charges =  -0.00000

 Dipole moment (field-independent basis, Debye):
    X=             -3.8764    Y=             -1.4701    Z=              0.0000  Tot=              4.1458
 Quadrupole moment (field-independent basis, Debye-Ang):
   XX=            -46.0026   YY=            -30.9850   ZZ=            -41.8963
   XY=             -0.7859   XZ=              0.0001   YZ=              0.0000

  Exact polarizability:  80.739   0.996  67.098  -0.000   0.000  22.740
 Approx polarizability: 146.884   1.822 108.620  -0.001   0.000  34.198

                      1                      2                      3
                      A                      A                      A
 Frequencies --    176.6985               389.7633               453.5465
 Red. masses --      5.8638                 3.3491                 6.0865
 Frc consts  --      0.1079                 0.2998                 0.7377
 IR Inten    --      2.1473                 1.9990                 6.9976

                      4                      5                      6
                      A                      A                      A
 Frequencies --    488.2063               546.7122               616.7979
 Red. masses --      2.1142                 7.8979                 6.7674
 Frc consts  --      0.2969                 1.3908                 1.5169
 IR Inten    --     35.8439                 6.2383                 0.4523

                      7                      8                      9
                      A                      A                      A
 Frequencies --    700.5258               735.8386               768.3899
 Red. masses --      1.4048                 1.8112                 1.7234
 Frc consts  --      0.4062                 0.5778                 0.5995
 IR Inten    --     37.2236                 0.1881                79.2091

                     10                     11                     12
                      A                      A                      A
 Frequencies --    822.2439               854.6635               936.2733
 Red. masses --      5.1799                 1.6209                 1.2726
 Frc consts  --      2.0633                 0.6976                 0.6573
 IR Inten    --      6.5902                15.5196                 0.0309

                     13                     14                     15
                      A                      A                      A
 Frequencies --    996.6379              1007.6847              1023.2439
 Red. masses --      5.0080                 1.2818                 2.6927
 Frc consts  --      2.9308                 0.7669                 1.6611
 IR Inten    --     11.2501                 0.0055                 3.6707

                     16                     17                     18
                      A                      A                      A
 Frequencies --   1112.5617              1167.7830              1223.9457
 Red. masses --      1.6581                 1.2338                 1.3364
 Frc consts  --      1.2093                 0.9914                 1.1795
 IR Inten    --     18.6294                14.0246                 7.2573

                     19                     20                     21
                      A                      A                      A
 Frequencies --   1245.3452              1388.7541              1458.8008
 Red. masses --      1.8705                 1.5102                 1.9910
 Frc consts  --      1.7091                 1.7161                 2.4964
 IR Inten    --     16.5252                 1.3353                 5.1711

                     22                     23                     24
                      A                      A                      A
 Frequencies --   1500.2946              1595.5796              1678.7683
 Red. masses --      2.4117                 5.2743                 4.8013
 Frc consts  --      3.1984                 7.9113                 7.9725
 IR Inten    --      2.1584                58.1493                40.0360

                     25                     26                     27
                      A                      A                      A
 Frequencies --   1792.6054              3184.6579              3214.9430
 Red. masses --      8.4788                 1.0893                 1.0903
 Frc consts  --     16.0529                 6.5094                 6.6397
 IR Inten    --    518.2708                13.1877                 3.0181

                     28                     29                     30
                      A                      A                      A
 Frequencies --   3229.8524              3241.2575              3611.1516
 Red. masses --      1.0936                 1.0974                 1.0780
 Frc consts  --      6.7219                 6.7930                 8.2824
 IR Inten    --      3.6256                 4.9778                54.9606

 - Thermochemistry -
 -------------------
 Temperature   298.150 Kelvin.  Pressure   1.00000 Atm.
 Atom     1 has atomic number  8 and mass  15.99491

 Molecular mass:    95.03711 amu.
 Principal axes and moments of inertia in atomic units:
                           1         2         3
     Eigenvalues --   319.53280 650.14741 969.68021
           X            1.00000  -0.00018   0.00000
           Y            0.00018   1.00000  -0.00000
           Z           -0.00000   0.00000   1.00000
 This molecule is an asymmetric top.
 Rotational symmetry number  1.
 Rotational temperatures (Kelvin)      0.27106     0.13322     0.08932
 Rotational constants (GHZ):           5.64806     2.77590     1.86117
 Zero-point vibrational energy     246212.6 (Joules/Mol)
                                   58.84622 (Kcal/Mol)
 Warning -- explicit consideration of   6 degrees of freedom as
           vibrations may cause significant error
 Vibrational temperatures:    254.23   560.78   652.55   702.42   786.60
          (Kelvin)            887.43  1007.90  1058.71  1105.54  1183.02
                             1229.67  1347.09  1433.94  1449.83  1472.22
                             1600.73  1680.18  1760.98  1791.77  1998.10
                             2098.89  2158.59  2295.68  2415.37  2579.16
                             4582.01  4625.58  4647.03  4663.44  5195.64

 Zero-point correction=                           0.093777 (Hartree/Particle)
 Thermal correction to Energy=                    0.099051
 Thermal correction to Enthalpy=                  0.099995
 Thermal correction to Gibbs Free Energy=         0.064849
 Sum of electronic and zero-point Energies=           -323.433827
 Sum of electronic and thermal Energies=              -323.428553
 Sum of electronic and thermal Enthalpies=            -323.427609
 Sum of electronic and thermal Free Energies=         -323.462756

                     E (Thermal)             CV                S
                      KCal/Mol        Cal/Mol-Kelvin    Cal/Mol-Kelvin
 Total                   62.156             20.380             73.973
 Electronic               0.000              0.000              0.000
 Translational            0.889              2.981             39.566
 Rotational               0.889              2.981             26.802
 Vibrational             60.378             14.418              7.605
 Vibration     1          0.628              1.871              2.363
 Vibration     2          0.758              1.492              1.001
 Vibration     3          0.812              1.353              0.785
 Vibration     4          0.844              1.276              0.688
 Vibration     5          0.902              1.147              0.551
 Vibration     6          0.976              0.996              0.422

 Optimization completed.
    -- Stationary point found.
 Normal termination of Gaussian 09 at Sat Aug 21 01:34:25 2021.
