 Gaussian 09, Revision E.01,
 Gaussian 09:  ES64L-G09RevE.01 30-Nov-2015

 ----------------------------
 #P OPT Freq B3LYP/6-31G(d,p)
 ----------------------------

 --------
 Frag_815
 --------
 Symbolic Z-matrix:
 Charge =  0 Multiplicity = 1

 SCF Done:  E(RB3LYP) =  -302.560168667     A.U. after   15 cycles
 SCF Done:  E(RB3LYP) =  -302.560265244     A.U. after   10 cycles
 SCF Done:  E(RB3LYP) =  -302.560269866     A.U. after    9 cycles
 Optimization completed.
    -- Stationary point found.
 Normal termination of Gaussian 09 at Thu Sep  8 15:20:02 2022.

 ----------------------------------------------------------------------
 #P Geom=AllCheck Guess=TCheck SCRF=Check GenChk RB3LYP/6-31G(d,p) Freq
 ----------------------------------------------------------------------

 Structure from the checkpoint file:  "B3LYP6-31Gdp.Frag_815.chk"
 --------
 Frag_815
 --------
 Charge =  0 Multiplicity = 1

                         Standard orientation:
 ---------------------------------------------------------------------
 Center     Atomic      Atomic             Coordinates (Angstroms)
 Number     Number       Type             X           Y           Z
 ---------------------------------------------------------------------
      1          6           0        1.087998    1.441009   -0.000008
      2          6           0        0.685565    0.171954   -0.000006
      3          6           0        1.552808   -1.048385    0.000007
      4          7           0       -0.774321   -0.059557   -0.000004
      5          7           0       -1.128809   -1.284919   -0.000010
      6          8           0       -1.539464    0.930059    0.000013
      7          1           0        2.145631    1.676576   -0.000011
      8          1           0        0.366342    2.247430   -0.000002
      9          1           0        1.360540   -1.671374   -0.877669
     10          1           0        1.360606   -1.671295    0.877758
     11          1           0        2.602330   -0.745713   -0.000037
     12          1           0       -2.156050   -1.252229   -0.000006
 ---------------------------------------------------------------------

 SCF Done:  E(RB3LYP) =  -302.560269866     A.U. after    1 cycles

 The electronic state is 1-A.
 Alpha  occ. eigenvalues --  -19.15132 -14.52722 -14.36209 -10.25177 -10.20760
 Alpha  occ. eigenvalues --  -10.19949  -1.15989  -0.95323  -0.83811  -0.71315
 Alpha  occ. eigenvalues --   -0.69864  -0.55157  -0.51482  -0.50900  -0.49873
 Alpha  occ. eigenvalues --   -0.44467  -0.42149  -0.41311  -0.39376  -0.33034
 Alpha  occ. eigenvalues --   -0.28366  -0.26790  -0.26596
 Alpha virt. eigenvalues --   -0.06741   0.03349   0.10085   0.10814   0.12569
 Alpha virt. eigenvalues --    0.15277   0.17264   0.17397   0.20645   0.26467
 Alpha virt. eigenvalues --    0.27361   0.32897   0.36001   0.49644   0.50385

 Mulliken charges:
               1
     1  C   -0.255213
     2  C    0.301899
     3  C   -0.351013
     4  N    0.174256
     5  N   -0.327472
     6  O   -0.469823
     7  H    0.117464
     8  H    0.153366
     9  H    0.145569
    10  H    0.145566
    11  H    0.111959
    12  H    0.253442
 Sum of Mulliken charges =  -0.00000

 Dipole moment (field-independent basis, Debye):
    X=              2.0597    Y=             -0.3111    Z=              0.0000  Tot=              2.0831
 Quadrupole moment (field-independent basis, Debye-Ang):
   XX=            -32.6721   YY=            -36.4598   ZZ=            -36.0068
   XY=              3.4895   XZ=              0.0001   YZ=             -0.0001

  Exact polarizability:  57.375   7.481  67.871  -0.000  -0.000  25.203
 Approx polarizability:  77.724  10.800 133.811  -0.000   0.000  36.631

                      1                      2                      3
                      A                      A                      A
 Frequencies --     73.2336               209.4656               332.2288
 Red. masses --      5.1011                 1.0324                 3.5442
 Frc consts  --      0.0161                 0.0267                 0.2305
 IR Inten    --      0.3544                 0.2840                 0.1355

                      4                      5                      6
                      A                      A                      A
 Frequencies --    381.9761               414.9722               538.7955
 Red. masses --      2.9478                 2.5625                 4.7090
 Frc consts  --      0.2534                 0.2600                 0.8054
 IR Inten    --      4.8273                 2.1809                 8.4233

                      7                      8                      9
                      A                      A                      A
 Frequencies --    592.2811               627.1483               807.3068
 Red. masses --      4.1545                 1.6213                 3.7446
 Frc consts  --      0.8587                 0.3757                 1.4379
 IR Inten    --     23.3763                 0.2673                31.8327

                     10                     11                     12
                      A                      A                      A
 Frequencies --    819.0051               916.2469               931.1764
 Red. masses --      1.6470                 1.3210                 1.8242
 Frc consts  --      0.6509                 0.6534                 0.9320
 IR Inten    --      0.1352                79.2457                 6.5743

                     13                     14                     15
                      A                      A                      A
 Frequencies --    969.3542              1026.9458              1079.2798
 Red. masses --      1.3301                 1.4366                 1.4634
 Frc consts  --      0.7364                 0.8926                 1.0043
 IR Inten    --     35.7646                10.9037                 1.6224

                     16                     17                     18
                      A                      A                      A
 Frequencies --   1247.0569              1259.1836              1409.4074
 Red. masses --      2.5685                 3.9607                 1.1470
 Frc consts  --      2.3534                 3.7000                 1.3424
 IR Inten    --     10.9611                67.4227                11.7574

                     19                     20                     21
                      A                      A                      A
 Frequencies --   1443.1448              1482.0505              1493.0212
 Red. masses --      1.2969                 1.0427                 1.0896
 Frc consts  --      1.5913                 1.3494                 1.4310
 IR Inten    --      8.8448                 7.1392                13.3769

                     22                     23                     24
                      A                      A                      A
 Frequencies --   1522.9998              1583.1489              1746.9311
 Red. masses --      1.7001                11.9284                 5.9529
 Frc consts  --      2.3235                17.6148                10.7036
 IR Inten    --     11.4442               208.2462                 0.7567

                     25                     26                     27
                      A                      A                      A
 Frequencies --   3063.7656              3131.0711              3147.0693
 Red. masses --      1.0352                 1.1010                 1.1042
 Frc consts  --      5.7251                 6.3595                 6.4432
 IR Inten    --      8.3614                 6.6194                12.0474

                     28                     29                     30
                      A                      A                      A
 Frequencies --   3192.3301              3293.9366              3422.9925
 Red. masses --      1.0609                 1.1175                 1.0716
 Frc consts  --      6.3702                 7.1436                 7.3980
 IR Inten    --      4.8140                 0.7932                 3.9552

 - Thermochemistry -
 -------------------
 Temperature   298.150 Kelvin.  Pressure   1.00000 Atm.
 Atom     1 has atomic number  6 and mass  12.00000

 Molecular mass:    86.04801 amu.
 Principal axes and moments of inertia in atomic units:
                           1         2         3
     Eigenvalues --   330.98448 478.99518 798.88922
           X            0.99992   0.01264   0.00000
           Y           -0.01264   0.99992  -0.00000
           Z           -0.00000   0.00000   1.00000
 This molecule is an asymmetric top.
 Rotational symmetry number  1.
 Rotational temperatures (Kelvin)      0.26169     0.18082     0.10842
 Rotational constants (GHZ):           5.45265     3.76776     2.25906
 Zero-point vibrational energy     252158.0 (Joules/Mol)
                                   60.26721 (Kcal/Mol)
 Warning -- explicit consideration of   7 degrees of freedom as
           vibrations may cause significant error
 Vibrational temperatures:    105.37   301.37   478.00   549.58   597.05
          (Kelvin)            775.21   852.16   902.33  1161.53  1178.36
                             1318.27  1339.75  1394.68  1477.54  1552.84
                             1794.23  1811.68  2027.82  2076.36  2132.34
                             2148.12  2191.25  2277.80  2513.44  4408.07
                             4504.91  4527.93  4593.05  4739.23  4924.92

 Zero-point correction=                           0.096042 (Hartree/Particle)
 Thermal correction to Energy=                    0.102129
 Thermal correction to Enthalpy=                  0.103073
 Thermal correction to Gibbs Free Energy=         0.066297
 Sum of electronic and zero-point Energies=           -302.464228
 Sum of electronic and thermal Energies=              -302.458141
 Sum of electronic and thermal Enthalpies=            -302.457197
 Sum of electronic and thermal Free Energies=         -302.493973

                     E (Thermal)             CV                S
                      KCal/Mol        Cal/Mol-Kelvin    Cal/Mol-Kelvin
 Total                   64.087             21.606             77.402
 Electronic               0.000              0.000              0.000
 Translational            0.889              2.981             39.270
 Rotational               0.889              2.981             26.341
 Vibrational             62.309             15.644             11.791
 Vibration     1          0.599              1.967              4.065
 Vibration     2          0.642              1.826              2.048
 Vibration     3          0.714              1.611              1.249
 Vibration     4          0.751              1.509              1.031
 Vibration     5          0.778              1.438              0.909
 Vibration     6          0.894              1.164              0.568
 Vibration     7          0.950              1.048              0.463

 Optimization completed.
    -- Stationary point found.
 Normal termination of Gaussian 09 at Thu Sep  8 15:20:11 2022.
