 Gaussian 09, Revision D.01,
 Gaussian 09:  ES64L-G09RevD.01 24-Apr-2013

 -------------------------
 #P OPT Freq B3LYP/6-31G**
 -------------------------

 -------
 Frag_77
 -------
 Symbolic Z-matrix:
 Charge =  0 Multiplicity = 1

 SCF Done:  E(RB3LYP) =  -225.145220551     A.U. after   14 cycles
 Optimization completed.
    -- Stationary point found.
 Normal termination of Gaussian 09 at Fri Jul 23 06:34:55 2021.

 ----------------------------------------------------------------------
 #P Geom=AllCheck Guess=TCheck SCRF=Check GenChk RB3LYP/6-31G(d,p) Freq
 ----------------------------------------------------------------------

 Structure from the checkpoint file:  "/vol2/users/liuj201281/HOFBenchmark/IsodesmicSplit/Sample60/Ring26/Running/Gau-534574.chk"
 -------
 Frag_77
 -------
 Charge =  0 Multiplicity = 1

                         Standard orientation:
 ---------------------------------------------------------------------
 Center     Atomic      Atomic             Coordinates (Angstroms)
 Number     Number       Type             X           Y           Z
 ---------------------------------------------------------------------
      1          6           0        1.310815   -0.181370   -0.000003
      2          7           0       -0.174306    0.032179   -0.000003
      3          7           0       -1.004808   -0.933205   -0.000003
      4          8           0       -0.514328    1.226345   -0.000003
      5          1           0        1.557923   -1.242944   -0.000703
      6          1           0        1.701065    0.311870    0.889897
      7          1           0        1.701265    0.313170   -0.889103
      8          1           0       -0.456720   -1.797450   -0.000003
 ---------------------------------------------------------------------

 SCF Done:  E(RB3LYP) =  -225.145220551     A.U. after    1 cycles

 The electronic state is 1-A.
 Alpha  occ. eigenvalues --  -19.15038 -14.53204 -14.36365 -10.25393  -1.16253
 Alpha  occ. eigenvalues --   -0.95961  -0.79511  -0.62326  -0.56243  -0.52007
 Alpha  occ. eigenvalues --   -0.48783  -0.45183  -0.41854  -0.30899  -0.27100
 Alpha  occ. eigenvalues --   -0.26471
 Alpha virt. eigenvalues --   -0.04422   0.05653   0.10721   0.11930   0.14269
 Alpha virt. eigenvalues --    0.16427   0.29280   0.35100   0.47081   0.49770
 Alpha virt. eigenvalues --    0.52397   0.66394   0.66634   0.69836   0.69985

 Mulliken charges:
               1
     1  C   -0.193715
     2  N    0.216886
     3  N   -0.303738
     4  O   -0.417889
     5  H    0.122079
     6  H    0.170265
     7  H    0.170265
     8  H    0.235847
 Sum of Mulliken charges =   0.00000

 Dipole moment (field-independent basis, Debye):
    X=              3.9203    Y=             -2.4364    Z=              0.0001  Tot=              4.6157
 Quadrupole moment (field-independent basis, Debye-Ang):
   XX=            -24.9363   YY=            -23.9109   ZZ=            -22.9804
   XY=             -0.2000   XZ=              0.0002   YZ=             -0.0001

  Exact polarizability:  30.850   2.655  39.892   0.000   0.000  18.127
 Approx polarizability:  42.329   9.382  82.312   0.000   0.000  24.781

                      1                      2                      3
                      A                      A                      A
 Frequencies --     99.6280               495.8172               568.3747
 Red. masses --      1.0873                 3.0077                 2.9880
 Frc consts  --      0.0064                 0.4356                 0.5687
 IR Inten    --      0.4479                 4.0297                20.5224

                      4                      5                      6
                      A                      A                      A
 Frequencies --    631.9680               800.4947               894.2455
 Red. masses --      5.1220                 1.2047                 6.9396
 Frc consts  --      1.2053                 0.4548                 3.2696
 IR Inten    --      9.3511                39.3135                 5.2505

                      7                      8                      9
                      A                      A                      A
 Frequencies --   1105.9387              1133.8690              1294.2639
 Red. masses --      1.3642                 1.4672                 2.1213
 Frc consts  --      0.9831                 1.1114                 2.0936
 IR Inten    --      3.8872                 1.4058                99.2995

                     10                     11                     12
                      A                      A                      A
 Frequencies --   1420.8872              1479.6594              1479.9874
 Red. masses --      1.2707                 1.0471                 2.1808
 Frc consts  --      1.5115                 1.3507                 2.8143
 IR Inten    --     29.0400                10.0274               144.8295

                     13                     14                     15
                      A                      A                      A
 Frequencies --   1492.8346              1672.8014              3084.0893
 Red. masses --      1.1613                 3.9953                 1.0299
 Frc consts  --      1.5248                 6.5870                 5.7715
 IR Inten    --      9.1720               121.0053                 4.8416

                     16                     17                     18
                      A                      A                      A
 Frequencies --   3186.8997              3190.0606              3453.9589
 Red. masses --      1.1090                 1.1064                 1.0741
 Frc consts  --      6.6359                 6.6340                 7.5495
 IR Inten    --      5.5313                 1.3367                 0.9557

 - Thermochemistry -
 -------------------
 Temperature   298.150 Kelvin.  Pressure   1.00000 Atm.
 Atom     1 has atomic number  6 and mass  12.00000

 Molecular mass:    60.03236 amu.
 Principal axes and moments of inertia in atomic units:
                           1         2         3
     Eigenvalues --   154.12646 175.60501 318.34117
           X            0.99923  -0.03920   0.00000
           Y            0.03920   0.99923   0.00000
           Z            0.00000   0.00000   1.00000
 This molecule is an asymmetric top.
 Rotational symmetry number  1.
 Rotational temperatures (Kelvin)      0.56197     0.49323     0.27208
 Rotational constants (GHZ):          11.70948    10.27728     5.66920
 Zero-point vibrational energy     164401.5 (Joules/Mol)
                                   39.29289 (Kcal/Mol)
 Warning -- explicit consideration of   3 degrees of freedom as
           vibrations may cause significant error
 Vibrational temperatures:    143.34   713.37   817.76   909.26  1151.73
          (Kelvin)           1286.62  1591.20  1631.38  1862.15  2044.34
                             2128.90  2129.37  2147.85  2406.79  4437.31
                             4585.23  4589.78  4969.47

 Zero-point correction=                           0.062617 (Hartree/Particle)
 Thermal correction to Energy=                    0.066950
 Thermal correction to Enthalpy=                  0.067894
 Thermal correction to Gibbs Free Energy=         0.035844
 Sum of electronic and zero-point Energies=           -225.082603
 Sum of electronic and thermal Energies=              -225.078271
 Sum of electronic and thermal Enthalpies=            -225.077327
 Sum of electronic and thermal Free Energies=         -225.109377

                     E (Thermal)             CV                S
                      KCal/Mol        Cal/Mol-Kelvin    Cal/Mol-Kelvin
 Total                   42.012             13.448             67.455
 Electronic               0.000              0.000              0.000
 Translational            0.889              2.981             38.197
 Rotational               0.889              2.981             23.670
 Vibrational             40.234              7.486              5.588
 Vibration     1          0.604              1.949              3.462
 Vibration     2          0.851              1.259              0.669
 Vibration     3          0.924              1.100              0.507

 Optimization completed.
    -- Stationary point found.
 Normal termination of Gaussian 09 at Fri Jul 23 06:35:05 2021.
