 Gaussian 09, Revision E.01,
 Gaussian 09:  ES64L-G09RevE.01 30-Nov-2015

 ----------------------------
 #P OPT Freq B3LYP/6-31G(d,p)
 ----------------------------

 --------
 Frag_669
 --------
 Symbolic Z-matrix:
 Charge =  0 Multiplicity = 1

 SCF Done:  E(RB3LYP) =  -348.225615209     A.U. after   13 cycles
 SCF Done:  E(RB3LYP) =  -348.225662186     A.U. after   10 cycles
 SCF Done:  E(RB3LYP) =  -348.225664708     A.U. after    7 cycles
 SCF Done:  E(RB3LYP) =  -348.225664705     A.U. after    7 cycles
 SCF Done:  E(RB3LYP) =  -348.225665145     A.U. after    7 cycles
 Optimization completed.
    -- Stationary point found.
 Normal termination of Gaussian 09 at Thu Sep  8 15:06:57 2022.

 ----------------------------------------------------------------------
 #P Geom=AllCheck Guess=TCheck SCRF=Check GenChk RB3LYP/6-31G(d,p) Freq
 ----------------------------------------------------------------------

 Structure from the checkpoint file:  "B3LYP6-31Gdp.Frag_669.chk"
 --------
 Frag_669
 --------
 Charge =  0 Multiplicity = 1

                         Standard orientation:
 ---------------------------------------------------------------------
 Center     Atomic      Atomic             Coordinates (Angstroms)
 Number     Number       Type             X           Y           Z
 ---------------------------------------------------------------------
      1          6           0       -0.684298   -0.038195    1.542188
      2          6           0       -0.616366   -0.000688    0.003532
      3          6           0       -1.305155    1.275098   -0.515320
      4          6           0       -1.310944   -1.242321   -0.583929
      5          6           0        0.857276    0.001885   -0.470391
      6          8           0        1.481745    1.164963    0.035088
      7          8           0        1.583582   -1.153195   -0.100576
      8          1           0       -1.725907    0.004356    1.876402
      9          1           0       -0.260564   -0.966485    1.945043
     10          1           0       -0.147472    0.806729    1.981178
     11          1           0       -2.367328    1.271260   -0.247743
     12          1           0       -1.239117    1.341426   -1.607753
     13          1           0       -0.844245    2.172049   -0.095405
     14          1           0       -0.809808   -2.161220   -0.268568
     15          1           0       -1.304885   -1.218251   -1.679820
     16          1           0       -2.355491   -1.286078   -0.258112
     17          1           0        0.880736   -0.009711   -1.570260
     18          1           0        2.397518    1.145072   -0.274977
     19          1           0        1.610871   -1.167960    0.867443
 ---------------------------------------------------------------------

 SCF Done:  E(RB3LYP) =  -348.225665145     A.U. after    1 cycles

 The electronic state is 1-A.
 Alpha  occ. eigenvalues --  -19.14988 -19.14940 -10.27667 -10.19477 -10.17283
 Alpha  occ. eigenvalues --  -10.16850 -10.16770  -1.05895  -0.98915  -0.81000
 Alpha  occ. eigenvalues --   -0.68520  -0.67852  -0.66201  -0.56006  -0.52568
 Alpha  occ. eigenvalues --   -0.47352  -0.46116  -0.43351  -0.41943  -0.40386
 Alpha  occ. eigenvalues --   -0.38140  -0.37583  -0.37047  -0.36006  -0.32597
 Alpha  occ. eigenvalues --   -0.32352  -0.30963  -0.30029  -0.26926
 Alpha virt. eigenvalues --    0.06939   0.09182   0.10566   0.13664   0.14291
 Alpha virt. eigenvalues --    0.15447   0.16552   0.17667   0.18660   0.19250
 Alpha virt. eigenvalues --    0.20962   0.22088   0.22862   0.23494   0.25012

 Mulliken charges:
               1
     1  C   -0.324435
     2  C    0.011596
     3  C   -0.300371
     4  C   -0.299000
     5  C    0.384561
     6  O   -0.539523
     7  O   -0.542386
     8  H    0.103081
     9  H    0.083079
    10  H    0.123129
    11  H    0.093790
    12  H    0.092264
    13  H    0.121461
    14  H    0.110671
    15  H    0.095225
    16  H    0.095835
    17  H    0.081988
    18  H    0.306584
    19  H    0.302451
 Sum of Mulliken charges =  -0.00000

 Dipole moment (field-independent basis, Debye):
    X=              0.2246    Y=              0.1414    Z=              0.3263  Tot=              0.4207
 Quadrupole moment (field-independent basis, Debye-Ang):
   XX=            -41.5357   YY=            -47.8466   ZZ=            -42.9188
   XY=              1.9014   XZ=              0.3766   YZ=             -2.5641

  Exact polarizability:  63.296   0.520  59.681   0.184  -0.783  59.768
 Approx polarizability:  83.819  -0.421  82.907  -0.360  -0.231  83.402

                      1                      2                      3
                      A                      A                      A
 Frequencies --     92.3455               209.1891               244.2370
 Red. masses --      3.6780                 1.0840                 1.6821
 Frc consts  --      0.0185                 0.0279                 0.0591
 IR Inten    --      0.0366                 0.1350                 0.1864

                      4                      5                      6
                      A                      A                      A
 Frequencies --    247.7071               255.8105               285.9850
 Red. masses --      1.2589                 1.3667                 1.9472
 Frc consts  --      0.0455                 0.0527                 0.0938
 IR Inten    --      0.9145                 2.4666                 0.3074

                      7                      8                      9
                      A                      A                      A
 Frequencies --    320.4147               342.1477               349.8537
 Red. masses --      1.1680                 2.6061                 2.4485
 Frc consts  --      0.0707                 0.1798                 0.1766
 IR Inten    --    117.7119                 7.5551                 3.8261

                     10                     11                     12
                      A                      A                      A
 Frequencies --    387.0833               411.7484               492.5285
 Red. masses --      2.0411                 1.3619                 3.5354
 Frc consts  --      0.1802                 0.1360                 0.5053
 IR Inten    --      9.2880                39.3416                 4.5898

                     13                     14                     15
                      A                      A                      A
 Frequencies --    538.6364               620.4708               748.8799
 Red. masses --      2.2798                 3.6577                 3.0084
 Frc consts  --      0.3897                 0.8297                 0.9940
 IR Inten    --     62.5132                28.6535                13.6794

                     16                     17                     18
                      A                      A                      A
 Frequencies --    882.8641               944.3166               945.4378
 Red. masses --      2.1348                 1.6476                 1.6402
 Frc consts  --      0.9804                 0.8657                 0.8638
 IR Inten    --     11.6905                 1.4941                 1.7039

                     19                     20                     21
                      A                      A                      A
 Frequencies --    966.0867              1029.5798              1034.5179
 Red. masses --      1.2039                 1.7298                 1.7591
 Frc consts  --      0.6620                 1.0804                 1.1092
 IR Inten    --      0.0223                52.2684                28.0786

                     22                     23                     24
                      A                      A                      A
 Frequencies --   1060.7441              1094.9128              1194.1601
 Red. masses --      2.2949                 3.3036                 1.4164
 Frc consts  --      1.5213                 2.3334                 1.1900
 IR Inten    --    115.3693                95.2165                59.8555

                     25                     26                     27
                      A                      A                      A
 Frequencies --   1244.8469              1274.0270              1303.1938
 Red. masses --      2.1184                 2.3247                 1.5664
 Frc consts  --      1.9341                 2.2232                 1.5674
 IR Inten    --      3.2666                 7.8220                11.8249

                     28                     29                     30
                      A                      A                      A
 Frequencies --   1313.4207              1403.8603              1411.1057
 Red. masses --      1.8970                 1.2568                 1.2408
 Frc consts  --      1.9281                 1.4594                 1.4557
 IR Inten    --     17.9181                 4.0599                 5.0557

                     31                     32                     33
                      A                      A                      A
 Frequencies --   1419.0904              1435.1312              1462.2025
 Red. masses --      1.3216                 1.1907                 1.3587
 Frc consts  --      1.5681                 1.4449                 1.7116
 IR Inten    --      3.0606                25.4100                46.5550

                     34                     35                     36
                      A                      A                      A
 Frequencies --   1492.9703              1504.5563              1506.0118
 Red. masses --      1.0490                 1.0457                 1.0454
 Frc consts  --      1.3776                 1.3946                 1.3969
 IR Inten    --      0.1002                 0.6725                 0.1998

                     37                     38                     39
                      A                      A                      A
 Frequencies --   1515.4320              1519.4985              1538.4479
 Red. masses --      1.0579                 1.0544                 1.0745
 Frc consts  --      1.4314                 1.4343                 1.4983
 IR Inten    --      4.4356                 5.9953                17.3619

                     40                     41                     42
                      A                      A                      A
 Frequencies --   3016.5505              3033.9423              3036.7809
 Red. masses --      1.0845                 1.0397                 1.0373
 Frc consts  --      5.8145                 5.6389                 5.6362
 IR Inten    --     47.0958                41.9846                16.7459

                     43                     44                     45
                      A                      A                      A
 Frequencies --   3044.4072              3098.5199              3100.1422
 Red. masses --      1.0395                 1.0988                 1.1000
 Frc consts  --      5.6764                 6.2157                 6.2286
 IR Inten    --     25.6411                12.3116                15.1234

                     46                     47                     48
                      A                      A                      A
 Frequencies --   3107.0128              3131.2566              3133.9323
 Red. masses --      1.1004                 1.1011                 1.1018
 Frc consts  --      6.2588                 6.3609                 6.3757
 IR Inten    --     67.1943                25.5720                 6.1263

                     49                     50                     51
                      A                      A                      A
 Frequencies --   3139.4085              3787.8552              3807.4191
 Red. masses --      1.1002                 1.0649                 1.0659
 Frc consts  --      6.3886                 9.0023                 9.1035
 IR Inten    --     30.8737                13.6915                23.1090

 - Thermochemistry -
 -------------------
 Temperature   298.150 Kelvin.  Pressure   1.00000 Atm.
 Atom     1 has atomic number  6 and mass  12.00000

 Molecular mass:   104.08373 amu.
 Principal axes and moments of inertia in atomic units:
                           1         2         3
     Eigenvalues --   572.49346 792.83935 944.66237
           X            0.99986   0.01410   0.00884
           Y           -0.01382   0.99945  -0.03030
           Z           -0.00926   0.03018   0.99950
 This molecule is an asymmetric top.
 Rotational symmetry number  1.
 Warning -- assumption of classical behavior for rotation
           may cause significant error
 Rotational temperatures (Kelvin)      0.15129     0.10925     0.09169
 Rotational constants (GHZ):           3.15242     2.27630     1.91046
 Zero-point vibrational energy     445493.4 (Joules/Mol)
                                  106.47548 (Kcal/Mol)
 Warning -- explicit consideration of  14 degrees of freedom as
           vibrations may cause significant error
 Vibrational temperatures:    132.86   300.98   351.40   356.39   368.05
          (Kelvin)            411.47   461.00   492.27   503.36   556.93
                              592.41   708.64   774.98   892.72  1077.47
                             1270.24  1358.66  1360.27  1389.98  1481.33
                             1488.44  1526.17  1575.33  1718.13  1791.05
                             1833.04  1875.00  1889.72  2019.84  2030.26
                             2041.75  2064.83  2103.78  2148.05  2164.72
                             2166.81  2180.37  2186.22  2213.48  4340.14
                             4365.16  4369.24  4380.22  4458.07  4460.41
                             4470.29  4505.17  4509.02  4516.90  5449.87
                             5478.02

 Zero-point correction=                           0.169679 (Hartree/Particle)
 Thermal correction to Energy=                    0.178563
 Thermal correction to Enthalpy=                  0.179507
 Thermal correction to Gibbs Free Energy=         0.137515
 Sum of electronic and zero-point Energies=           -348.055986
 Sum of electronic and thermal Energies=              -348.047102
 Sum of electronic and thermal Enthalpies=            -348.046158
 Sum of electronic and thermal Free Energies=         -348.088150

                     E (Thermal)             CV                S
                      KCal/Mol        Cal/Mol-Kelvin    Cal/Mol-Kelvin
 Total                  112.050             33.498             88.379
 Electronic               0.000              0.000              0.000
 Translational            0.889              2.981             39.837
 Rotational               0.889              2.981             27.552
 Vibrational            110.272             27.536             20.989
 Vibration     1          0.602              1.955              3.610
 Vibration     2          0.642              1.827              2.051
 Vibration     3          0.660              1.772              1.772
 Vibration     4          0.661              1.767              1.747
 Vibration     5          0.666              1.753              1.690
 Vibration     6          0.684              1.700              1.498
 Vibration     7          0.706              1.634              1.308
 Vibration     8          0.721              1.591              1.202
 Vibration     9          0.727              1.576              1.167
 Vibration    10          0.756              1.498              1.011
 Vibration    11          0.776              1.445              0.920
 Vibration    12          0.848              1.267              0.677
 Vibration    13          0.894              1.165              0.568
 Vibration    14          0.981              0.989              0.416

 Optimization completed.
    -- Stationary point found.
 Normal termination of Gaussian 09 at Thu Sep  8 15:07:17 2022.
