 Gaussian 09, Revision E.01,
 Gaussian 09:  ES64L-G09RevE.01 30-Nov-2015

 ----------------------------
 #P OPT Freq B3LYP/6-31G(d,p)
 ----------------------------

 --------
 Frag_539
 --------
 Symbolic Z-matrix:
 Charge =  0 Multiplicity = 1

 SCF Done:  E(RB3LYP) =  -348.220479176     A.U. after   12 cycles
 SCF Done:  E(RB3LYP) =  -348.220516804     A.U. after   10 cycles
 SCF Done:  E(RB3LYP) =  -348.220509346     A.U. after    9 cycles
 SCF Done:  E(RB3LYP) =  -348.220539995     A.U. after    9 cycles
 SCF Done:  E(RB3LYP) =  -348.220541788     A.U. after    7 cycles
 SCF Done:  E(RB3LYP) =  -348.220543154     A.U. after    7 cycles
 SCF Done:  E(RB3LYP) =  -348.220543505     A.U. after    7 cycles
 SCF Done:  E(RB3LYP) =  -348.220543613     A.U. after    7 cycles
 Optimization completed.
    -- Stationary point found.
 Normal termination of Gaussian 09 at Thu Sep  8 15:02:19 2022.

 ----------------------------------------------------------------------
 #P Geom=AllCheck Guess=TCheck SCRF=Check GenChk RB3LYP/6-31G(d,p) Freq
 ----------------------------------------------------------------------

 Structure from the checkpoint file:  "B3LYP6-31Gdp.Frag_539.chk"
 --------
 Frag_539
 --------
 Charge =  0 Multiplicity = 1

                         Standard orientation:
 ---------------------------------------------------------------------
 Center     Atomic      Atomic             Coordinates (Angstroms)
 Number     Number       Type             X           Y           Z
 ---------------------------------------------------------------------
      1          6           0        1.672379    1.195711    0.084593
      2          6           0        0.843323    0.028938   -0.446460
      3          8           0        1.393105   -1.225161   -0.001287
      4          6           0       -0.644768   -0.007713   -0.015320
      5          6           0       -0.803754   -0.054205    1.513312
      6          6           0       -1.426930    1.160222   -0.618209
      7          8           0       -1.213388   -1.190179   -0.588669
      8          1           0        2.697969    1.136659   -0.297605
      9          1           0        1.261048    2.158302   -0.233264
     10          1           0        1.720987    1.177061    1.176466
     11          1           0        0.840911    0.051443   -1.546928
     12          1           0        2.234420   -1.363796   -0.453241
     13          1           0       -1.857272   -0.216300    1.756756
     14          1           0       -0.219738   -0.877117    1.934573
     15          1           0       -0.480274    0.876009    1.991866
     16          1           0       -2.492345    1.020696   -0.415033
     17          1           0       -1.120096    2.119651   -0.192526
     18          1           0       -1.294373    1.194967   -1.703994
     19          1           0       -0.570475   -1.892573   -0.404917
 ---------------------------------------------------------------------

 SCF Done:  E(RB3LYP) =  -348.220543613     A.U. after    1 cycles

 The electronic state is 1-A.
 Alpha  occ. eigenvalues --  -19.15430 -19.12204 -10.23634 -10.23324 -10.18149
 Alpha  occ. eigenvalues --  -10.16929 -10.16378  -1.03087  -0.99379  -0.78492
 Alpha  occ. eigenvalues --   -0.72802  -0.68289  -0.63851  -0.54936  -0.51785
 Alpha  occ. eigenvalues --   -0.48914  -0.44912  -0.43072  -0.41376  -0.40271
 Alpha  occ. eigenvalues --   -0.38636  -0.38020  -0.37427  -0.35546  -0.34734
 Alpha  occ. eigenvalues --   -0.33045  -0.30601  -0.27892  -0.25147
 Alpha virt. eigenvalues --    0.05931   0.10141   0.11855   0.13120   0.14438
 Alpha virt. eigenvalues --    0.15328   0.16218   0.16733   0.17955   0.18142
 Alpha virt. eigenvalues --    0.21320   0.21789   0.22389   0.24075   0.25041

 Mulliken charges:
               1
     1  C   -0.326862
     2  C    0.157512
     3  O   -0.563270
     4  C    0.270544
     5  C   -0.317469
     6  C   -0.308792
     7  O   -0.568606
     8  H    0.092793
     9  H    0.109006
    10  H    0.121136
    11  H    0.081362
    12  H    0.309808
    13  H    0.109340
    14  H    0.114230
    15  H    0.090536
    16  H    0.116932
    17  H    0.096040
    18  H    0.104841
    19  H    0.310919
 Sum of Mulliken charges =  -0.00000

 Dipole moment (field-independent basis, Debye):
    X=              2.3289    Y=              0.9222    Z=             -0.2665  Tot=              2.5190
 Quadrupole moment (field-independent basis, Debye-Ang):
   XX=            -42.7254   YY=            -43.6404   ZZ=            -45.0050
   XY=             -3.0407   XZ=             -3.6733   YZ=              0.3332

  Exact polarizability:  65.362  -1.106  60.946  -1.076  -0.399  57.075
 Approx polarizability:  85.094  -1.358  85.579  -0.111   0.299  79.244

                      1                      2                      3
                      A                      A                      A
 Frequencies --     99.0094               208.3986               242.7658
 Red. masses --      2.8280                 1.0429                 1.3927
 Frc consts  --      0.0163                 0.0267                 0.0484
 IR Inten    --      1.2451                 0.1872                 0.6554

                      4                      5                      6
                      A                      A                      A
 Frequencies --    248.6140               258.1424               266.9403
 Red. masses --      1.3193                 1.4073                 1.3271
 Frc consts  --      0.0480                 0.0553                 0.0557
 IR Inten    --     50.0481                 2.6290                28.0237

                      7                      8                      9
                      A                      A                      A
 Frequencies --    282.4566               354.9807               357.8106
 Red. masses --      1.8407                 2.4021                 3.2667
 Frc consts  --      0.0865                 0.1783                 0.2464
 IR Inten    --     16.0666                 3.0600                12.7363

                     10                     11                     12
                      A                      A                      A
 Frequencies --    417.3746               452.6426               490.2034
 Red. masses --      3.0512                 2.1810                 1.3683
 Frc consts  --      0.3132                 0.2633                 0.1937
 IR Inten    --      1.3588                 2.4423                85.8430

                     13                     14                     15
                      A                      A                      A
 Frequencies --    512.4371               572.7269               722.2141
 Red. masses --      2.7722                 2.8014                 2.8403
 Frc consts  --      0.4289                 0.5414                 0.8729
 IR Inten    --     34.3261                24.2158                 2.1524

                     16                     17                     18
                      A                      A                      A
 Frequencies --    873.1602               918.1023               936.1450
 Red. masses --      2.2268                 2.0235                 1.5370
 Frc consts  --      1.0003                 1.0049                 0.7936
 IR Inten    --      2.4500                27.6163                 1.4618

                     19                     20                     21
                      A                      A                      A
 Frequencies --    967.6020              1008.7980              1040.1794
 Red. masses --      1.9347                 1.3923                 1.4496
 Frc consts  --      1.0672                 0.8348                 0.9241
 IR Inten    --     24.3028                 8.7994                11.3039

                     22                     23                     24
                      A                      A                      A
 Frequencies --   1107.4978              1115.7156              1159.0505
 Red. masses --      3.0054                 1.8505                 1.7412
 Frc consts  --      2.1719                 1.3572                 1.3782
 IR Inten    --     50.9695                59.9843                20.6221

                     25                     26                     27
                      A                      A                      A
 Frequencies --   1195.7117              1222.7925              1296.4591
 Red. masses --      1.4485                 2.6187                 1.8523
 Frc consts  --      1.2202                 2.3070                 1.8343
 IR Inten    --     38.0011                60.0046                17.5150

                     28                     29                     30
                      A                      A                      A
 Frequencies --   1370.2708              1394.3083              1405.3269
 Red. masses --      1.3767                 1.2646                 1.2965
 Frc consts  --      1.5230                 1.4485                 1.5086
 IR Inten    --     27.5937                42.5009                 2.1796

                     31                     32                     33
                      A                      A                      A
 Frequencies --   1420.1822              1425.5014              1437.0718
 Red. masses --      1.4105                 1.4173                 1.2940
 Frc consts  --      1.6761                 1.6969                 1.5745
 IR Inten    --      8.8150                40.3826                16.0491

                     34                     35                     36
                      A                      A                      A
 Frequencies --   1493.2284              1501.7161              1508.4512
 Red. masses --      1.0487                 1.0562                 1.0670
 Frc consts  --      1.3777                 1.4034                 1.4305
 IR Inten    --      1.3748                 3.5135                 3.6044

                     37                     38                     39
                      A                      A                      A
 Frequencies --   1513.8339              1519.6250              1525.3106
 Red. masses --      1.0500                 1.0683                 1.0744
 Frc consts  --      1.4177                 1.4536                 1.4728
 IR Inten    --      2.0520                 6.0126                 1.7914

                     40                     41                     42
                      A                      A                      A
 Frequencies --   3002.1179              3046.1956              3049.8317
 Red. masses --      1.0845                 1.0387                 1.0355
 Frc consts  --      5.7590                 5.6786                 5.6750
 IR Inten    --     44.8817                19.3428                18.2576

                     43                     44                     45
                      A                      A                      A
 Frequencies --   3056.1501              3111.2664              3121.9487
 Red. masses --      1.0362                 1.0982                 1.1012
 Frc consts  --      5.7020                 6.2634                 6.3237
 IR Inten    --     12.0295                27.2803                17.7881

                     46                     47                     48
                      A                      A                      A
 Frequencies --   3128.3473              3135.0202              3137.8493
 Red. masses --      1.1024                 1.1024                 1.1030
 Frc consts  --      6.3567                 6.3835                 6.3989
 IR Inten    --     25.4944                29.2972                28.8021

                     49                     50                     51
                      A                      A                      A
 Frequencies --   3140.2886              3763.7128              3832.5443
 Red. masses --      1.1025                 1.0650                 1.0668
 Frc consts  --      6.4058                 8.8886                 9.2321
 IR Inten    --     19.1150                38.0916                21.7063

 - Thermochemistry -
 -------------------
 Temperature   298.150 Kelvin.  Pressure   1.00000 Atm.
 Atom     1 has atomic number  6 and mass  12.00000

 Molecular mass:   104.08373 amu.
 Principal axes and moments of inertia in atomic units:
                           1         2         3
     Eigenvalues --   569.93183 797.05494 950.45055
           X            0.99974  -0.00676  -0.02158
           Y            0.00613   0.99956  -0.02906
           Z            0.02177   0.02892   0.99934
 This molecule is an asymmetric top.
 Rotational symmetry number  1.
 Warning -- assumption of classical behavior for rotation
           may cause significant error
 Rotational temperatures (Kelvin)      0.15197     0.10867     0.09113
 Rotational constants (GHZ):           3.16659     2.26426     1.89883
 Zero-point vibrational energy     444819.6 (Joules/Mol)
                                  106.31444 (Kcal/Mol)
 Warning -- explicit consideration of  14 degrees of freedom as
           vibrations may cause significant error
 Vibrational temperatures:    142.45   299.84   349.29   357.70   371.41
          (Kelvin)            384.07   406.39   510.74   514.81   600.51
                              651.25   705.29   737.28   824.03  1039.10
                             1256.28  1320.94  1346.90  1392.16  1451.43
                             1496.58  1593.44  1605.26  1667.61  1720.36
                             1759.32  1865.31  1971.51  2006.10  2021.95
                             2043.32  2050.98  2067.62  2148.42  2160.63
                             2170.32  2178.07  2186.40  2194.58  4319.37
                             4382.79  4388.02  4397.11  4476.41  4491.78
                             4500.99  4510.59  4514.66  4518.17  5415.14
                             5514.17

 Zero-point correction=                           0.169423 (Hartree/Particle)
 Thermal correction to Energy=                    0.178343
 Thermal correction to Enthalpy=                  0.179288
 Thermal correction to Gibbs Free Energy=         0.137265
 Sum of electronic and zero-point Energies=           -348.051121
 Sum of electronic and thermal Energies=              -348.042200
 Sum of electronic and thermal Enthalpies=            -348.041256
 Sum of electronic and thermal Free Energies=         -348.083279

                     E (Thermal)             CV                S
                      KCal/Mol        Cal/Mol-Kelvin    Cal/Mol-Kelvin
 Total                  111.912             33.709             88.445
 Electronic               0.000              0.000              0.000
 Translational            0.889              2.981             39.837
 Rotational               0.889              2.981             27.559
 Vibrational            110.135             27.747             21.048
 Vibration     1          0.604              1.950              3.474
 Vibration     2          0.642              1.828              2.058
 Vibration     3          0.659              1.775              1.783
 Vibration     4          0.662              1.765              1.740
 Vibration     5          0.667              1.749              1.674
 Vibration     6          0.672              1.734              1.616
 Vibration     7          0.681              1.706              1.519
 Vibration     8          0.731              1.565              1.144
 Vibration     9          0.733              1.559              1.132
 Vibration    10          0.780              1.432              0.901
 Vibration    11          0.811              1.355              0.788
 Vibration    12          0.846              1.272              0.683
 Vibration    13          0.868              1.222              0.628
 Vibration    14          0.929              1.090              0.499

 Optimization completed.
    -- Stationary point found.
 Normal termination of Gaussian 09 at Thu Sep  8 15:02:39 2022.
