 Gaussian 09, Revision E.01,
 Gaussian 09:  ES64L-G09RevE.01 30-Nov-2015

 ----------------------------
 #P OPT Freq B3LYP/6-31G(d,p)
 ----------------------------

 --------
 Frag_755
 --------
 Symbolic Z-matrix:
 Charge =  0 Multiplicity = 1

 SCF Done:  E(RB3LYP) =  -172.030501637     A.U. after   13 cycles
 SCF Done:  E(RB3LYP) =  -172.030584871     A.U. after   11 cycles
 SCF Done:  E(RB3LYP) =  -172.030482846     A.U. after   12 cycles
 SCF Done:  E(RB3LYP) =  -172.030598462     A.U. after    7 cycles
 SCF Done:  E(RB3LYP) =  -172.030584769     A.U. after   11 cycles
 SCF Done:  E(RB3LYP) =  -172.030574597     A.U. after   11 cycles
 SCF Done:  E(RB3LYP) =  -172.030606153     A.U. after   11 cycles
 SCF Done:  E(RB3LYP) =  -172.030606906     A.U. after    8 cycles
 Optimization completed.
    -- Stationary point found.
 Normal termination of Gaussian 09 at Thu Sep  8 15:18:07 2022.

 ----------------------------------------------------------------------
 #P Geom=AllCheck Guess=TCheck SCRF=Check GenChk RB3LYP/6-31G(d,p) Freq
 ----------------------------------------------------------------------

 Structure from the checkpoint file:  "B3LYP6-31Gdp.Frag_755.chk"
 --------
 Frag_755
 --------
 Charge =  0 Multiplicity = 1

                         Standard orientation:
 ---------------------------------------------------------------------
 Center     Atomic      Atomic             Coordinates (Angstroms)
 Number     Number       Type             X           Y           Z
 ---------------------------------------------------------------------
      1          6           0        1.888309    0.189419   -0.000013
      2          6           0        0.622835   -0.169083    0.000020
      3          7           0       -0.528051   -0.584708    0.000037
      4          6           0       -1.694702    0.297336   -0.000024
      5          1           0        2.418433    0.339239    0.933112
      6          1           0        2.418450    0.338966   -0.933174
      7          1           0       -2.301797    0.073070    0.881931
      8          1           0       -1.435566    1.362721   -0.000096
      9          1           0       -2.301814    0.072927   -0.881924
 ---------------------------------------------------------------------

 SCF Done:  E(RB3LYP) =  -172.030606906     A.U. after    1 cycles

 The electronic state is 1-A.
 Alpha  occ. eigenvalues --  -14.35008 -10.24324 -10.22442 -10.18188  -0.93693
 Alpha  occ. eigenvalues --   -0.75421  -0.69853  -0.51649  -0.47023  -0.45641
 Alpha  occ. eigenvalues --   -0.44339  -0.42867  -0.33887  -0.30525  -0.22330
 Alpha virt. eigenvalues --    0.00827   0.04292   0.11468   0.13239   0.16012
 Alpha virt. eigenvalues --    0.16369   0.18806   0.21463   0.30651   0.32644
 Alpha virt. eigenvalues --    0.50251   0.53030   0.53683   0.56545   0.61938

 Mulliken charges:
               1
     1  C   -0.375999
     2  C    0.423342
     3  N   -0.495356
     4  C   -0.194742
     5  H    0.131741
     6  H    0.131743
     7  H    0.133766
     8  H    0.111738
     9  H    0.133766
 Sum of Mulliken charges =   0.00000

 Dipole moment (field-independent basis, Debye):
    X=             -0.5749    Y=              1.3543    Z=             -0.0001  Tot=              1.4713
 Quadrupole moment (field-independent basis, Debye-Ang):
   XX=            -20.6778   YY=            -27.0131   ZZ=            -23.0673
   XY=             -0.4214   XZ=             -0.0000   YZ=              0.0005

  Exact polarizability:  66.259   5.803  24.484  -0.001   0.001  26.705
 Approx polarizability: 102.064  17.187  36.230  -0.001   0.001  35.363

                      1                      2                      3
                      A                      A                      A
 Frequencies --    143.2716               210.6929               380.5218
 Red. masses --      1.1495                 3.2629                 2.0639
 Frc consts  --      0.0139                 0.0853                 0.1761
 IR Inten    --      2.7316                 9.6243                 1.0630

                      4                      5                      6
                      A                      A                      A
 Frequencies --    562.7646               615.8083               706.0411
 Red. masses --      1.2418                 6.8699                 1.2597
 Frc consts  --      0.2317                 1.5349                 0.3700
 IR Inten    --      0.3299                15.9635                88.5990

                      7                      8                      9
                      A                      A                      A
 Frequencies --    893.4956              1005.6939              1137.2487
 Red. masses --      4.6135                 1.6167                 1.3309
 Frc consts  --      2.1700                 0.9634                 1.0141
 IR Inten    --     15.2405                 0.7515                 0.0118

                     10                     11                     12
                      A                      A                      A
 Frequencies --   1139.1695              1267.3290              1447.9519
 Red. masses --      1.4405                 2.2862                 1.1984
 Frc consts  --      1.1014                 2.1634                 1.4804
 IR Inten    --      2.2589                16.0023                11.5024

                     13                     14                     15
                      A                      A                      A
 Frequencies --   1472.3258              1502.0625              1511.5113
 Red. masses --      1.4291                 1.0424                 1.0779
 Frc consts  --      1.8253                 1.3857                 1.4509
 IR Inten    --     11.7398                 4.2608                15.4159

                     16                     17                     18
                      A                      A                      A
 Frequencies --   2155.9460              3030.2214              3112.6341
 Red. masses --     11.1136                 1.0354                 1.1019
 Frc consts  --     30.4355                 5.6016                 6.2901
 IR Inten    --    401.0911                54.9864                22.7004

                     19                     20                     21
                      A                      A                      A
 Frequencies --   3122.7357              3179.8920              3266.8027
 Red. masses --      1.1034                 1.0567                 1.1168
 Frc consts  --      6.3394                 6.2955                 7.0224
 IR Inten    --     16.9986                 3.1067                 0.0282

 - Thermochemistry -
 -------------------
 Temperature   298.150 Kelvin.  Pressure   1.00000 Atm.
 Atom     1 has atomic number  6 and mass  12.00000

 Molecular mass:    55.04220 amu.
 Principal axes and moments of inertia in atomic units:
                           1         2         3
     Eigenvalues --    42.74023 405.88726 424.89488
           X            0.99998  -0.00683  -0.00000
           Y            0.00683   0.99998   0.00004
           Z            0.00000  -0.00004   1.00000
 This molecule is an asymmetric top.
 Rotational symmetry number  1.
 Rotational temperatures (Kelvin)      2.02652     0.21339     0.20385
 Rotational constants (GHZ):          42.22581     4.44641     4.24750
 Zero-point vibrational energy     190589.8 (Joules/Mol)
                                   45.55205 (Kcal/Mol)
 Warning -- explicit consideration of   5 degrees of freedom as
           vibrations may cause significant error
 Vibrational temperatures:    206.14   303.14   547.49   809.69   886.01
          (Kelvin)           1015.83  1285.54  1446.97  1636.25  1639.01
                             1823.40  2083.28  2118.35  2161.13  2174.72
                             3101.92  4359.81  4478.38  4492.91  4575.15
                             4700.19

 Zero-point correction=                           0.072592 (Hartree/Particle)
 Thermal correction to Energy=                    0.077564
 Thermal correction to Enthalpy=                  0.078508
 Thermal correction to Gibbs Free Energy=         0.045747
 Sum of electronic and zero-point Energies=           -171.958015
 Sum of electronic and thermal Energies=              -171.953043
 Sum of electronic and thermal Enthalpies=            -171.952098
 Sum of electronic and thermal Free Energies=         -171.984860

                     E (Thermal)             CV                S
                      KCal/Mol        Cal/Mol-Kelvin    Cal/Mol-Kelvin
 Total                   48.672             16.004             68.952
 Electronic               0.000              0.000              0.000
 Translational            0.889              2.981             37.938
 Rotational               0.889              2.981             23.515
 Vibrational             46.895             10.042              7.499
 Vibration     1          0.616              1.910              2.760
 Vibration     2          0.643              1.825              2.038
 Vibration     3          0.750              1.512              1.037
 Vibration     4          0.919              1.112              0.518
 Vibration     5          0.975              0.998              0.423

 Normal termination of Gaussian 09 at Thu Sep  8 15:18:13 2022.
