 Gaussian 09, Revision E.01,
 Gaussian 09:  ES64L-G09RevE.01 30-Nov-2015

 ----------------------------
 #P OPT Freq B3LYP/6-31G(d,p)
 ----------------------------

 --------
 Frag_739
 --------
 Symbolic Z-matrix:
 Charge =  0 Multiplicity = 1

 SCF Done:  E(RB3LYP) =  -301.233962699     A.U. after   13 cycles
 SCF Done:  E(RB3LYP) =  -301.234004136     A.U. after   10 cycles
 SCF Done:  E(RB3LYP) =  -301.234008859     A.U. after    9 cycles
 SCF Done:  E(RB3LYP) =  -301.234010932     A.U. after    7 cycles
 SCF Done:  E(RB3LYP) =  -301.234012284     A.U. after    7 cycles
 SCF Done:  E(RB3LYP) =  -301.234012943     A.U. after    7 cycles
 SCF Done:  E(RB3LYP) =  -301.234013997     A.U. after    7 cycles
 SCF Done:  E(RB3LYP) =  -301.234014850     A.U. after    7 cycles
 SCF Done:  E(RB3LYP) =  -301.234015167     A.U. after    7 cycles
 SCF Done:  E(RB3LYP) =  -301.234015277     A.U. after    6 cycles
 Optimization completed.
    -- Stationary point found.
 Normal termination of Gaussian 09 at Thu Sep  8 15:16:57 2022.

 ----------------------------------------------------------------------
 #P Geom=AllCheck Guess=TCheck SCRF=Check GenChk RB3LYP/6-31G(d,p) Freq
 ----------------------------------------------------------------------

 Structure from the checkpoint file:  "B3LYP6-31Gdp.Frag_739.chk"
 --------
 Frag_739
 --------
 Charge =  0 Multiplicity = 1

                         Standard orientation:
 ---------------------------------------------------------------------
 Center     Atomic      Atomic             Coordinates (Angstroms)
 Number     Number       Type             X           Y           Z
 ---------------------------------------------------------------------
      1          7           0        1.693793   -0.772202   -0.246104
      2          6           0        0.716232    0.290965   -0.401382
      3          7           0        1.019924    1.278478    0.631144
      4          6           0       -0.725889   -0.312015   -0.395547
      5          7           0       -1.790981    0.697483   -0.312038
      6          7           0       -0.864277   -1.325134    0.636463
      7          1           0        1.419501   -1.607783   -0.751659
      8          1           0        2.607158   -0.466990   -0.567027
      9          1           0        0.792382    0.838187   -1.360555
     10          1           0        0.995098    0.846619    1.551748
     11          1           0        0.369246    2.059044    0.607537
     12          1           0       -0.865668   -0.801795   -1.371587
     13          1           0       -1.772618    1.307738   -1.128805
     14          1           0       -1.636924    1.289064    0.504291
     15          1           0       -0.406350   -1.035338    1.496487
     16          1           0       -1.853099   -1.452824    0.834884
 ---------------------------------------------------------------------

 SCF Done:  E(RB3LYP) =  -301.234015277     A.U. after    1 cycles

 The electronic state is 1-A.
 Alpha  occ. eigenvalues --  -14.31554 -14.31325 -14.30766 -14.30485 -10.23522
 Alpha  occ. eigenvalues --  -10.23175  -0.93176  -0.88736  -0.83842  -0.82524
 Alpha  occ. eigenvalues --   -0.66838  -0.58267  -0.51666  -0.50389  -0.49057
 Alpha  occ. eigenvalues --   -0.45705  -0.43786  -0.42230  -0.39966  -0.37743
 Alpha  occ. eigenvalues --   -0.36391  -0.25886  -0.23790  -0.23610  -0.22316
 Alpha virt. eigenvalues --    0.05976   0.09393   0.09738   0.12372   0.14592
 Alpha virt. eigenvalues --    0.15294   0.16697   0.18688   0.19773   0.21157
 Alpha virt. eigenvalues --    0.22155   0.24059   0.27731   0.29703   0.32269

 Mulliken charges:
               1
     1  N   -0.586938
     2  C    0.158001
     3  N   -0.576244
     4  C    0.158180
     5  N   -0.587148
     6  N   -0.587113
     7  H    0.250002
     8  H    0.244612
     9  H    0.066797
    10  H    0.236000
    11  H    0.217900
    12  H    0.090572
    13  H    0.228914
    14  H    0.211998
    15  H    0.230735
    16  H    0.243731
 Sum of Mulliken charges =  -0.00000

 Dipole moment (field-independent basis, Debye):
    X=             -0.3469    Y=              1.3438    Z=             -0.4177  Tot=              1.4493
 Quadrupole moment (field-independent basis, Debye-Ang):
   XX=            -41.8153   YY=            -38.7504   ZZ=            -33.0955
   XY=             -2.9804   XZ=             -3.6058   YZ=              1.1726

  Exact polarizability:  52.663  -2.101  52.849   0.456  -0.482  48.955
 Approx polarizability:  68.686  -2.630  73.538   2.429  -0.924  70.249

                      1                      2                      3
                      A                      A                      A
 Frequencies --     80.8212               150.0270               250.2964
 Red. masses --      2.8966                 1.0620                 1.7065
 Frc consts  --      0.0111                 0.0141                 0.0630
 IR Inten    --      2.9287                74.1587                 1.9743

                      4                      5                      6
                      A                      A                      A
 Frequencies --    286.4410               304.4105               345.0770
 Red. masses --      1.2672                 2.3180                 1.4920
 Frc consts  --      0.0613                 0.1266                 0.1047
 IR Inten    --     40.3374                18.3461                 8.5239

                      7                      8                      9
                      A                      A                      A
 Frequencies --    356.5941               424.4044               493.7554
 Red. masses --      1.4010                 2.7524                 2.1851
 Frc consts  --      0.1050                 0.2921                 0.3139
 IR Inten    --     11.0500                25.6069                13.8014

                     10                     11                     12
                      A                      A                      A
 Frequencies --    519.9293               661.3508               759.5720
 Red. masses --      2.4459                 1.8577                 2.5131
 Frc consts  --      0.3896                 0.4787                 0.8543
 IR Inten    --     27.4426                39.2390                27.8686

                     13                     14                     15
                      A                      A                      A
 Frequencies --    810.1426               824.9954               850.9954
 Red. masses --      1.7849                 1.4487                 1.4502
 Frc consts  --      0.6902                 0.5809                 0.6188
 IR Inten    --    234.1238               215.7909               241.6564

                     16                     17                     18
                      A                      A                      A
 Frequencies --    903.9472               990.1606              1017.2701
 Red. masses --      1.4657                 2.2913                 1.8646
 Frc consts  --      0.7056                 1.3236                 1.1369
 IR Inten    --     76.9650                24.0467                12.3836

                     19                     20                     21
                      A                      A                      A
 Frequencies --   1105.5285              1108.1738              1195.7876
 Red. masses --      2.1971                 1.8481                 1.2996
 Frc consts  --      1.5821                 1.3372                 1.0948
 IR Inten    --     26.5547                16.7598                 7.5589

                     22                     23                     24
                      A                      A                      A
 Frequencies --   1223.6755              1261.6564              1291.5934
 Red. masses --      1.4430                 1.7091                 1.6276
 Frc consts  --      1.2730                 1.6029                 1.5997
 IR Inten    --     12.2045                 6.0981                 4.7399

                     25                     26                     27
                      A                      A                      A
 Frequencies --   1384.9524              1404.6615              1438.1073
 Red. masses --      1.3111                 1.4688                 1.3122
 Frc consts  --      1.4817                 1.7075                 1.5990
 IR Inten    --     24.8536                 4.4695                 4.3370

                     28                     29                     30
                      A                      A                      A
 Frequencies --   1441.8615              1630.2501              1644.1635
 Red. masses --      1.2838                 1.1162                 1.1055
 Frc consts  --      1.5725                 1.7478                 1.7607
 IR Inten    --     18.8915                43.0004                 7.9597

                     31                     32                     33
                      A                      A                      A
 Frequencies --   1651.7733              1660.2739              2922.1846
 Red. masses --      1.1065                 1.0970                 1.0830
 Frc consts  --      1.7787                 1.7816                 5.4489
 IR Inten    --     30.8496                48.2328                87.3580

                     34                     35                     36
                      A                      A                      A
 Frequencies --   3000.8414              3452.4896              3487.8245
 Red. masses --      1.0853                 1.0481                 1.0473
 Frc consts  --      5.7583                 7.3608                 7.5063
 IR Inten    --     67.7930                 5.3657                 2.5333

                     37                     38                     39
                      A                      A                      A
 Frequencies --   3501.2053              3521.1430              3549.9184
 Red. masses --      1.0480                 1.0486                 1.0925
 Frc consts  --      7.5694                 7.6599                 8.1117
 IR Inten    --      0.4529                 0.3399                 1.5136

                     40                     41                     42
                      A                      A                      A
 Frequencies --   3593.2645              3596.3276              3622.9342
 Red. masses --      1.0937                 1.0945                 1.0952
 Frc consts  --      8.3200                 8.3406                 8.4698
 IR Inten    --      1.8272                 0.4433                 2.0738

 - Thermochemistry -
 -------------------
 Temperature   298.150 Kelvin.  Pressure   1.00000 Atm.
 Atom     1 has atomic number  7 and mass  14.00307

 Molecular mass:    90.09055 amu.
 Principal axes and moments of inertia in atomic units:
                           1         2         3
     Eigenvalues --   391.90400 616.97144 800.33127
           X            0.99947  -0.02904  -0.01443
           Y            0.02916   0.99954   0.00837
           Z            0.01418  -0.00879   0.99986
 This molecule is an asymmetric top.
 Rotational symmetry number  1.
 Rotational temperatures (Kelvin)      0.22101     0.14039     0.10822
 Rotational constants (GHZ):           4.60506     2.92516     2.25499
 Zero-point vibrational energy     381134.9 (Joules/Mol)
                                   91.09343 (Kcal/Mol)
 Warning -- explicit consideration of  10 degrees of freedom as
           vibrations may cause significant error
 Vibrational temperatures:    116.28   215.86   360.12   412.12   437.98
          (Kelvin)            496.49   513.06   610.62   710.40   748.06
                              951.54  1092.85  1165.61  1186.98  1224.39
                             1300.58  1424.62  1463.62  1590.61  1594.41
                             1720.47  1760.59  1815.24  1858.31  1992.64
                             2020.99  2069.11  2074.51  2345.56  2365.58
                             2376.53  2388.76  4204.37  4317.54  4967.36
                             5018.20  5037.45  5066.13  5107.53  5169.90
                             5174.31  5212.59

 Zero-point correction=                           0.145167 (Hartree/Particle)
 Thermal correction to Energy=                    0.152900
 Thermal correction to Enthalpy=                  0.153844
 Thermal correction to Gibbs Free Energy=         0.114102
 Sum of electronic and zero-point Energies=           -301.088849
 Sum of electronic and thermal Energies=              -301.081115
 Sum of electronic and thermal Enthalpies=            -301.080171
 Sum of electronic and thermal Free Energies=         -301.119913

                     E (Thermal)             CV                S
                      KCal/Mol        Cal/Mol-Kelvin    Cal/Mol-Kelvin
 Total                   95.946             28.513             83.644
 Electronic               0.000              0.000              0.000
 Translational            0.889              2.981             39.407
 Rotational               0.889              2.981             26.762
 Vibrational             94.169             22.551             17.476
 Vibration     1          0.600              1.962              3.871
 Vibration     2          0.618              1.903              2.672
 Vibration     3          0.663              1.762              1.728
 Vibration     4          0.684              1.699              1.495
 Vibration     5          0.695              1.665              1.393
 Vibration     6          0.723              1.585              1.189
 Vibration     7          0.732              1.562              1.137
 Vibration     8          0.786              1.417              0.877
 Vibration     9          0.849              1.264              0.674
 Vibration    10          0.875              1.206              0.610

 Optimization completed.
    -- Stationary point found.
 Normal termination of Gaussian 09 at Thu Sep  8 15:17:11 2022.
