 Gaussian 09, Revision E.01,
 Gaussian 09:  ES64L-G09RevE.01 30-Nov-2015

 -------------------------
 #P OPT Freq B3LYP/6-31G**
 -------------------------

 --------
 Frag_251
 --------
 Symbolic Z-matrix:
 Charge =  0 Multiplicity = 1

 SCF Done:  E(RB3LYP) =  -232.453976146     A.U. after   12 cycles
 SCF Done:  E(RB3LYP) =  -232.459344621     A.U. after   11 cycles
 SCF Done:  E(RB3LYP) =  -232.459847970     A.U. after   10 cycles
 SCF Done:  E(RB3LYP) =  -232.460198414     A.U. after   10 cycles
 SCF Done:  E(RB3LYP) =  -232.460277460     A.U. after   10 cycles
 SCF Done:  E(RB3LYP) =  -232.460285345     A.U. after    9 cycles
 SCF Done:  E(RB3LYP) =  -232.460287979     A.U. after    7 cycles
 SCF Done:  E(RB3LYP) =  -232.460288244     A.U. after    7 cycles
 Optimization completed.
    -- Stationary point found.
 Normal termination of Gaussian 09 at Sat Aug 21 01:33:45 2021.

 ----------------------------------------------------------------------
 #P Geom=AllCheck Guess=TCheck SCRF=Check GenChk RB3LYP/6-31G(d,p) Freq
 ----------------------------------------------------------------------

 Structure from the checkpoint file:  "/public/home/users/caep010/.cache/gau_scr/Gau-114469.chk"
 --------
 Frag_251
 --------
 Charge =  0 Multiplicity = 1

                         Standard orientation:
 ---------------------------------------------------------------------
 Center     Atomic      Atomic             Coordinates (Angstroms)
 Number     Number       Type             X           Y           Z
 ---------------------------------------------------------------------
      1          6           0        0.733347    0.996265    0.227345
      2          6           0       -0.733343    0.996269   -0.227342
      3          6           0       -1.165648   -0.430286    0.131988
      4          8           0       -0.000001   -1.251979    0.000005
      5          6           0        1.165646   -0.430289   -0.131994
      6          1           0        1.343600    1.760635   -0.261791
      7          1           0        0.795694    1.153830    1.310054
      8          1           0       -1.343593    1.760638    0.261797
      9          1           0       -0.795688    1.153841   -1.310050
     10          1           0       -1.950322   -0.821447   -0.525686
     11          1           0       -1.535760   -0.480982    1.167560
     12          1           0        1.950326   -0.821454    0.525668
     13          1           0        1.535744   -0.480982   -1.167571
 ---------------------------------------------------------------------

 SCF Done:  E(RB3LYP) =  -232.460288244     A.U. after    1 cycles

 The electronic state is 1-A.
 Alpha  occ. eigenvalues --  -19.13243 -10.22438 -10.22437 -10.18738 -10.18717
 Alpha  occ. eigenvalues --   -1.01883  -0.78040  -0.73114  -0.59225  -0.58653
 Alpha  occ. eigenvalues --   -0.49598  -0.48499  -0.42372  -0.42275  -0.39832
 Alpha  occ. eigenvalues --   -0.35257  -0.34833  -0.33244  -0.30679  -0.23741
 Alpha virt. eigenvalues --    0.08754   0.11285   0.13470   0.14189   0.16003
 Alpha virt. eigenvalues --    0.16174   0.16896   0.18049   0.21073   0.21421
 Alpha virt. eigenvalues --    0.23925   0.26287   0.29579   0.51697   0.52624

 Mulliken charges:
               1
     1  C   -0.226442
     2  C   -0.226443
     3  C    0.088323
     4  O   -0.511189
     5  C    0.088323
     6  H    0.101764
     7  H    0.108378
     8  H    0.101764
     9  H    0.108378
    10  H    0.096267
    11  H    0.087306
    12  H    0.096268
    13  H    0.087305
 Sum of Mulliken charges =  -0.00000

 Dipole moment (field-independent basis, Debye):
    X=             -0.0000    Y=              1.7869    Z=             -0.0000  Tot=              1.7869
 Quadrupole moment (field-independent basis, Debye-Ang):
   XX=            -28.9639   YY=            -34.4228   ZZ=            -30.7976
   XY=             -0.0000   XZ=             -0.0833   YZ=              0.0000

  Exact polarizability:  49.309  -0.000  41.906  -0.719   0.000  41.115
 Approx polarizability:  63.159  -0.000  57.062  -1.139  -0.000  58.017

                      1                      2                      3
                      A                      A                      A
 Frequencies --     40.3703               256.7539               581.5272
 Red. masses --      2.3863                 1.5972                 1.7454
 Frc consts  --      0.0023                 0.0620                 0.3478
 IR Inten    --      4.3033                 0.0012                 0.8216

                      4                      5                      6
                      A                      A                      A
 Frequencies --    675.7483               847.7289               886.7462
 Red. masses --      3.2631                 1.6516                 1.9685
 Frc consts  --      0.8779                 0.6993                 0.9120
 IR Inten    --      3.4594                 5.4501                 4.8851

                      7                      8                      9
                      A                      A                      A
 Frequencies --    911.1407               921.0471               930.7255
 Red. masses --      1.7314                 4.0288                 2.3919
 Frc consts  --      0.8469                 2.0137                 1.2208
 IR Inten    --      7.7852                12.5719                11.7033

                     10                     11                     12
                      A                      A                      A
 Frequencies --    971.5210              1035.5389              1110.4620
 Red. masses --      1.3602                 1.7710                 6.3727
 Frc consts  --      0.7564                 1.1189                 4.6300
 IR Inten    --      0.5476                 4.7203               121.6229

                     13                     14                     15
                      A                      A                      A
 Frequencies --   1178.7571              1189.2318              1198.1706
 Red. masses --      1.7873                 1.2682                 1.4642
 Frc consts  --      1.4632                 1.0567                 1.2385
 IR Inten    --      0.0207                 7.2753                 6.4804

                     16                     17                     18
                      A                      A                      A
 Frequencies --   1263.7281              1263.8303              1323.1713
 Red. masses --      1.2485                 1.1676                 1.3723
 Frc consts  --      1.1747                 1.0988                 1.4156
 IR Inten    --      7.1337                 0.3041                 0.4585

                     19                     20                     21
                      A                      A                      A
 Frequencies --   1351.5439              1374.5093              1412.4817
 Red. masses --      1.2722                 1.3026                 1.3563
 Frc consts  --      1.3691                 1.4499                 1.5944
 IR Inten    --      0.1634                 1.5057                 6.2697

                     22                     23                     24
                      A                      A                      A
 Frequencies --   1501.8247              1511.9531              1538.5860
 Red. masses --      1.0915                 1.1061                 1.0874
 Frc consts  --      1.4505                 1.4898                 1.5167
 IR Inten    --      2.5429                 2.4489                 3.1780

                     25                     26                     27
                      A                      A                      A
 Frequencies --   1552.9003              2995.1929              3001.3560
 Red. masses --      1.0994                 1.0683                 1.0724
 Frc consts  --      1.5620                 5.6469                 5.6918
 IR Inten    --      0.0275               149.3831                 4.9016

                     28                     29                     30
                      A                      A                      A
 Frequencies --   3054.7566              3057.4526              3072.3242
 Red. masses --      1.0715                 1.0690                 1.0877
 Frc consts  --      5.8909                 5.8878                 6.0493
 IR Inten    --     22.6681                 2.7944               119.6551

                     31                     32                     33
                      A                      A                      A
 Frequencies --   3073.6452              3112.7599              3121.4663
 Red. masses --      1.0901                 1.1000                 1.1060
 Frc consts  --      6.0676                 6.2796                 6.3495
 IR Inten    --      1.3768                17.5189                51.9441

 - Thermochemistry -
 -------------------
 Temperature   298.150 Kelvin.  Pressure   1.00000 Atm.
 Atom     1 has atomic number  6 and mass  12.00000

 Molecular mass:    72.05751 amu.
 Principal axes and moments of inertia in atomic units:
                           1         2         3
     Eigenvalues --   255.02186 258.94857 452.83126
           X            0.00000   1.00000  -0.00282
           Y            1.00000  -0.00000   0.00000
           Z           -0.00000   0.00282   1.00000
 This molecule is an asymmetric top.
 Rotational symmetry number  1.
 Rotational temperatures (Kelvin)      0.33963     0.33448     0.19127
 Rotational constants (GHZ):           7.07681     6.96950     3.98546
 Zero-point vibrational energy     306955.5 (Joules/Mol)
                                   73.36412 (Kcal/Mol)
 Warning -- explicit consideration of   3 degrees of freedom as
           vibrations may cause significant error
 Vibrational temperatures:     58.08   369.41   836.69   972.25  1219.69
          (Kelvin)           1275.83  1310.93  1325.18  1339.10  1397.80
                             1489.91  1597.71  1695.97  1711.04  1723.90
                             1818.22  1818.37  1903.75  1944.57  1977.61
                             2032.24  2160.79  2175.36  2213.68  2234.27
                             4309.41  4318.28  4395.11  4398.99  4420.38
                             4422.28  4478.56  4491.09

 Zero-point correction=                           0.116913 (Hartree/Particle)
 Thermal correction to Energy=                    0.121871
 Thermal correction to Enthalpy=                  0.122816
 Thermal correction to Gibbs Free Energy=         0.088292
 Sum of electronic and zero-point Energies=           -232.343375
 Sum of electronic and thermal Energies=              -232.338417
 Sum of electronic and thermal Enthalpies=            -232.337473
 Sum of electronic and thermal Free Energies=         -232.371996

                     E (Thermal)             CV                S
                      KCal/Mol        Cal/Mol-Kelvin    Cal/Mol-Kelvin
 Total                   76.475             16.897             72.661
 Electronic               0.000              0.000              0.000
 Translational            0.889              2.981             38.741
 Rotational               0.889              2.981             24.906
 Vibrational             74.698             10.935              9.013
 Vibration     1          0.594              1.981              5.241
 Vibration     2          0.666              1.751              1.684
 Vibration     3          0.938              1.071              0.483

 Optimization completed.
    -- Stationary point found.
 Normal termination of Gaussian 09 at Sat Aug 21 01:33:55 2021.
