 Gaussian 09, Revision E.01,
 Gaussian 09:  ES64L-G09RevE.01 30-Nov-2015

 --------------------------------
 #P OPT=calcfc Freq B3LYP/6-31G**
 --------------------------------

 --------
 Frag_344
 --------
 Symbolic Z-matrix:
 Charge =  0 Multiplicity = 1

 SCF Done:  E(RB3LYP) =  -319.827546853     A.U. after   14 cycles
 SCF Done:  E(RB3LYP) =  -319.854481339     A.U. after   14 cycles
 SCF Done:  E(RB3LYP) =  -319.840029660     A.U. after   13 cycles
 SCF Done:  E(RB3LYP) =  -319.854782521     A.U. after   10 cycles
 SCF Done:  E(RB3LYP) =  -319.859280364     A.U. after   12 cycles
 SCF Done:  E(RB3LYP) =  -319.872962978     A.U. after   14 cycles
 SCF Done:  E(RB3LYP) =  -319.873219975     A.U. after   14 cycles
 SCF Done:  E(RB3LYP) =  -319.875228324     A.U. after   13 cycles
 SCF Done:  E(RB3LYP) =  -319.879103318     A.U. after   11 cycles
 SCF Done:  E(RB3LYP) =  -319.866394876     A.U. after   13 cycles
 SCF Done:  E(RB3LYP) =  -319.883972658     A.U. after   10 cycles
 SCF Done:  E(RB3LYP) =  -319.883986816     A.U. after   10 cycles
 SCF Done:  E(RB3LYP) =  -319.883992107     A.U. after    8 cycles
 SCF Done:  E(RB3LYP) =  -319.883994813     A.U. after    8 cycles
 SCF Done:  E(RB3LYP) =  -319.883996464     A.U. after    8 cycles
 SCF Done:  E(RB3LYP) =  -319.883997199     A.U. after    8 cycles
 SCF Done:  E(RB3LYP) =  -319.883998118     A.U. after    8 cycles
 SCF Done:  E(RB3LYP) =  -319.883998847     A.U. after    8 cycles
 SCF Done:  E(RB3LYP) =  -319.883998869     A.U. after    7 cycles
 Optimization completed.
    -- Stationary point found.
 Normal termination of Gaussian 09 at Fri Sep 10 20:12:11 2021.

 ----------------------------------------------------------------------
 #P Geom=AllCheck Guess=TCheck SCRF=Check GenChk RB3LYP/6-31G(d,p) Freq
 ----------------------------------------------------------------------

 Structure from the checkpoint file:  "/public/home/users/caep010/.cache/gau_scr/Gau-53163.chk"
 --------
 Frag_344
 --------
 Charge =  0 Multiplicity = 1

                         Standard orientation:
 ---------------------------------------------------------------------
 Center     Atomic      Atomic             Coordinates (Angstroms)
 Number     Number       Type             X           Y           Z
 ---------------------------------------------------------------------
      1          7           0       -1.413810    1.232077    0.056775
      2          6           0       -0.672580    0.028276   -0.001543
      3          7           0       -1.495220   -1.115562   -0.051526
      4          6           0        0.672538   -0.034903   -0.008104
      5          7           0        1.572904    1.052911    0.070707
      6          8           0        1.279563   -1.286065   -0.093646
      7          1           0       -2.177526    1.198354   -0.615059
      8          1           0       -0.833096    2.036639   -0.152783
      9          1           0       -0.926054   -1.954026   -0.009226
     10          1           0       -2.168215   -1.115514    0.712018
     11          1           0        1.269330    1.805680    0.674877
     12          1           0        1.898042    1.418122   -0.821472
     13          1           0        2.054153   -1.246962    0.487007
 ---------------------------------------------------------------------

 SCF Done:  E(RB3LYP) =  -319.883998869     A.U. after    1 cycles

 The electronic state is 1-A.
 Alpha  occ. eigenvalues --  -19.14458 -14.32908 -14.32640 -14.31674 -10.22588
 Alpha  occ. eigenvalues --  -10.22263  -1.02495  -0.92485  -0.87608  -0.84365
 Alpha  occ. eigenvalues --   -0.68308  -0.56181  -0.52507  -0.52315  -0.48402
 Alpha  occ. eigenvalues --   -0.47030  -0.42872  -0.42112  -0.38745  -0.34591
 Alpha  occ. eigenvalues --   -0.30414  -0.26357  -0.25024  -0.16056
 Alpha virt. eigenvalues --    0.06198   0.07596   0.10319   0.10863   0.14536
 Alpha virt. eigenvalues --    0.15796   0.16951   0.18428   0.23361   0.28707
 Alpha virt. eigenvalues --    0.29494   0.43927   0.48546   0.57178   0.58651

 Mulliken charges:
               1
     1  N   -0.644253
     2  C    0.361036
     3  N   -0.643968
     4  C    0.359504
     5  N   -0.674456
     6  O   -0.569120
     7  H    0.254518
     8  H    0.230151
     9  H    0.267773
    10  H    0.248485
    11  H    0.253144
    12  H    0.252488
    13  H    0.304697
 Sum of Mulliken charges =  -0.00000

 Dipole moment (field-independent basis, Debye):
    X=              0.2977    Y=              1.7206    Z=              0.3887  Tot=              1.7889
 Quadrupole moment (field-independent basis, Debye-Ang):
   XX=            -34.1457   YY=            -30.5713   ZZ=            -36.0459
   XY=              1.2063   XZ=              0.2670   YZ=             -5.1001

  Exact polarizability:  65.885   0.727  49.837  -0.415  -1.405  27.603
 Approx polarizability: 100.273  -1.204  66.971  -1.174   0.523  39.609

                      1                      2                      3
                      A                      A                      A
 Frequencies --    165.1024               225.2436               260.4979
 Red. masses --      2.6950                 1.6882                 1.8616
 Frc consts  --      0.0433                 0.0505                 0.0744
 IR Inten    --      4.3177                 7.6365                19.4066

                      4                      5                      6
                      A                      A                      A
 Frequencies --    312.2578               330.1889               350.5464
 Red. masses --      1.3829                 2.1419                 1.5996
 Frc consts  --      0.0794                 0.1376                 0.1158
 IR Inten    --     24.9125                68.4916                91.9543

                      7                      8                      9
                      A                      A                      A
 Frequencies --    371.1508               425.4830               526.0899
 Red. masses --      1.1361                 1.8797                 2.4369
 Frc consts  --      0.0922                 0.2005                 0.3974
 IR Inten    --     53.2723                64.7210                28.3029

                     10                     11                     12
                      A                      A                      A
 Frequencies --    537.6703               579.8684               642.0059
 Red. masses --      3.8272                 3.4711                 1.4906
 Frc consts  --      0.6519                 0.6877                 0.3620
 IR Inten    --      6.7032                30.6340               133.8238

                     13                     14                     15
                      A                      A                      A
 Frequencies --    779.6355               851.3210               858.5993
 Red. masses --      5.1854                 1.5503                 1.2634
 Frc consts  --      1.8570                 0.6620                 0.5487
 IR Inten    --     14.3221               235.6098               289.9604

                     16                     17                     18
                      A                      A                      A
 Frequencies --   1022.6903              1149.4291              1158.6421
 Red. masses --      2.7416                 1.2913                 1.3170
 Frc consts  --      1.6895                 1.0052                 1.0417
 IR Inten    --     94.6301                21.9758                 7.4135

                     19                     20                     21
                      A                      A                      A
 Frequencies --   1219.1770              1290.5326              1344.0189
 Red. masses --      1.3545                 5.0270                 1.6235
 Frc consts  --      1.1862                 4.9328                 1.7279
 IR Inten    --     46.1784               149.6538                63.9077

                     22                     23                     24
                      A                      A                      A
 Frequencies --   1393.4355              1637.3219              1643.6008
 Red. masses --      3.7720                 1.1132                 1.1277
 Frc consts  --      4.3151                 1.7583                 1.7948
 IR Inten    --      2.1091                 8.7832               106.0625

                     25                     26                     27
                      A                      A                      A
 Frequencies --   1646.6270              1816.7063              3484.5533
 Red. masses --      1.1345                 6.8682                 1.0535
 Frc consts  --      1.8124                13.3556                 7.5365
 IR Inten    --      4.1743                16.0707                 9.1754

                     28                     29                     30
                      A                      A                      A
 Frequencies --   3488.3064              3492.8015              3605.6854
 Red. masses --      1.0517                 1.0512                 1.0913
 Frc consts  --      7.5403                 7.5559                 8.3592
 IR Inten    --      3.3737                 7.4994                 0.5557

                     31                     32                     33
                      A                      A                      A
 Frequencies --   3615.2308              3619.6895              3764.3921
 Red. masses --      1.0906                 1.0901                 1.0654
 Frc consts  --      8.3985                 8.4151                 8.8947
 IR Inten    --     13.2607                 6.4737                19.2778

 - Thermochemistry -
 -------------------
 Temperature   298.150 Kelvin.  Pressure   1.00000 Atm.
 Atom     1 has atomic number  7 and mass  14.00307

 Molecular mass:    89.05891 amu.
 Principal axes and moments of inertia in atomic units:
                           1         2         3
     Eigenvalues --   359.72639 550.62795 892.29548
           X            0.99907   0.04301   0.00112
           Y           -0.04297   0.99877  -0.02455
           Z           -0.00218   0.02448   0.99970
 This molecule is an asymmetric top.
 Rotational symmetry number  1.
 Rotational temperatures (Kelvin)      0.24078     0.15730     0.09707
 Rotational constants (GHZ):           5.01698     3.27761     2.02258
 Zero-point vibrational energy     284762.1 (Joules/Mol)
                                   68.05977 (Kcal/Mol)
 Warning -- explicit consideration of  11 degrees of freedom as
           vibrations may cause significant error
 Vibrational temperatures:    237.55   324.07   374.80   449.27   475.07
          (Kelvin)            504.36   534.00   612.17   756.93   773.59
                              834.30   923.70  1121.72  1224.86  1235.33
                             1471.42  1653.77  1667.03  1754.12  1856.79
                             1933.74  2004.84  2355.74  2364.77  2369.13
                             2613.83  5013.49  5018.89  5025.36  5187.77
                             5201.50  5207.92  5416.11

 Zero-point correction=                           0.108460 (Hartree/Particle)
 Thermal correction to Energy=                    0.115731
 Thermal correction to Enthalpy=                  0.116675
 Thermal correction to Gibbs Free Energy=         0.078312
 Sum of electronic and zero-point Energies=           -319.775539
 Sum of electronic and thermal Energies=              -319.768268
 Sum of electronic and thermal Enthalpies=            -319.767324
 Sum of electronic and thermal Free Energies=         -319.805686

                     E (Thermal)             CV                S
                      KCal/Mol        Cal/Mol-Kelvin    Cal/Mol-Kelvin
 Total                   72.622             26.940             80.740
 Electronic               0.000              0.000              0.000
 Translational            0.889              2.981             39.373
 Rotational               0.889              2.981             26.672
 Vibrational             70.845             20.978             14.696
 Vibration     1          0.624              1.885              2.491
 Vibration     2          0.650              1.803              1.917
 Vibration     3          0.669              1.745              1.658
 Vibration     4          0.701              1.650              1.350
 Vibration     5          0.713              1.615              1.259
 Vibration     6          0.727              1.574              1.164
 Vibration     7          0.743              1.531              1.075
 Vibration     8          0.787              1.415              0.874
 Vibration     9          0.881              1.192              0.596
 Vibration    10          0.893              1.167              0.570
 Vibration    11          0.937              1.075              0.486

 Optimization completed.
    -- Stationary point found.
 Normal termination of Gaussian 09 at Fri Sep 10 20:12:21 2021.
