 Gaussian 09, Revision E.01,
 Gaussian 09:  ES64L-G09RevE.01 30-Nov-2015

 ----------------------------
 #P OPT Freq B3LYP/6-31G(d,p)
 ----------------------------

 --------
 Frag_478
 --------
 Symbolic Z-matrix:
 Charge =  0 Multiplicity = 1

 SCF Done:  E(RB3LYP) =  -247.271044493     A.U. after   15 cycles
 SCF Done:  E(RB3LYP) =  -247.271137257     A.U. after   11 cycles
 SCF Done:  E(RB3LYP) =  -247.271155715     A.U. after   10 cycles
 SCF Done:  E(RB3LYP) =  -247.271161655     A.U. after   11 cycles
 SCF Done:  E(RB3LYP) =  -247.271164367     A.U. after    9 cycles
 SCF Done:  E(RB3LYP) =  -247.271164853     A.U. after    8 cycles
 Optimization completed.
    -- Stationary point found.
 Normal termination of Gaussian 09 at Thu Sep  8 15:01:26 2022.

 ----------------------------------------------------------------------
 #P Geom=AllCheck Guess=TCheck SCRF=Check GenChk RB3LYP/6-31G(d,p) Freq
 ----------------------------------------------------------------------

 Structure from the checkpoint file:  "B3LYP6-31Gdp.Frag_478.chk"
 --------
 Frag_478
 --------
 Charge =  0 Multiplicity = 1

                         Standard orientation:
 ---------------------------------------------------------------------
 Center     Atomic      Atomic             Coordinates (Angstroms)
 Number     Number       Type             X           Y           Z
 ---------------------------------------------------------------------
      1          6           0        1.916823   -0.027322   -0.122121
      2          6           0        0.768743   -0.654436    0.151399
      3          6           0       -0.582314   -0.049865    0.027716
      4          7           0       -1.673106   -0.690977   -0.114215
      5          8           0       -0.648768    1.310911    0.029841
      6          1           0        1.948000    1.000647   -0.474529
      7          1           0        2.872622   -0.532759   -0.033747
      8          1           0        0.781486   -1.698804    0.454843
      9          1           0       -1.481832   -1.693137   -0.147198
     10          1           0        0.162103    1.663351    0.419445
 ---------------------------------------------------------------------

 SCF Done:  E(RB3LYP) =  -247.271164853     A.U. after    1 cycles

 The electronic state is 1-A.
 Alpha  occ. eigenvalues --  -19.18156 -14.30778 -10.28603 -10.22124 -10.21736
 Alpha  occ. eigenvalues --   -1.07061  -0.89164  -0.79589  -0.64082  -0.60428
 Alpha  occ. eigenvalues --   -0.52804  -0.47796  -0.45674  -0.42576  -0.40550
 Alpha  occ. eigenvalues --   -0.36462  -0.30806  -0.26954  -0.26234
 Alpha virt. eigenvalues --   -0.04516   0.06248   0.07836   0.09507   0.12946
 Alpha virt. eigenvalues --    0.16329   0.17711   0.25546   0.29525   0.36006
 Alpha virt. eigenvalues --    0.41568   0.51367   0.52320   0.55624   0.58973

 Mulliken charges:
               1
     1  C   -0.252358
     2  C   -0.073873
     3  C    0.463789
     4  N   -0.520423
     5  O   -0.495840
     6  H    0.110356
     7  H    0.122174
     8  H    0.106532
     9  H    0.226249
    10  H    0.313394
 Sum of Mulliken charges =   0.00000

 Dipole moment (field-independent basis, Debye):
    X=              4.0188    Y=             -0.7105    Z=              0.7893  Tot=              4.1567
 Quadrupole moment (field-independent basis, Debye-Ang):
   XX=            -33.6634   YY=            -24.9494   ZZ=            -30.6150
   XY=              2.4773   XZ=             -0.3889   YZ=              0.5421

  Exact polarizability:  60.606   9.601  43.506  -0.685  -1.902  19.240
 Approx polarizability:  99.650  23.639  66.273  -1.594  -3.112  27.619

                      1                      2                      3
                      A                      A                      A
 Frequencies --    129.2377               276.3387               412.2069
 Red. masses --      2.4586                 3.0215                 1.2611
 Frc consts  --      0.0242                 0.1359                 0.1263
 IR Inten    --      3.5870                16.0583                83.1084

                      4                      5                      6
                      A                      A                      A
 Frequencies --    460.2508               532.3546               605.0598
 Red. masses --      1.6143                 3.6265                 2.8662
 Frc consts  --      0.2015                 0.6055                 0.6182
 IR Inten    --      7.5782                 1.1277                 1.5870

                      7                      8                      9
                      A                      A                      A
 Frequencies --    773.9150               844.9398               866.8586
 Red. masses --      2.9439                 3.3207                 1.1980
 Frc consts  --      1.0389                 1.3968                 0.5304
 IR Inten    --      7.1894                14.1103                76.2418

                     10                     11                     12
                      A                      A                      A
 Frequencies --    962.8195              1024.8070              1046.0627
 Red. masses --      1.3659                 1.0940                 1.6839
 Frc consts  --      0.7460                 0.6770                 1.0856
 IR Inten    --     30.1707                20.8535                41.2943

                     13                     14                     15
                      A                      A                      A
 Frequencies --   1130.3231              1247.1250              1324.8412
 Red. masses --      1.3873                 1.2906                 1.3065
 Frc consts  --      1.0443                 1.1827                 1.3511
 IR Inten    --    132.9256               112.5008                13.2650

                     16                     17                     18
                      A                      A                      A
 Frequencies --   1411.8593              1460.1140              1687.9587
 Red. masses --      2.1747                 1.3795                 4.5463
 Frc consts  --      2.5541                 1.7328                 7.6319
 IR Inten    --    139.5309                30.4296                41.8520

                     19                     20                     21
                      A                      A                      A
 Frequencies --   1749.7643              3158.3492              3178.9004
 Red. masses --      6.5953                 1.0602                 1.0932
 Frc consts  --     11.8972                 6.2313                 6.5091
 IR Inten    --     84.1940                 4.1338                 3.3155

                     22                     23                     24
                      A                      A                      A
 Frequencies --   3247.1971              3501.8334              3822.9007
 Red. masses --      1.1149                 1.0753                 1.0656
 Frc consts  --      6.9265                 7.7691                 9.1751
 IR Inten    --      8.0878                 1.8990                28.5865

 - Thermochemistry -
 -------------------
 Temperature   298.150 Kelvin.  Pressure   1.00000 Atm.
 Atom     1 has atomic number  6 and mass  12.00000

 Molecular mass:    71.03711 amu.
 Principal axes and moments of inertia in atomic units:
                           1         2         3
     Eigenvalues --   180.18735 418.75776 589.71523
           X            0.99964   0.02652  -0.00327
           Y           -0.02653   0.99963  -0.00605
           Z            0.00311   0.00614   0.99998
 This molecule is an asymmetric top.
 Rotational symmetry number  1.
 Rotational temperatures (Kelvin)      0.48069     0.20684     0.14687
 Rotational constants (GHZ):          10.01592     4.30975     3.06036
 Zero-point vibrational energy     208485.3 (Joules/Mol)
                                   49.82918 (Kcal/Mol)
 Warning -- explicit consideration of   6 degrees of freedom as
           vibrations may cause significant error
 Vibrational temperatures:    185.94   397.59   593.07   662.20   765.94
          (Kelvin)            870.54  1113.49  1215.68  1247.21  1385.28
                             1474.47  1505.05  1626.28  1794.33  1906.15
                             2031.35  2100.78  2428.59  2517.52  4544.15
                             4573.72  4671.99  5038.35  5500.29

 Zero-point correction=                           0.079408 (Hartree/Particle)
 Thermal correction to Energy=                    0.084666
 Thermal correction to Enthalpy=                  0.085610
 Thermal correction to Gibbs Free Energy=         0.051302
 Sum of electronic and zero-point Energies=           -247.191757
 Sum of electronic and thermal Energies=              -247.186499
 Sum of electronic and thermal Enthalpies=            -247.185555
 Sum of electronic and thermal Free Energies=         -247.219863

                     E (Thermal)             CV                S
                      KCal/Mol        Cal/Mol-Kelvin    Cal/Mol-Kelvin
 Total                   53.129             18.330             72.208
 Electronic               0.000              0.000              0.000
 Translational            0.889              2.981             38.699
 Rotational               0.889              2.981             25.301
 Vibrational             51.351             12.368              8.208
 Vibration     1          0.612              1.924              2.957
 Vibration     2          0.678              1.717              1.556
 Vibration     3          0.776              1.444              0.919
 Vibration     4          0.818              1.338              0.765
 Vibration     5          0.887              1.178              0.582
 Vibration     6          0.964              1.021              0.441

 Normal termination of Gaussian 09 at Thu Sep  8 15:01:33 2022.
