 Gaussian 09, Revision E.01,
 Gaussian 09:  ES64L-G09RevE.01 30-Nov-2015

 ----------------------------
 #P OPT Freq B3LYP/6-31G(d,p)
 ----------------------------

 --------
 Frag_885
 --------
 Symbolic Z-matrix:
 Charge =  0 Multiplicity = 1

 SCF Done:  E(RB3LYP) =  -305.079737786     A.U. after   13 cycles
 SCF Done:  E(RB3LYP) =  -305.079779304     A.U. after    8 cycles
 SCF Done:  E(RB3LYP) =  -305.079784803     A.U. after    8 cycles
 SCF Done:  E(RB3LYP) =  -305.079788383     A.U. after    8 cycles
 SCF Done:  E(RB3LYP) =  -305.079790989     A.U. after    8 cycles
 SCF Done:  E(RB3LYP) =  -305.079794577     A.U. after    9 cycles
 SCF Done:  E(RB3LYP) =  -305.079798648     A.U. after    9 cycles
 SCF Done:  E(RB3LYP) =  -305.079801553     A.U. after    9 cycles
 SCF Done:  E(RB3LYP) =  -305.079802637     A.U. after    9 cycles
 SCF Done:  E(RB3LYP) =  -305.079802677     A.U. after    7 cycles
 Optimization completed.
    -- Stationary point found.
 Normal termination of Gaussian 09 at Thu Sep  8 15:26:05 2022.

 ----------------------------------------------------------------------
 #P Geom=AllCheck Guess=TCheck SCRF=Check GenChk RB3LYP/6-31G(d,p) Freq
 ----------------------------------------------------------------------

 Structure from the checkpoint file:  "B3LYP6-31Gdp.Frag_885.chk"
 --------
 Frag_885
 --------
 Charge =  0 Multiplicity = 1

                         Standard orientation:
 ---------------------------------------------------------------------
 Center     Atomic      Atomic             Coordinates (Angstroms)
 Number     Number       Type             X           Y           Z
 ---------------------------------------------------------------------
      1          6           0        2.138172   -0.055973    0.024055
      2          6           0        0.870114    0.799506    0.003654
      3          6           0       -0.456972    0.003693    0.002089
      4          7           0       -0.557459   -0.792688    1.199079
      5          7           0       -0.617630   -0.925745   -1.116578
      6          8           0       -1.542503    0.939879   -0.019236
      7          1           0        3.032854    0.572378    0.073467
      8          1           0        2.136298   -0.726088    0.887643
      9          1           0        2.219641   -0.671780   -0.878237
     10          1           0        0.855320    1.473622    0.869115
     11          1           0        0.871421    1.447321   -0.885035
     12          1           0       -0.572156   -0.174623    2.006531
     13          1           0       -1.454028   -1.273842    1.171335
     14          1           0        0.080003   -1.661191   -1.035790
     15          1           0       -0.448431   -0.448261   -1.999604
     16          1           0       -1.463160    1.489108   -0.811831
 ---------------------------------------------------------------------

 SCF Done:  E(RB3LYP) =  -305.079802677     A.U. after    1 cycles

 The electronic state is 1-A.
 Alpha  occ. eigenvalues --  -19.13561 -14.31234 -14.31013 -10.28404 -10.18294
 Alpha  occ. eigenvalues --  -10.17417  -1.02445  -0.89718  -0.83896  -0.75969
 Alpha  occ. eigenvalues --   -0.64550  -0.58237  -0.51198  -0.49972  -0.48211
 Alpha  occ. eigenvalues --   -0.44102  -0.41319  -0.40797  -0.39489  -0.35422
 Alpha  occ. eigenvalues --   -0.34325  -0.33429  -0.27353  -0.25411  -0.24222
 Alpha virt. eigenvalues --    0.05789   0.10271   0.11489   0.13970   0.14419
 Alpha virt. eigenvalues --    0.14829   0.17045   0.17989   0.18726   0.20672
 Alpha virt. eigenvalues --    0.23105   0.25082   0.27411   0.28407   0.30130

 Mulliken charges:
               1
     1  C   -0.316890
     2  C   -0.174391
     3  C    0.446378
     4  N   -0.580266
     5  N   -0.582334
     6  O   -0.542825
     7  H    0.099686
     8  H    0.128513
     9  H    0.088120
    10  H    0.098548
    11  H    0.070606
    12  H    0.243805
    13  H    0.254840
    14  H    0.249181
    15  H    0.224726
    16  H    0.292303
 Sum of Mulliken charges =  -0.00000

 Dipole moment (field-independent basis, Debye):
    X=              1.2737    Y=              1.0050    Z=             -0.9716  Tot=              1.8912
 Quadrupole moment (field-independent basis, Debye-Ang):
   XX=            -41.3817   YY=            -37.7728   ZZ=            -33.3498
   XY=             -0.2737   XZ=             -1.3208   YZ=             -1.4213

  Exact polarizability:  51.124  -0.178  49.443  -0.234  -1.331  51.399
 Approx polarizability:  64.601  -1.385  69.563   0.003  -2.205  72.429

                      1                      2                      3
                      A                      A                      A
 Frequencies --     80.0721               122.4453               218.7429
 Red. masses --      1.0824                 1.8687                 1.2458
 Frc consts  --      0.0041                 0.0165                 0.0351
 IR Inten    --     49.4223                 2.0355                 3.7600

                      4                      5                      6
                      A                      A                      A
 Frequencies --    255.0083               287.3979               335.9297
 Red. masses --      2.5924                 1.1509                 1.1213
 Frc consts  --      0.0993                 0.0560                 0.0746
 IR Inten    --      2.1717                20.1148                75.5271

                      7                      8                      9
                      A                      A                      A
 Frequencies --    378.4863               426.3143               491.5751
 Red. masses --      2.2031                 2.8565                 3.0092
 Frc consts  --      0.1859                 0.3059                 0.4284
 IR Inten    --     32.3226                 1.2703                 6.0061

                     10                     11                     12
                      A                      A                      A
 Frequencies --    502.9474               558.1148               766.1010
 Red. masses --      2.9865                 2.9637                 3.5931
 Frc consts  --      0.4451                 0.5439                 1.2425
 IR Inten    --     38.4528                 9.3747                 9.3525

                     13                     14                     15
                      A                      A                      A
 Frequencies --    800.3838               863.3044               921.1616
 Red. masses --      1.1787                 1.7837                 1.4158
 Frc consts  --      0.4449                 0.7833                 0.7078
 IR Inten    --     14.3506               136.0053               180.6751

                     16                     17                     18
                      A                      A                      A
 Frequencies --    965.4010               992.2507              1048.0921
 Red. masses --      1.8475                 2.4054                 2.5029
 Frc consts  --      1.0145                 1.3954                 1.6199
 IR Inten    --     31.4469               118.4061                17.0451

                     19                     20                     21
                      A                      A                      A
 Frequencies --   1056.9310              1106.6418              1154.8559
 Red. masses --      1.4123                 1.7437                 1.4364
 Frc consts  --      0.9295                 1.2581                 1.1287
 IR Inten    --      3.5900                24.0812                 9.0464

                     22                     23                     24
                      A                      A                      A
 Frequencies --   1228.9716              1276.8522              1357.8232
 Red. masses --      1.6238                 1.2938                 1.5777
 Frc consts  --      1.4450                 1.2428                 1.7138
 IR Inten    --    172.9626                 4.8294                25.4294

                     25                     26                     27
                      A                      A                      A
 Frequencies --   1378.8942              1416.5818              1436.7691
 Red. masses --      1.7244                 1.4217                 1.7070
 Frc consts  --      1.9317                 1.6809                 2.0761
 IR Inten    --     13.3991                12.5844                56.9798

                     28                     29                     30
                      A                      A                      A
 Frequencies --   1497.1686              1509.8036              1525.8472
 Red. masses --      1.0767                 1.0412                 1.0601
 Frc consts  --      1.4220                 1.3984                 1.4542
 IR Inten    --      0.6183                 4.9183                 6.8412

                     31                     32                     33
                      A                      A                      A
 Frequencies --   1651.6930              1661.4162              3017.7106
 Red. masses --      1.1130                 1.1075                 1.0656
 Frc consts  --      1.7890                 1.8011                 5.7173
 IR Inten    --     36.5466                28.0667                38.3184

                     34                     35                     36
                      A                      A                      A
 Frequencies --   3047.1637              3065.8591              3111.2289
 Red. masses --      1.0381                 1.0968                 1.1010
 Frc consts  --      5.6789                 6.0739                 6.2790
 IR Inten    --     23.0609                25.7131                42.4109

                     37                     38                     39
                      A                      A                      A
 Frequencies --   3136.4228              3491.3045              3499.9715
 Red. masses --      1.1020                 1.0499                 1.0494
 Frc consts  --      6.3872                 7.5401                 7.5736
 IR Inten    --     20.9911                 0.8452                 0.9871

                     40                     41                     42
                      A                      A                      A
 Frequencies --   3586.3538              3587.7727              3791.0057
 Red. masses --      1.0918                 1.0923                 1.0657
 Frc consts  --      8.2738                 8.2838                 9.0238
 IR Inten    --      0.2978                 1.7859                 3.5314

 - Thermochemistry -
 -------------------
 Temperature   298.150 Kelvin.  Pressure   1.00000 Atm.
 Atom     1 has atomic number  6 and mass  12.00000

 Molecular mass:    90.07931 amu.
 Principal axes and moments of inertia in atomic units:
                           1         2         3
     Eigenvalues --   382.32847 681.92975 693.76248
           X            0.99989   0.01107  -0.01001
           Y           -0.01234   0.99036  -0.13799
           Z            0.00839   0.13810   0.99038
 This molecule is an asymmetric top.
 Rotational symmetry number  1.
 Rotational temperatures (Kelvin)      0.22654     0.12701     0.12485
 Rotational constants (GHZ):           4.72039     2.64652     2.60138
 Zero-point vibrational energy     374483.6 (Joules/Mol)
                                   89.50373 (Kcal/Mol)
 Warning -- explicit consideration of  11 degrees of freedom as
           vibrations may cause significant error
 Vibrational temperatures:    115.21   176.17   314.72   366.90   413.50
          (Kelvin)            483.33   544.56   613.37   707.27   723.63
                              803.00  1102.25  1151.57  1242.10  1325.34
                             1388.99  1427.63  1507.97  1520.69  1592.21
                             1661.58  1768.21  1837.10  1953.60  1983.92
                             2038.14  2067.19  2154.09  2172.27  2195.35
                             2376.41  2390.40  4341.81  4384.18  4411.08
                             4476.36  4512.61  5023.20  5035.67  5159.96
                             5162.00  5454.40

 Zero-point correction=                           0.142633 (Hartree/Particle)
 Thermal correction to Energy=                    0.150549
 Thermal correction to Enthalpy=                  0.151493
 Thermal correction to Gibbs Free Energy=         0.111299
 Sum of electronic and zero-point Energies=           -304.937169
 Sum of electronic and thermal Energies=              -304.929254
 Sum of electronic and thermal Enthalpies=            -304.928309
 Sum of electronic and thermal Free Energies=         -304.968504

                     E (Thermal)             CV                S
                      KCal/Mol        Cal/Mol-Kelvin    Cal/Mol-Kelvin
 Total                   94.471             28.706             84.597
 Electronic               0.000              0.000              0.000
 Translational            0.889              2.981             39.407
 Rotational               0.889              2.981             26.695
 Vibrational             92.694             22.744             18.496
 Vibration     1          0.600              1.963              3.889
 Vibration     2          0.610              1.930              3.061
 Vibration     3          0.647              1.813              1.969
 Vibration     4          0.665              1.754              1.696
 Vibration     5          0.685              1.697              1.489
 Vibration     6          0.717              1.604              1.231
 Vibration     7          0.749              1.516              1.045
 Vibration     8          0.788              1.413              0.871
 Vibration     9          0.847              1.269              0.680
 Vibration    10          0.858              1.243              0.651
 Vibration    11          0.914              1.122              0.528

 Optimization completed.
    -- Stationary point found.
 Normal termination of Gaussian 09 at Thu Sep  8 15:26:18 2022.
