 Gaussian 09, Revision E.01,
 Gaussian 09:  ES64L-G09RevE.01 30-Nov-2015

 ----------------------------
 #P OPT Freq B3LYP/6-31G(d,p)
 ----------------------------

 --------
 Frag_870
 --------
 Symbolic Z-matrix:
 Charge =  0 Multiplicity = 1

 SCF Done:  E(RB3LYP) =  -379.877954971     A.U. after   12 cycles
 SCF Done:  E(RB3LYP) =  -379.877985407     A.U. after    8 cycles
 SCF Done:  E(RB3LYP) =  -379.877989914     A.U. after    7 cycles
 SCF Done:  E(RB3LYP) =  -379.877989067     A.U. after    8 cycles
 SCF Done:  E(RB3LYP) =  -379.877990756     A.U. after    7 cycles
 Optimization completed.
    -- Stationary point found.
 Normal termination of Gaussian 09 at Thu Sep  8 15:20:37 2022.

 ----------------------------------------------------------------------
 #P Geom=AllCheck Guess=TCheck SCRF=Check GenChk RB3LYP/6-31G(d,p) Freq
 ----------------------------------------------------------------------

 Structure from the checkpoint file:  "B3LYP6-31Gdp.Frag_870.chk"
 --------
 Frag_870
 --------
 Charge =  0 Multiplicity = 1

                         Standard orientation:
 ---------------------------------------------------------------------
 Center     Atomic      Atomic             Coordinates (Angstroms)
 Number     Number       Type             X           Y           Z
 ---------------------------------------------------------------------
      1          6           0        1.391644    0.953208    1.026463
      2          6           0        0.775511    0.018404   -0.027634
      3          7           0        1.151351    0.392082   -1.410968
      4          7           0        1.250156   -1.343645    0.246369
      5          6           0       -0.805566   -0.019055    0.043072
      6          6           0       -1.439824    1.337457   -0.302593
      7          7           0       -1.165901   -0.363106    1.413722
      8          7           0       -1.371556   -1.003009   -0.904138
      9          1           0        2.487099    0.910544    0.966782
     10          1           0        1.095782    1.990542    0.851255
     11          1           0        1.077305    0.677535    2.034121
     12          1           0        0.915327    1.367483   -1.586198
     13          1           0        2.165021    0.333451   -1.497338
     14          1           0        1.169213   -1.894290   -0.605019
     15          1           0        2.234691   -1.331241    0.500104
     16          1           0       -1.258424    1.613093   -1.346313
     17          1           0       -2.523078    1.258913   -0.177279
     18          1           0       -1.075776    2.132724    0.351491
     19          1           0       -0.663276   -1.214667    1.661927
     20          1           0       -2.160331   -0.579446    1.434199
     21          1           0       -0.960648   -0.845602   -1.824789
     22          1           0       -1.081831   -1.935377   -0.613691
 ---------------------------------------------------------------------

 SCF Done:  E(RB3LYP) =  -379.877990756     A.U. after    1 cycles

 The electronic state is 1-A.
 Alpha  occ. eigenvalues --  -14.31761 -14.31618 -14.29384 -14.29377 -10.24109
 Alpha  occ. eigenvalues --  -10.23041 -10.17049 -10.16338  -0.93610  -0.88698
 Alpha  occ. eigenvalues --   -0.83758  -0.81606  -0.72454  -0.70071  -0.61968
 Alpha  occ. eigenvalues --   -0.53568  -0.50328  -0.48845  -0.48601  -0.45974
 Alpha  occ. eigenvalues --   -0.44686  -0.43181  -0.39660  -0.39127  -0.38345
 Alpha  occ. eigenvalues --   -0.37714  -0.35781  -0.34112  -0.33519  -0.25740
 Alpha  occ. eigenvalues --   -0.24653  -0.22713  -0.22489
 Alpha virt. eigenvalues --    0.05918   0.10573   0.11162   0.12917   0.13215
 Alpha virt. eigenvalues --    0.14477   0.15573   0.16529   0.17032   0.17706
 Alpha virt. eigenvalues --    0.18621   0.19736   0.21480   0.23108   0.24430

 Mulliken charges:
               1
     1  C   -0.302166
     2  C    0.231976
     3  N   -0.601141
     4  N   -0.601550
     5  C    0.269692
     6  C   -0.296391
     7  N   -0.598434
     8  N   -0.598255
     9  H    0.074473
    10  H    0.099475
    11  H    0.136439
    12  H    0.237445
    13  H    0.225167
    14  H    0.236283
    15  H    0.234706
    16  H    0.090811
    17  H    0.111299
    18  H    0.104382
    19  H    0.246927
    20  H    0.236492
    21  H    0.239861
    22  H    0.222509
 Sum of Mulliken charges =  -0.00000

 Dipole moment (field-independent basis, Debye):
    X=              2.5120    Y=             -0.0168    Z=             -0.8178  Tot=              2.6418
 Quadrupole moment (field-independent basis, Debye-Ang):
   XX=            -48.2528   YY=            -47.6976   ZZ=            -54.4749
   XY=             -0.3874   XZ=             -2.4106   YZ=             -1.6623

  Exact polarizability:  75.909  -0.968  70.358  -0.204  -1.067  68.513
 Approx polarizability: 101.303  -1.616  98.962  -0.255  -2.591  99.118

                      1                      2                      3
                      A                      A                      A
 Frequencies --    103.4679               231.9518               237.0665
 Red. masses --      3.1055                 1.0517                 1.1765
 Frc consts  --      0.0196                 0.0333                 0.0390
 IR Inten    --      0.3492                 3.6182                19.0289

                      4                      5                      6
                      A                      A                      A
 Frequencies --    252.9600               279.3901               290.8237
 Red. masses --      1.5034                 2.0379                 2.0013
 Frc consts  --      0.0567                 0.0937                 0.0997
 IR Inten    --      1.0195                 5.4551                 7.6178

                      7                      8                      9
                      A                      A                      A
 Frequencies --    327.2129               343.3816               363.2455
 Red. masses --      1.1042                 1.7690                 2.3337
 Frc consts  --      0.0697                 0.1229                 0.1814
 IR Inten    --     44.2281                14.3824                19.5986

                     10                     11                     12
                      A                      A                      A
 Frequencies --    370.2024               388.7658               408.9962
 Red. masses --      2.2382                 1.6156                 1.5880
 Frc consts  --      0.1807                 0.1439                 0.1565
 IR Inten    --      5.5150                28.7957                18.2940

                     13                     14                     15
                      A                      A                      A
 Frequencies --    427.5262               452.7248               523.3611
 Red. masses --      2.0223                 1.9431                 2.7708
 Frc consts  --      0.2178                 0.2347                 0.4472
 IR Inten    --      4.4351                57.6816                 9.5539

                     16                     17                     18
                      A                      A                      A
 Frequencies --    535.8603               561.3002               679.0223
 Red. masses --      2.9070                 2.6079                 3.0193
 Frc consts  --      0.4918                 0.4841                 0.8202
 IR Inten    --     12.4353                25.7688                 6.7659

                     19                     20                     21
                      A                      A                      A
 Frequencies --    841.1588               875.1262               903.8835
 Red. masses --      2.6355                 2.2126                 1.5831
 Frc consts  --      1.0987                 0.9984                 0.7621
 IR Inten    --     44.7576                38.3964               157.8884

                     22                     23                     24
                      A                      A                      A
 Frequencies --    913.5311               932.7575               943.3491
 Red. masses --      1.5399                 1.3848                 1.4540
 Frc consts  --      0.7572                 0.7099                 0.7624
 IR Inten    --     99.3868               138.4287                43.4154

                     25                     26                     27
                      A                      A                      A
 Frequencies --    973.5697               995.4669              1027.8952
 Red. masses --      1.6637                 1.3541                 1.6561
 Frc consts  --      0.9291                 0.7906                 1.0309
 IR Inten    --      5.2134                43.0371                42.5480

                     28                     29                     30
                      A                      A                      A
 Frequencies --   1043.3895              1081.8627              1114.2163
 Red. masses --      1.6709                 1.4344                 1.4855
 Frc consts  --      1.0718                 0.9892                 1.0865
 IR Inten    --     24.2073                 9.1986                29.1652

                     31                     32                     33
                      A                      A                      A
 Frequencies --   1191.1318              1218.1464              1312.5076
 Red. masses --      2.5771                 2.5083                 1.8848
 Frc consts  --      2.1543                 2.1930                 1.9130
 IR Inten    --     55.2648                32.0683                 9.9931

                     34                     35                     36
                      A                      A                      A
 Frequencies --   1313.9705              1357.0528              1381.2108
 Red. masses --      1.7959                 1.9704                 1.8161
 Frc consts  --      1.8268                 2.1379                 2.0413
 IR Inten    --     33.8737                 6.6968                 0.4548

                     37                     38                     39
                      A                      A                      A
 Frequencies --   1419.5279              1425.3510              1496.6982
 Red. masses --      1.3090                 1.3774                 1.0539
 Frc consts  --      1.5541                 1.6488                 1.3909
 IR Inten    --     12.3720                16.2633                 0.5776

                     40                     41                     42
                      A                      A                      A
 Frequencies --   1505.3637              1513.5850              1518.7249
 Red. masses --      1.0558                 1.0578                 1.0510
 Frc consts  --      1.4097                 1.4278                 1.4283
 IR Inten    --      2.1976                 3.6419                 2.4503

                     43                     44                     45
                      A                      A                      A
 Frequencies --   1649.4941              1653.1189              1661.0411
 Red. masses --      1.0939                 1.0935                 1.0996
 Frc consts  --      1.7537                 1.7607                 1.7875
 IR Inten    --     51.5023                66.2406                14.6898

                     46                     47                     48
                      A                      A                      A
 Frequencies --   1672.9774              3033.5020              3057.1186
 Red. masses --      1.1016                 1.0482                 1.0368
 Frc consts  --      1.8166                 5.6831                 5.7093
 IR Inten    --      3.8645                38.0675                16.4644

                     49                     50                     51
                      A                      A                      A
 Frequencies --   3116.2143              3124.4998              3146.1228
 Red. masses --      1.0898                 1.1002                 1.1021
 Frc consts  --      6.2353                 6.3283                 6.4274
 IR Inten    --     22.2788                29.0470                24.5656

                     52                     53                     54
                      A                      A                      A
 Frequencies --   3159.9571              3460.9770              3472.6756
 Red. masses --      1.1015                 1.0489                 1.0498
 Frc consts  --      6.4803                 7.4025                 7.4591
 IR Inten    --     11.9656                 2.2112                 3.2651

                     55                     56                     57
                      A                      A                      A
 Frequencies --   3473.8421              3495.6550              3552.8430
 Red. masses --      1.0492                 1.0491                 1.0916
 Frc consts  --      7.4597                 7.5529                 8.1187
 IR Inten    --      2.6740                 0.5047                 0.9445

                     58                     59                     60
                      A                      A                      A
 Frequencies --   3555.9450              3563.8296              3581.6154
 Red. masses --      1.0914                 1.0919                 1.0929
 Frc consts  --      8.1310                 8.1707                 8.2599
 IR Inten    --      0.6474                 1.9161                 0.7406

 - Thermochemistry -
 -------------------
 Temperature   298.150 Kelvin.  Pressure   1.00000 Atm.
 Atom     1 has atomic number  6 and mass  12.00000

 Molecular mass:   118.12185 amu.
 Principal axes and moments of inertia in atomic units:
                           1         2         3
     Eigenvalues --   740.120821033.763321034.64104
           X            0.99987   0.01479  -0.00678
           Y            0.00661   0.01146   0.99991
           Z           -0.01487   0.99982  -0.01136
 This molecule is an asymmetric top.
 Rotational symmetry number  1.
 Warning -- assumption of classical behavior for rotation
           may cause significant error
 Rotational temperatures (Kelvin)      0.11703     0.08378     0.08371
 Rotational constants (GHZ):           2.43844     1.74580     1.74432
 Zero-point vibrational energy     529396.4 (Joules/Mol)
                                  126.52877 (Kcal/Mol)
 Warning -- explicit consideration of  17 degrees of freedom as
           vibrations may cause significant error
 Vibrational temperatures:    148.87   333.73   341.09   363.95   401.98
          (Kelvin)            418.43   470.79   494.05   522.63   532.64
                              559.35   588.45   615.11   651.37   753.00
                              770.98   807.58   976.96  1210.24  1259.11
                             1300.49  1314.37  1342.03  1357.27  1400.75
                             1432.25  1478.91  1501.20  1556.56  1603.11
                             1713.77  1752.64  1888.40  1890.51  1952.49
                             1987.25  2042.38  2050.76  2153.41  2165.88
                             2177.71  2185.10  2373.25  2378.47  2389.86
                             2407.04  4364.53  4398.51  4483.53  4495.45
                             4526.56  4546.47  4979.57  4996.40  4998.08
                             5029.46  5111.74  5116.21  5127.55  5153.14

 Zero-point correction=                           0.201636 (Hartree/Particle)
 Thermal correction to Energy=                    0.211525
 Thermal correction to Enthalpy=                  0.212469
 Thermal correction to Gibbs Free Energy=         0.168734
 Sum of electronic and zero-point Energies=           -379.676354
 Sum of electronic and thermal Energies=              -379.666466
 Sum of electronic and thermal Enthalpies=            -379.665522
 Sum of electronic and thermal Free Energies=         -379.709257

                     E (Thermal)             CV                S
                      KCal/Mol        Cal/Mol-Kelvin    Cal/Mol-Kelvin
 Total                  132.734             39.610             92.049
 Electronic               0.000              0.000              0.000
 Translational            0.889              2.981             40.215
 Rotational               0.889              2.981             28.161
 Vibrational            130.956             33.649             23.673
 Vibration     1          0.605              1.946              3.388
 Vibration     2          0.653              1.792              1.864
 Vibration     3          0.656              1.784              1.825
 Vibration     4          0.664              1.758              1.710
 Vibration     5          0.680              1.712              1.537
 Vibration     6          0.687              1.691              1.469
 Vibration     7          0.711              1.621              1.274
 Vibration     8          0.722              1.589              1.196
 Vibration     9          0.737              1.548              1.108
 Vibration    10          0.742              1.533              1.079
 Vibration    11          0.757              1.494              1.005
 Vibration    12          0.773              1.451              0.930
 Vibration    13          0.789              1.410              0.867
 Vibration    14          0.811              1.355              0.788
 Vibration    15          0.878              1.198              0.602
 Vibration    16          0.891              1.171              0.574
 Vibration    17          0.917              1.115              0.521

 Normal termination of Gaussian 09 at Thu Sep  8 15:21:04 2022.
