 Gaussian 09, Revision E.01,
 Gaussian 09:  ES64L-G09RevE.01 30-Nov-2015

 ----------------------------
 #P OPT Freq B3LYP/6-31G(d,p)
 ----------------------------

 ---------
 Frag_1073
 ---------
 Symbolic Z-matrix:
 Charge =  0 Multiplicity = 1

 SCF Done:  E(RB3LYP) =  -265.750781293     A.U. after   13 cycles
 SCF Done:  E(RB3LYP) =  -265.750820725     A.U. after   10 cycles
 SCF Done:  E(RB3LYP) =  -265.750823386     A.U. after    8 cycles
 SCF Done:  E(RB3LYP) =  -265.750824343     A.U. after    7 cycles
 SCF Done:  E(RB3LYP) =  -265.750824743     A.U. after    7 cycles
 SCF Done:  E(RB3LYP) =  -265.750824920     A.U. after    7 cycles
 SCF Done:  E(RB3LYP) =  -265.750825017     A.U. after    7 cycles
 Optimization completed.
    -- Stationary point found.
 Normal termination of Gaussian 09 at Thu Sep  8 14:46:11 2022.

 ----------------------------------------------------------------------
 #P Geom=AllCheck Guess=TCheck SCRF=Check GenChk RB3LYP/6-31G(d,p) Freq
 ----------------------------------------------------------------------

 Structure from the checkpoint file:  "B3LYP6-31Gdp.Frag_1073.chk"
 ---------
 Frag_1073
 ---------
 Charge =  0 Multiplicity = 1

                         Standard orientation:
 ---------------------------------------------------------------------
 Center     Atomic      Atomic             Coordinates (Angstroms)
 Number     Number       Type             X           Y           Z
 ---------------------------------------------------------------------
      1          7           0       -2.044597   -0.028284    0.048272
      2          6           0       -0.764305   -0.666366   -0.251682
      3          6           0        0.502257   -0.021416    0.340450
      4          7           0        0.696633    1.312142   -0.213356
      5          8           0        1.647898   -0.802733    0.057028
      6          1           0       -2.121677    0.881433   -0.397366
      7          1           0       -2.160242    0.108421    1.049500
      8          1           0       -0.647757   -0.704058   -1.342000
      9          1           0       -0.793093   -1.701599    0.104880
     10          1           0        0.424933   -0.038718    1.441869
     11          1           0       -0.150017    1.866246   -0.109115
     12          1           0        1.431879    1.793801    0.298759
     13          1           0        1.840825   -0.643974   -0.879780
 ---------------------------------------------------------------------

 SCF Done:  E(RB3LYP) =  -265.750825017     A.U. after    1 cycles

 The electronic state is 1-A.
 Alpha  occ. eigenvalues --  -19.13961 -14.32206 -14.31990 -10.25532 -10.20341
 Alpha  occ. eigenvalues --   -1.02337  -0.89148  -0.86340  -0.69719  -0.60471
 Alpha  occ. eigenvalues --   -0.51925  -0.49512  -0.48761  -0.45217  -0.42899
 Alpha  occ. eigenvalues --   -0.38255  -0.36495  -0.33928  -0.28983  -0.25853
 Alpha  occ. eigenvalues --   -0.22682
 Alpha virt. eigenvalues --    0.06064   0.09214   0.11430   0.12331   0.14644
 Alpha virt. eigenvalues --    0.16740   0.17817   0.20054   0.22754   0.25713
 Alpha virt. eigenvalues --    0.26967   0.29434   0.54021   0.55332   0.57800

 Mulliken charges:
               1
     1  N   -0.597662
     2  C   -0.066495
     3  C    0.268168
     4  N   -0.607540
     5  O   -0.533116
     6  H    0.236842
     7  H    0.237257
     8  H    0.101423
     9  H    0.116887
    10  H    0.072282
    11  H    0.222381
    12  H    0.246947
    13  H    0.302627
 Sum of Mulliken charges =   0.00000

 Dipole moment (field-independent basis, Debye):
    X=             -0.2969    Y=              2.1531    Z=              0.5897  Tot=              2.2520
 Quadrupole moment (field-independent basis, Debye-Ang):
   XX=            -35.8433   YY=            -29.8586   ZZ=            -29.6739
   XY=             -1.1329   XZ=             -2.8535   YZ=              2.5024

  Exact polarizability:  42.738  -1.577  40.845  -1.736  -0.213  37.030
 Approx polarizability:  54.979  -3.940  54.661  -2.242  -1.907  52.702

                      1                      2                      3
                      A                      A                      A
 Frequencies --    109.5993               235.2879               267.4392
 Red. masses --      2.1526                 1.1704                 2.7466
 Frc consts  --      0.0152                 0.0382                 0.1157
 IR Inten    --      0.5498                32.0489                27.9805

                      4                      5                      6
                      A                      A                      A
 Frequencies --    330.6554               366.4292               460.8213
 Red. masses --      1.1811                 1.4484                 3.0353
 Frc consts  --      0.0761                 0.1146                 0.3798
 IR Inten    --     35.6259                51.0296                54.7087

                      7                      8                      9
                      A                      A                      A
 Frequencies --    472.7393               557.3528               790.3413
 Red. masses --      1.7923                 2.3168                 1.4796
 Frc consts  --      0.2360                 0.4240                 0.5445
 IR Inten    --     40.1704                16.3920               186.3288

                     10                     11                     12
                      A                      A                      A
 Frequencies --    840.4404               893.6176               955.7477
 Red. masses --      1.4899                 1.5103                 1.8196
 Frc consts  --      0.6200                 0.7106                 0.9793
 IR Inten    --     97.9542                83.4906                33.9008

                     13                     14                     15
                      A                      A                      A
 Frequencies --   1028.4054              1106.4575              1122.4059
 Red. masses --      2.3394                 3.5487                 1.4652
 Frc consts  --      1.4578                 2.5597                 1.0875
 IR Inten    --     67.9337                 9.5752                67.5072

                     16                     17                     18
                      A                      A                      A
 Frequencies --   1133.0520              1272.4912              1296.7050
 Red. masses --      2.0564                 1.3972                 1.3649
 Frc consts  --      1.5554                 1.3329                 1.3521
 IR Inten    --     16.4008                11.7748                 3.0693

                     19                     20                     21
                      A                      A                      A
 Frequencies --   1370.0684              1380.2566              1428.6559
 Red. masses --      1.2373                 1.2848                 1.4381
 Frc consts  --      1.3684                 1.4421                 1.7294
 IR Inten    --     16.4202                 8.6321                27.2224

                     22                     23                     24
                      A                      A                      A
 Frequencies --   1441.6352              1491.0165              1650.0048
 Red. masses --      1.2924                 1.0902                 1.1090
 Frc consts  --      1.5825                 1.4280                 1.7789
 IR Inten    --     51.8599                 1.5382                43.5451

                     25                     26                     27
                      A                      A                      A
 Frequencies --   1662.8206              2962.7948              3046.8064
 Red. masses --      1.0947                 1.0840                 1.0611
 Frc consts  --      1.7834                 5.6062                 5.8034
 IR Inten    --     25.8346                80.0237                34.2029

                     28                     29                     30
                      A                      A                      A
 Frequencies --   3099.3875              3493.9282              3495.8486
 Red. masses --      1.1053                 1.0489                 1.0486
 Frc consts  --      6.2557                 7.5440                 7.5505
 IR Inten    --     30.5742                 0.2296                 1.7331

                     31                     32                     33
                      A                      A                      A
 Frequencies --   3580.9245              3589.4856              3771.7342
 Red. masses --      1.0925                 1.0941                 1.0648
 Frc consts  --      8.2537                 8.3054                 8.9249
 IR Inten    --      1.0296                 0.4130                15.5056

 - Thermochemistry -
 -------------------
 Temperature   298.150 Kelvin.  Pressure   1.00000 Atm.
 Atom     1 has atomic number  7 and mass  14.00307

 Molecular mass:    76.06366 amu.
 Principal axes and moments of inertia in atomic units:
                           1         2         3
     Eigenvalues --   214.41582 512.93544 663.85605
           X            0.99991   0.00917  -0.00930
           Y           -0.00887   0.99944   0.03218
           Z            0.00959  -0.03209   0.99944
 This molecule is an asymmetric top.
 Rotational symmetry number  1.
 Rotational temperatures (Kelvin)      0.40395     0.16886     0.13047
 Rotational constants (GHZ):           8.41702     3.51846     2.71857
 Zero-point vibrational energy     303285.4 (Joules/Mol)
                                   72.48695 (Kcal/Mol)
 Warning -- explicit consideration of   8 degrees of freedom as
           vibrations may cause significant error
 Vibrational temperatures:    157.69   338.53   384.78   475.74   527.21
          (Kelvin)            663.02   680.17   801.91  1137.12  1209.20
                             1285.71  1375.11  1479.64  1591.94  1614.89
                             1630.21  1830.83  1865.67  1971.22  1985.88
                             2055.51  2074.19  2145.24  2373.99  2392.43
                             4262.80  4383.67  4459.32  5026.98  5029.74
                             5152.15  5164.46  5426.68

 Zero-point correction=                           0.115515 (Hartree/Particle)
 Thermal correction to Energy=                    0.121859
 Thermal correction to Enthalpy=                  0.122803
 Thermal correction to Gibbs Free Energy=         0.086288
 Sum of electronic and zero-point Energies=           -265.635310
 Sum of electronic and thermal Energies=              -265.628966
 Sum of electronic and thermal Enthalpies=            -265.628022
 Sum of electronic and thermal Free Energies=         -265.664537

                     E (Thermal)             CV                S
                      KCal/Mol        Cal/Mol-Kelvin    Cal/Mol-Kelvin
 Total                   76.468             22.569             76.853
 Electronic               0.000              0.000              0.000
 Translational            0.889              2.981             38.903
 Rotational               0.889              2.981             25.793
 Vibrational             74.690             16.608             12.157
 Vibration     1          0.606              1.942              3.276
 Vibration     2          0.655              1.787              1.838
 Vibration     3          0.673              1.733              1.613
 Vibration     4          0.713              1.614              1.257
 Vibration     5          0.739              1.541              1.095
 Vibration     6          0.819              1.337              0.764
 Vibration     7          0.830              1.311              0.730
 Vibration     8          0.913              1.124              0.529

 Optimization completed.
    -- Stationary point found.
 Normal termination of Gaussian 09 at Thu Sep  8 14:46:21 2022.
