 Gaussian 09, Revision E.01,
 Gaussian 09:  ES64L-G09RevE.01 30-Nov-2015

 --------------------------------
 #P OPT=calcfc Freq B3LYP/6-31G**
 --------------------------------

 --------
 Frag_148
 --------
 Symbolic Z-matrix:
 Charge =  0 Multiplicity = 1

 SCF Done:  E(RB3LYP) =  -189.269795811     A.U. after   14 cycles
 SCF Done:  E(RB3LYP) =  -189.279019915     A.U. after   14 cycles
 SCF Done:  E(RB3LYP) =  -189.278368785     A.U. after   13 cycles
 SCF Done:  E(RB3LYP) =  -189.279418121     A.U. after   11 cycles
 SCF Done:  E(RB3LYP) =  -189.280126011     A.U. after   12 cycles
 SCF Done:  E(RB3LYP) =  -189.280210559     A.U. after    9 cycles
 SCF Done:  E(RB3LYP) =  -189.280224482     A.U. after    9 cycles
 SCF Done:  E(RB3LYP) =  -189.280226953     A.U. after    9 cycles
 SCF Done:  E(RB3LYP) =  -189.280227184     A.U. after    7 cycles
 Optimization completed.
    -- Stationary point found.
 Normal termination of Gaussian 09 at Sat Aug 21 02:21:07 2021.

 ----------------------------------------------------------------------
 #P Geom=AllCheck Guess=TCheck SCRF=Check GenChk RB3LYP/6-31G(d,p) Freq
 ----------------------------------------------------------------------

 Structure from the checkpoint file:  "/public/home/users/caep010/.cache/gau_scr/Gau-227831.chk"
 --------
 Frag_148
 --------
 Charge =  0 Multiplicity = 1

                         Standard orientation:
 ---------------------------------------------------------------------
 Center     Atomic      Atomic             Coordinates (Angstroms)
 Number     Number       Type             X           Y           Z
 ---------------------------------------------------------------------
      1          6           0       -1.425893    0.509847    0.004200
      2          7           0       -0.813211   -0.616132   -0.041792
      3          7           0        0.534599   -0.666983    0.129961
      4          6           0        1.374186    0.506440   -0.036093
      5          1           0       -0.950139    1.481676    0.146975
      6          1           0       -2.507001    0.483124   -0.089889
      7          1           0        0.897976   -1.518362   -0.273498
      8          1           0        2.417495    0.183989   -0.037804
      9          1           0        1.163435    1.051094   -0.970866
     10          1           0        1.238765    1.202568    0.799262
 ---------------------------------------------------------------------

 SCF Done:  E(RB3LYP) =  -189.280227184     A.U. after    1 cycles

 The electronic state is 1-A.
 Alpha  occ. eigenvalues --  -14.36638 -14.35696 -10.21799 -10.19772  -0.99258
 Alpha  occ. eigenvalues --   -0.81724  -0.70150  -0.58101  -0.51361  -0.48620
 Alpha  occ. eigenvalues --   -0.44635  -0.41078  -0.39645  -0.35167  -0.26093
 Alpha  occ. eigenvalues --   -0.21782
 Alpha virt. eigenvalues --    0.02068   0.08763   0.10954   0.15065   0.15843
 Alpha virt. eigenvalues --    0.16890   0.19556   0.21325   0.25314   0.35436
 Alpha virt. eigenvalues --    0.51422   0.54701   0.56318   0.58239   0.62962

 Mulliken charges:
               1
     1  C   -0.086332
     2  N   -0.208048
     3  N   -0.331386
     4  C   -0.184141
     5  H    0.082249
     6  H    0.104368
     7  H    0.270348
     8  H    0.114812
     9  H    0.110164
    10  H    0.127965
 Sum of Mulliken charges =  -0.00000

 Dipole moment (field-independent basis, Debye):
    X=              1.7375    Y=              0.9659    Z=             -0.5679  Tot=              2.0675
 Quadrupole moment (field-independent basis, Debye-Ang):
   XX=            -22.8706   YY=            -24.1056   ZZ=            -26.5324
   XY=             -2.5320   XZ=             -0.6949   YZ=              1.1778

  Exact polarizability:  49.837  -6.147  37.197   0.393   1.007  22.278
 Approx polarizability:  68.094 -15.016  59.935   1.699   0.648  30.892

                      1                      2                      3
                      A                      A                      A
 Frequencies --    257.0683               292.3117               330.6242
 Red. masses --      1.1089                 2.3096                 2.4179
 Frc consts  --      0.0432                 0.1163                 0.1557
 IR Inten    --      0.5173                 6.9441                 8.0441

                      4                      5                      6
                      A                      A                      A
 Frequencies --    550.2827               631.3331               791.4621
 Red. masses --      1.4521                 1.9270                 1.2521
 Frc consts  --      0.2591                 0.4525                 0.4621
 IR Inten    --    116.7483                72.2375                 0.7737

                      7                      8                      9
                      A                      A                      A
 Frequencies --    903.0761               948.3357              1138.8749
 Red. masses --      1.3964                 2.2005                 1.6307
 Frc consts  --      0.6710                 1.1660                 1.2462
 IR Inten    --     35.4560                 8.1167                 1.2812

                     10                     11                     12
                      A                      A                      A
 Frequencies --   1142.0732              1207.1471              1242.1542
 Red. masses --      2.0516                 1.8058                 1.9071
 Frc consts  --      1.5766                 1.5504                 1.7337
 IR Inten    --     28.3188                 6.0446                12.2947

                     13                     14                     15
                      A                      A                      A
 Frequencies --   1444.3548              1483.2858              1489.5419
 Red. masses --      1.2230                 1.2176                 1.1052
 Frc consts  --      1.5033                 1.5784                 1.4448
 IR Inten    --      9.3850                10.6372                 5.6701

                     16                     17                     18
                      A                      A                      A
 Frequencies --   1523.7769              1532.9620              1692.0517
 Red. masses --      1.1132                 1.0601                 4.2319
 Frc consts  --      1.5229                 1.4678                 7.1387
 IR Inten    --      1.8874                23.1877                24.6141

                     19                     20                     21
                      A                      A                      A
 Frequencies --   2987.2356              3071.6860              3103.3818
 Red. masses --      1.0512                 1.0873                 1.0586
 Frc consts  --      5.5269                 6.0442                 6.0069
 IR Inten    --     46.5511                31.3927                21.7396

                     22                     23                     24
                      A                      A                      A
 Frequencies --   3138.0549              3219.9608              3620.6194
 Red. masses --      1.0994                 1.1120                 1.0775
 Frc consts  --      6.3784                 6.7930                 8.3219
 IR Inten    --     16.5128                20.3382                14.7013

 - Thermochemistry -
 -------------------
 Temperature   298.150 Kelvin.  Pressure   1.00000 Atm.
 Atom     1 has atomic number  6 and mass  12.00000

 Molecular mass:    58.05310 amu.
 Principal axes and moments of inertia in atomic units:
                           1         2         3
     Eigenvalues --    96.20374 282.34528 364.54256
           X            0.99989  -0.01342  -0.00559
           Y            0.01354   0.99967   0.02183
           Z            0.00529  -0.02190   0.99975
 This molecule is an asymmetric top.
 Rotational symmetry number  1.
 Rotational temperatures (Kelvin)      0.90032     0.30677     0.23760
 Rotational constants (GHZ):          18.75957     6.39197     4.95070
 Zero-point vibrational energy     225745.2 (Joules/Mol)
                                   53.95440 (Kcal/Mol)
 Warning -- explicit consideration of   4 degrees of freedom as
           vibrations may cause significant error
 Vibrational temperatures:    369.86   420.57   475.69   791.73   908.35
          (Kelvin)           1138.74  1299.32  1364.44  1638.58  1643.19
                             1736.81  1787.18  2078.10  2134.11  2143.12
                             2192.37  2205.59  2434.48  4297.96  4419.47
                             4465.07  4514.96  4632.80  5209.26

 Zero-point correction=                           0.085982 (Hartree/Particle)
 Thermal correction to Energy=                    0.090717
 Thermal correction to Enthalpy=                  0.091661
 Thermal correction to Gibbs Free Energy=         0.059371
 Sum of electronic and zero-point Energies=           -189.194245
 Sum of electronic and thermal Energies=              -189.189510
 Sum of electronic and thermal Enthalpies=            -189.188566
 Sum of electronic and thermal Free Energies=         -189.220857

                     E (Thermal)             CV                S
                      KCal/Mol        Cal/Mol-Kelvin    Cal/Mol-Kelvin
 Total                   56.926             16.014             67.961
 Electronic               0.000              0.000              0.000
 Translational            0.889              2.981             38.097
 Rotational               0.889              2.981             23.808
 Vibrational             55.148             10.052              6.055
 Vibration     1          0.667              1.751              1.682
 Vibration     2          0.688              1.688              1.461
 Vibration     3          0.713              1.614              1.257
 Vibration     4          0.906              1.139              0.544

 Optimization completed.
    -- Stationary point found.
 Normal termination of Gaussian 09 at Sat Aug 21 02:21:14 2021.
