 Gaussian 09, Revision D.01,
 Gaussian 09:  ES64L-G09RevD.01 24-Apr-2013

 -------------------------
 #P OPT Freq B3LYP/6-31G**
 -------------------------

 -------
 Frag_66
 -------
 Symbolic Z-matrix:
 Charge =  0 Multiplicity = 1

 SCF Done:  E(RB3LYP) =  -268.396763184     A.U. after   14 cycles
 Optimization completed.
    -- Stationary point found.

 1\1\GINC-FN13\FOpt\RB3LYP\6-31G(d,p)\C3H6O2\LIUJ201281\23-Jul-2021\0\\
 #P OPT Freq B3LYP/6-31G**\\Frag_66\\0,1\C,1.8715,-0.1629,0.\O,0.5489,-
 0.7249,0.0001\C,-0.4609,0.1776,0.\C,-1.8015,-0.5171,0.\O,-0.2846,1.375
 9,0.\H,2.0292,0.4535,0.8884\H,2.5532,-1.0133,-0.0012\H,2.0283,0.4553,-
 0.8874\H,-1.8919,-1.1583,-0.8816\H,-2.5955,0.2286,0.0006\H,-1.8915,-1.
 1594,0.8808\\Version=ES64L-G09RevD.01\State=1-A\HF=-268.3967632\RMSD=2
 .164e-09\RMSF=4.334e-05\Dipole=0.1373415,-0.6849648,-0.0001267\Quadrup
 ole=3.8185545,-3.9739242,0.1553697,1.0302216,-0.0000441,0.0002406\PG=C

 Normal termination of Gaussian 09 at Fri Jul 23 00:14:48 2021.

 ----------------------------------------------------------------------
 #P Geom=AllCheck Guess=TCheck SCRF=Check GenChk RB3LYP/6-31G(d,p) Freq
 ----------------------------------------------------------------------

 Structure from the checkpoint file:  "/vol2/users/liuj201281/HOFBenchmark/IsodesmicSplit/Sample60/Ring26/Running/Gau-262314.chk"
 -------
 Frag_66
 -------
 Charge =  0 Multiplicity = 1

                         Standard orientation:
 ---------------------------------------------------------------------
 Center     Atomic      Atomic             Coordinates (Angstroms)
 Number     Number       Type             X           Y           Z
 ---------------------------------------------------------------------
      1          6           0        1.871477   -0.162931   -0.000010
      2          8           0        0.548868   -0.724909    0.000090
      3          6           0       -0.460917    0.177608   -0.000010
      4          6           0       -1.801529   -0.517070   -0.000010
      5          8           0       -0.284597    1.375905   -0.000010
      6          1           0        2.029188    0.453466    0.888390
      7          1           0        2.553163   -1.013342   -0.001210
      8          1           0        2.028288    0.455266   -0.887410
      9          1           0       -1.891939   -1.158269   -0.881610
     10          1           0       -2.595516    0.228643    0.000590
     11          1           0       -1.891539   -1.159369    0.880790
 ---------------------------------------------------------------------

 SCF Done:  E(RB3LYP) =  -268.396763184     A.U. after    1 cycles

 The electronic state is 1-A.
 Alpha  occ. eigenvalues --  -19.18975 -19.13288 -10.31396 -10.23948 -10.19594
 Alpha  occ. eigenvalues --   -1.09812  -1.01020  -0.76604  -0.69987  -0.56410
 Alpha  occ. eigenvalues --   -0.49383  -0.48368  -0.47110  -0.42972  -0.41690
 Alpha  occ. eigenvalues --   -0.39959  -0.36650  -0.35476  -0.29964  -0.26945
 Alpha virt. eigenvalues --    0.01463   0.10489   0.11992   0.13116   0.15715
 Alpha virt. eigenvalues --    0.16095   0.16871   0.18549   0.23162   0.29985
 Alpha virt. eigenvalues --    0.34786   0.50069   0.51706   0.54980   0.55729

 Mulliken charges:
               1
     1  C   -0.082662
     2  O   -0.451413
     3  C    0.581856
     4  C   -0.382533
     5  O   -0.467520
     6  H    0.129437
     7  H    0.118890
     8  H    0.129464
     9  H    0.141630
    10  H    0.141227
    11  H    0.141624
 Sum of Mulliken charges =   0.00000

 Dipole moment (field-independent basis, Debye):
    X=              0.3491    Y=             -1.7410    Z=             -0.0003  Tot=              1.7757
 Quadrupole moment (field-independent basis, Debye-Ang):
   XX=            -23.8991   YY=            -34.3804   ZZ=            -28.8263
   XY=              1.3855   XZ=             -0.0001   YZ=              0.0003

  Exact polarizability:  45.516  -0.221  38.569   0.001   0.001  28.825
 Approx polarizability:  52.005  -1.497  63.072   0.002   0.000  39.521

                      1                      2                      3
                      A                      A                      A
 Frequencies --     58.8615               127.3487               181.5486
 Red. masses --      1.0848                 1.0880                 2.8250
 Frc consts  --      0.0022                 0.0104                 0.0549
 IR Inten    --      0.5670                 0.2998                 6.4984

                      4                      5                      6
                      A                      A                      A
 Frequencies --    282.3216               421.6902               603.0113
 Red. masses --      3.1197                 3.2271                 2.6864
 Frc consts  --      0.1465                 0.3381                 0.5755
 IR Inten    --     12.2286                 6.3099                 5.9993

                      7                      8                      9
                      A                      A                      A
 Frequencies --    644.5427               863.3556               989.5234
 Red. masses --      4.3884                 3.7768                 2.1709
 Frc consts  --      1.0741                 1.6586                 1.2524
 IR Inten    --      5.9417                16.7115                 1.1446

                     10                     11                     12
                      A                      A                      A
 Frequencies --   1067.0131              1081.6856              1179.3885
 Red. masses --      1.7744                 3.4850                 1.2797
 Frc consts  --      1.1902                 2.4025                 1.0488
 IR Inten    --      8.0029                68.2502                 0.9400

                     13                     14                     15
                      A                      A                      A
 Frequencies --   1212.3867              1285.0642              1407.9609
 Red. masses --      1.4919                 3.7297                 1.3479
 Frc consts  --      1.2920                 3.6289                 1.5743
 IR Inten    --      1.3870               331.2932                50.3490

                     16                     17                     18
                      A                      A                      A
 Frequencies --   1481.3152              1485.7930              1490.4794
 Red. masses --      1.1338                 1.1230                 1.0466
 Frc consts  --      1.4658                 1.4606                 1.3699
 IR Inten    --      9.2155                17.8378                 6.1128

                     19                     20                     21
                      A                      A                      A
 Frequencies --   1496.9477              1511.1207              1834.6213
 Red. masses --      1.0466                 1.0501                10.6099
 Frc consts  --      1.3818                 1.4129                21.0405
 IR Inten    --      6.9707                 7.3706               221.6142

                     22                     23                     24
                      A                      A                      A
 Frequencies --   3063.8606              3067.4030              3133.4621
 Red. masses --      1.0299                 1.0367                 1.1006
 Frc consts  --      5.6962                 5.7469                 6.3670
 IR Inten    --     26.9451                 4.3945                 5.8760

                     25                     26                     27
                      A                      A                      A
 Frequencies --   3140.6660              3172.2119              3182.5998
 Red. masses --      1.1069                 1.1071                 1.1037
 Frc consts  --      6.4328                 6.5637                 6.5867
 IR Inten    --     23.1260                17.1921                 7.0837

 - Thermochemistry -
 -------------------
 Temperature   298.150 Kelvin.  Pressure   1.00000 Atm.
 Atom     1 has atomic number  6 and mass  12.00000

 Molecular mass:    74.03678 amu.
 Principal axes and moments of inertia in atomic units:
                           1         2         3
     Eigenvalues --   177.71591 434.90846 590.09629
           X            0.99912   0.04187  -0.00001
           Y           -0.04187   0.99912   0.00002
           Z            0.00001  -0.00002   1.00000
 This molecule is an asymmetric top.
 Rotational symmetry number  1.
 Rotational temperatures (Kelvin)      0.48737     0.19915     0.14678
 Rotational constants (GHZ):          10.15520     4.14970     3.05838
 Zero-point vibrational energy     236060.2 (Joules/Mol)
                                   56.41974 (Kcal/Mol)
 Warning -- explicit consideration of   6 degrees of freedom as
           vibrations may cause significant error
 Vibrational temperatures:     84.69   183.23   261.21   406.20   606.72
          (Kelvin)            867.60   927.35  1242.17  1423.70  1535.19
                             1556.30  1696.87  1744.35  1848.92  2025.74
                             2131.28  2137.72  2144.46  2153.77  2174.16
                             2639.61  4408.21  4413.30  4508.35  4518.71
                             4564.10  4579.05

 Zero-point correction=                           0.089911 (Hartree/Particle)
 Thermal correction to Energy=                    0.096096
 Thermal correction to Enthalpy=                  0.097040
 Thermal correction to Gibbs Free Energy=         0.060093
 Sum of electronic and zero-point Energies=           -268.306853
 Sum of electronic and thermal Energies=              -268.300668
 Sum of electronic and thermal Enthalpies=            -268.299723
 Sum of electronic and thermal Free Energies=         -268.336671

                     E (Thermal)             CV                S
                      KCal/Mol        Cal/Mol-Kelvin    Cal/Mol-Kelvin
 Total                   60.301             19.447             77.762
 Electronic               0.000              0.000              0.000
 Translational            0.889              2.981             38.822
 Rotational               0.889              2.981             25.326
 Vibrational             58.523             13.486             13.614
 Vibration     1          0.596              1.974              4.495
 Vibration     2          0.611              1.926              2.986
 Vibration     3          0.630              1.865              2.312
 Vibration     4          0.681              1.706              1.520
 Vibration     5          0.784              1.423              0.886
 Vibration     6          0.961              1.025              0.445

 Optimization completed.
    -- Stationary point found.

 1\1\GINC-FN13\Freq\RB3LYP\6-31G(d,p)\C3H6O2\LIUJ201281\23-Jul-2021\0\\
 #P Geom=AllCheck Guess=TCheck SCRF=Check GenChk RB3LYP/6-31G(d,p) Freq
 \\Frag_66\\0,1\C,1.8715,-0.1629,0.\O,0.5489,-0.7249,0.0001\C,-0.4609,0
 .1776,0.\C,-1.8015,-0.5171,0.\O,-0.2846,1.3759,0.\H,2.0292,0.4535,0.88
 84\H,2.5532,-1.0133,-0.0012\H,2.0283,0.4553,-0.8874\H,-1.8919,-1.1583,
 -0.8816\H,-2.5955,0.2286,0.0006\H,-1.8915,-1.1594,0.8808\\Version=ES64
 L-G09RevD.01\State=1-A\HF=-268.3967632\RMSD=1.518e-09\RMSF=4.333e-05\Z
 eroPoint=0.0899106\Thermal=0.0960956\Dipole=0.1373416,-0.6849652,-0.00

 Normal termination of Gaussian 09 at Fri Jul 23 00:15:00 2021.
