 Gaussian 09, Revision E.01,
 Gaussian 09:  ES64L-G09RevE.01 30-Nov-2015

 ----------------------------
 #P OPT Freq B3LYP/6-31G(d,p)
 ----------------------------

 --------
 Frag_936
 --------
 Symbolic Z-matrix:
 Charge =  0 Multiplicity = 1

 SCF Done:  E(RB3LYP) =  -244.635257447     A.U. after   13 cycles
 SCF Done:  E(RB3LYP) =  -244.635301494     A.U. after   11 cycles
 SCF Done:  E(RB3LYP) =  -244.635135361     A.U. after   13 cycles
 SCF Done:  E(RB3LYP) =  -244.635305003     A.U. after   12 cycles
 SCF Done:  E(RB3LYP) =  -244.635307580     A.U. after    8 cycles
 Optimization completed.
    -- Stationary point found.
 Normal termination of Gaussian 09 at Thu Sep  8 15:11:19 2022.

 ----------------------------------------------------------------------
 #P Geom=AllCheck Guess=TCheck SCRF=Check GenChk RB3LYP/6-31G(d,p) Freq
 ----------------------------------------------------------------------

 Structure from the checkpoint file:  "B3LYP6-31Gdp.Frag_936.chk"
 --------
 Frag_936
 --------
 Charge =  0 Multiplicity = 1

                         Standard orientation:
 ---------------------------------------------------------------------
 Center     Atomic      Atomic             Coordinates (Angstroms)
 Number     Number       Type             X           Y           Z
 ---------------------------------------------------------------------
      1          6           0        1.518345   -0.756321   -0.244275
      2          6           0        0.403919    0.042165    0.427412
      3          7           0        0.267414    1.390158   -0.074553
      4          7           0       -0.874214   -0.781883    0.258838
      5          7           0       -1.840715   -0.229413   -0.273004
      6          1           0        1.491293   -1.796366    0.088742
      7          1           0        1.383772   -0.750627   -1.332244
      8          1           0        2.499568   -0.332742   -0.010237
      9          1           0        0.555806    0.046859    1.513611
     10          1           0        0.875718    1.594784   -0.857539
     11          1           0        0.369410    2.105875    0.632503
     12          1           0       -1.576548    0.765116   -0.512623
 ---------------------------------------------------------------------

 SCF Done:  E(RB3LYP) =  -244.635307580     A.U. after    1 cycles

 The electronic state is 1-A.
 Alpha  occ. eigenvalues --  -14.36731 -14.35319 -14.34325 -10.24745 -10.19126
 Alpha  occ. eigenvalues --   -1.01239  -0.90383  -0.76057  -0.66186  -0.58673
 Alpha  occ. eigenvalues --   -0.52794  -0.50168  -0.47158  -0.41915  -0.39698
 Alpha  occ. eigenvalues --   -0.38705  -0.33790  -0.33717  -0.27242  -0.21531
 Alpha virt. eigenvalues --   -0.01885   0.06308   0.10697   0.12321   0.15376
 Alpha virt. eigenvalues --    0.15739   0.17013   0.18771   0.20804   0.24356
 Alpha virt. eigenvalues --    0.26206   0.41920   0.51777   0.52842   0.55549

 Mulliken charges:
               1
     1  C   -0.324627
     2  C    0.147838
     3  N   -0.621340
     4  N   -0.182681
     5  N   -0.247427
     6  H    0.137119
     7  H    0.115119
     8  H    0.107800
     9  H    0.116428
    10  H    0.259265
    11  H    0.262088
    12  H    0.230420
 Sum of Mulliken charges =   0.00000

 Dipole moment (field-independent basis, Debye):
    X=              3.6115    Y=              2.7388    Z=              0.2365  Tot=              4.5387
 Quadrupole moment (field-independent basis, Debye-Ang):
   XX=            -35.3523   YY=            -29.8700   ZZ=            -29.1174
   XY=             -1.6292   XZ=             -0.6977   YZ=              0.8829

  Exact polarizability:  48.451  -1.196  41.852   3.249  -1.895  35.047
 Approx polarizability:  68.320  -3.042  59.543   8.196  -5.370  52.188

                      1                      2                      3
                      A                      A                      A
 Frequencies --    116.6254               231.3912               264.9359
 Red. masses --      2.2367                 1.1773                 1.2239
 Frc consts  --      0.0179                 0.0371                 0.0506
 IR Inten    --      0.1590                 3.1825                10.1989

                      4                      5                      6
                      A                      A                      A
 Frequencies --    368.2032               402.3599               475.7510
 Red. masses --      2.7709                 2.8734                 2.5750
 Frc consts  --      0.2213                 0.2741                 0.3434
 IR Inten    --     11.4086                 5.9042                16.7327

                      7                      8                      9
                      A                      A                      A
 Frequencies --    639.7127               733.3883               750.5152
 Red. masses --      2.0360                 3.9366                 2.2625
 Frc consts  --      0.4909                 1.2475                 0.7509
 IR Inten    --     83.2147                 9.2980                41.8371

                     10                     11                     12
                      A                      A                      A
 Frequencies --    916.6780               976.4098              1036.2027
 Red. masses --      2.1449                 1.1709                 1.3461
 Frc consts  --      1.0619                 0.6577                 0.8516
 IR Inten    --      6.8223                20.5257                10.4922

                     13                     14                     15
                      A                      A                      A
 Frequencies --   1113.3015              1179.0908              1262.9909
 Red. masses --      1.6145                 2.0041                 1.6841
 Frc consts  --      1.1790                 1.6416                 1.5828
 IR Inten    --     31.1056                21.8469                 4.8759

                     16                     17                     18
                      A                      A                      A
 Frequencies --   1308.7699              1398.5423              1422.7891
 Red. masses --      1.3051                 1.2708                 1.3413
 Frc consts  --      1.3171                 1.4644                 1.5997
 IR Inten    --      2.5337                 5.4815                 9.8068

                     19                     20                     21
                      A                      A                      A
 Frequencies --   1504.0860              1510.7396              1515.4230
 Red. masses --      1.0494                 1.0462                 1.2392
 Frc consts  --      1.3988                 1.4068                 1.6767
 IR Inten    --      3.3786                 2.8950               105.6990

                     22                     23                     24
                      A                      A                      A
 Frequencies --   1660.2369              1699.1043              2983.2041
 Red. masses --      1.1168                 9.3188                 1.0658
 Frc consts  --      1.8137                15.8508                 5.5884
 IR Inten    --     30.1620                19.3496                31.6871

                     25                     26                     27
                      A                      A                      A
 Frequencies --   3045.6409              3055.7005              3118.1677
 Red. masses --      1.0401                 1.0830                 1.1015
 Frc consts  --      5.6845                 5.9582                 6.3101
 IR Inten    --     12.9850                23.6842                28.2681

                     28                     29                     30
                      A                      A                      A
 Frequencies --   3145.2860              3561.8501              3658.1656
 Red. masses --      1.1017                 1.0493                 1.0967
 Frc consts  --      6.4214                 7.8430                 8.6470
 IR Inten    --     12.6914                 5.8877                11.7831

 - Thermochemistry -
 -------------------
 Temperature   298.150 Kelvin.  Pressure   1.00000 Atm.
 Atom     1 has atomic number  6 and mass  12.00000

 Molecular mass:    73.06400 amu.
 Principal axes and moments of inertia in atomic units:
                           1         2         3
     Eigenvalues --   232.11629 404.45095 561.79117
           X            0.99747  -0.07065  -0.00733
           Y            0.07073   0.99743   0.01125
           Z            0.00652  -0.01174   0.99991
 This molecule is an asymmetric top.
 Rotational symmetry number  1.
 Rotational temperatures (Kelvin)      0.37315     0.21415     0.15417
 Rotational constants (GHZ):           7.77516     4.46220     3.21248
 Zero-point vibrational energy     269490.3 (Joules/Mol)
                                   64.40973 (Kcal/Mol)
 Warning -- explicit consideration of   6 degrees of freedom as
           vibrations may cause significant error
 Vibrational temperatures:    167.80   332.92   381.18   529.76   578.91
          (Kelvin)            684.50   920.40  1055.18  1079.82  1318.89
                             1404.83  1490.86  1601.79  1696.45  1817.16
                             1883.03  2012.19  2047.07  2164.04  2173.61
                             2180.35  2388.71  2444.63  4292.16  4381.99
                             4396.47  4486.34  4525.36  5124.70  5263.28

 Zero-point correction=                           0.102643 (Hartree/Particle)
 Thermal correction to Energy=                    0.108605
 Thermal correction to Enthalpy=                  0.109549
 Thermal correction to Gibbs Free Energy=         0.073852
 Sum of electronic and zero-point Energies=           -244.532664
 Sum of electronic and thermal Energies=              -244.526703
 Sum of electronic and thermal Enthalpies=            -244.525759
 Sum of electronic and thermal Free Energies=         -244.561456

                     E (Thermal)             CV                S
                      KCal/Mol        Cal/Mol-Kelvin    Cal/Mol-Kelvin
 Total                   68.150             20.706             75.131
 Electronic               0.000              0.000              0.000
 Translational            0.889              2.981             38.783
 Rotational               0.889              2.981             25.470
 Vibrational             66.373             14.744             10.878
 Vibration     1          0.608              1.936              3.156
 Vibration     2          0.653              1.793              1.868
 Vibration     3          0.671              1.737              1.629
 Vibration     4          0.741              1.538              1.087
 Vibration     5          0.768              1.465              0.954
 Vibration     6          0.832              1.304              0.722

 Normal termination of Gaussian 09 at Thu Sep  8 15:11:28 2022.
