 Gaussian 09, Revision E.01,
 Gaussian 09:  ES64L-G09RevE.01 30-Nov-2015

 ----------------------------
 #P OPT Freq B3LYP/6-31G(d,p)
 ----------------------------

 --------
 Frag_969
 --------
 Symbolic Z-matrix:
 Charge =  0 Multiplicity = 1

 SCF Done:  E(RB3LYP) =  -323.296431188     A.U. after   13 cycles
 SCF Done:  E(RB3LYP) =  -323.296478650     A.U. after   10 cycles
 SCF Done:  E(RB3LYP) =  -323.296478949     A.U. after    9 cycles
 SCF Done:  E(RB3LYP) =  -323.296481513     A.U. after    9 cycles
 SCF Done:  E(RB3LYP) =  -323.296481783     A.U. after    7 cycles
 Optimization completed.
    -- Stationary point found.
 Normal termination of Gaussian 09 at Thu Sep  8 15:17:11 2022.

 ----------------------------------------------------------------------
 #P Geom=AllCheck Guess=TCheck SCRF=Check GenChk RB3LYP/6-31G(d,p) Freq
 ----------------------------------------------------------------------

 Structure from the checkpoint file:  "B3LYP6-31Gdp.Frag_969.chk"
 --------
 Frag_969
 --------
 Charge =  0 Multiplicity = 1

                         Standard orientation:
 ---------------------------------------------------------------------
 Center     Atomic      Atomic             Coordinates (Angstroms)
 Number     Number       Type             X           Y           Z
 ---------------------------------------------------------------------
      1          6           0       -1.674444    1.223525    0.037990
      2          6           0       -0.962063    0.087490    0.011264
      3          7           0       -1.522403   -1.194162    0.078241
      4          6           0        0.574256    0.039402   -0.026622
      5          6           0        1.106286   -0.665750    1.239898
      6          7           0        0.942835   -0.781825   -1.189141
      7          7           0        1.118438    1.400800   -0.173635
      8          1           0       -1.199650    2.193160    0.002953
      9          1           0       -2.759833    1.201586    0.075754
     10          1           0       -2.513439   -1.214344   -0.126590
     11          1           0       -1.004958   -1.846287   -0.503904
     12          1           0        0.830650   -0.093231    2.129930
     13          1           0        0.698490   -1.672829    1.343928
     14          1           0        2.201256   -0.729445    1.199582
     15          1           0        1.938784   -0.992203   -1.163928
     16          1           0        0.779056   -0.227002   -2.027816
     17          1           0        0.857996    1.961032    0.636948
     18          1           0        2.135340    1.337869   -0.150298
 ---------------------------------------------------------------------

 SCF Done:  E(RB3LYP) =  -323.296481783     A.U. after    1 cycles

 The electronic state is 1-A.
 Alpha  occ. eigenvalues --  -14.31808 -14.31742 -14.31148 -10.24764 -10.20674
 Alpha  occ. eigenvalues --  -10.17334 -10.14664  -0.93075  -0.88297  -0.83593
 Alpha  occ. eigenvalues --   -0.72574  -0.70818  -0.61554  -0.53002  -0.50648
 Alpha  occ. eigenvalues --   -0.49250  -0.47725  -0.44270  -0.42762  -0.41051
 Alpha  occ. eigenvalues --   -0.39310  -0.38178  -0.36911  -0.33494  -0.30881
 Alpha  occ. eigenvalues --   -0.25549  -0.23904  -0.19419
 Alpha virt. eigenvalues --    0.04790   0.06917   0.10992   0.11840   0.13482
 Alpha virt. eigenvalues --    0.15508   0.15774   0.16308   0.18096   0.19116
 Alpha virt. eigenvalues --    0.20042   0.21368   0.24053   0.26592   0.26671

 Mulliken charges:
               1
     1  C   -0.335342
     2  C    0.343748
     3  N   -0.637564
     4  C    0.167731
     5  C   -0.291404
     6  N   -0.590510
     7  N   -0.586322
     8  H    0.091203
     9  H    0.069198
    10  H    0.246556
    11  H    0.269317
    12  H    0.107934
    13  H    0.124665
    14  H    0.080075
    15  H    0.231937
    16  H    0.250131
    17  H    0.235580
    18  H    0.223065
 Sum of Mulliken charges =  -0.00000

 Dipole moment (field-independent basis, Debye):
    X=              1.4435    Y=             -0.3910    Z=             -0.1411  Tot=              1.5022
 Quadrupole moment (field-independent basis, Debye-Ang):
   XX=            -36.8926   YY=            -45.3191   ZZ=            -44.7216
   XY=              1.9223   XZ=              1.2219   YZ=              3.4056

  Exact polarizability:  71.954  -5.682  71.183  -0.656   1.762  48.110
 Approx polarizability:  94.943 -11.580 110.756  -2.357   3.044  66.414

                      1                      2                      3
                      A                      A                      A
 Frequencies --     82.6657               238.8246               275.1456
 Red. masses --      3.5016                 1.3155                 1.8372
 Frc consts  --      0.0141                 0.0442                 0.0819
 IR Inten    --      0.4598                 3.0039                 1.9966

                      4                      5                      6
                      A                      A                      A
 Frequencies --    290.9266               300.3705               342.0724
 Red. masses --      1.3228                 2.0530                 1.2157
 Frc consts  --      0.0660                 0.1091                 0.0838
 IR Inten    --     18.8327                 8.0455                26.1332

                      7                      8                      9
                      A                      A                      A
 Frequencies --    380.6036               398.8771               433.1175
 Red. masses --      2.0398                 2.3895                 1.6844
 Frc consts  --      0.1741                 0.2240                 0.1862
 IR Inten    --     10.9044                11.8327                42.1477

                     10                     11                     12
                      A                      A                      A
 Frequencies --    435.6413               514.5985               523.9852
 Red. masses --      1.5487                 2.5410                 2.6328
 Frc consts  --      0.1732                 0.3964                 0.4259
 IR Inten    --     24.6786                17.0425                21.8327

                     13                     14                     15
                      A                      A                      A
 Frequencies --    655.6553               703.1692               711.7276
 Red. masses --      2.6030                 1.5079                 1.6297
 Frc consts  --      0.6593                 0.4393                 0.4864
 IR Inten    --     59.3033                21.8507                28.4046

                     16                     17                     18
                      A                      A                      A
 Frequencies --    781.7981               825.1660               870.2127
 Red. masses --      1.4040                 1.6484                 2.2341
 Frc consts  --      0.5056                 0.6613                 0.9968
 IR Inten    --     92.7599               132.9419                62.1418

                     19                     20                     21
                      A                      A                      A
 Frequencies --    912.2848               942.0801               975.2015
 Red. masses --      1.6481                 1.3307                 1.6509
 Frc consts  --      0.8082                 0.6958                 0.9251
 IR Inten    --    147.2335                37.7342                 2.9857

                     22                     23                     24
                      A                      A                      A
 Frequencies --    997.0450              1037.8307              1091.9016
 Red. masses --      1.4897                 1.6750                 1.5663
 Frc consts  --      0.8725                 1.0630                 1.1003
 IR Inten    --      1.6289                49.2376                13.0781

                     25                     26                     27
                      A                      A                      A
 Frequencies --   1144.0128              1224.8646              1290.3036
 Red. masses --      1.5065                 2.5532                 1.8367
 Frc consts  --      1.1617                 2.2569                 1.8016
 IR Inten    --     10.0956                56.5452                24.5728

                     28                     29                     30
                      A                      A                      A
 Frequencies --   1325.1773              1395.8908              1419.2075
 Red. masses --      1.9487                 2.3778                 1.2790
 Frc consts  --      2.0162                 2.7298                 1.5178
 IR Inten    --     12.5964                27.8834                 6.3067

                     31                     32                     33
                      A                      A                      A
 Frequencies --   1457.9832              1495.2231              1514.6631
 Red. masses --      1.1943                 1.0487                 1.0789
 Frc consts  --      1.4958                 1.3814                 1.4583
 IR Inten    --      3.0544                 0.8825                 1.6916

                     34                     35                     36
                      A                      A                      A
 Frequencies --   1640.8030              1653.0312              1665.9229
 Red. masses --      1.1412                 1.1015                 1.1037
 Frc consts  --      1.8101                 1.7733                 1.8048
 IR Inten    --     61.2519                50.6350                25.7139

                     37                     38                     39
                      A                      A                      A
 Frequencies --   1728.8664              3035.2026              3114.3608
 Red. masses --      5.0682                 1.0431                 1.0947
 Frc consts  --      8.9254                 5.6618                 6.2560
 IR Inten    --     79.6764                30.0345                25.6452

                     40                     41                     42
                      A                      A                      A
 Frequencies --   3149.9706              3169.0902              3278.6047
 Red. masses --      1.1019                 1.0655                 1.1094
 Frc consts  --      6.4418                 6.3048                 7.0264
 IR Inten    --     16.0425                12.6575                 6.8933

                     43                     44                     45
                      A                      A                      A
 Frequencies --   3468.3675              3477.6273              3520.5249
 Red. masses --      1.0498                 1.0488                 1.0491
 Frc consts  --      7.4403                 7.4733                 7.6612
 IR Inten    --      2.4862                 1.1724                21.0745

                     46                     47                     48
                      A                      A                      A
 Frequencies --   3552.8030              3565.5285              3637.1984
 Red. masses --      1.0915                 1.0929                 1.0951
 Frc consts  --      8.1177                 8.1860                 8.5358
 IR Inten    --      0.8582                 1.0504                13.2663

 - Thermochemistry -
 -------------------
 Temperature   298.150 Kelvin.  Pressure   1.00000 Atm.
 Atom     1 has atomic number  6 and mass  12.00000

 Molecular mass:   101.09530 amu.
 Principal axes and moments of inertia in atomic units:
                           1         2         3
     Eigenvalues --   547.97450 753.33606 924.42962
           X            0.99942  -0.02565   0.02229
           Y            0.02543   0.99963   0.01008
           Z           -0.02254  -0.00951   0.99970
 This molecule is an asymmetric top.
 Rotational symmetry number  1.
 Warning -- assumption of classical behavior for rotation
           may cause significant error
 Rotational temperatures (Kelvin)      0.15806     0.11497     0.09369
 Rotational constants (GHZ):           3.29348     2.39567     1.95228
 Zero-point vibrational energy     422557.7 (Joules/Mol)
                                  100.99371 (Kcal/Mol)
 Warning -- explicit consideration of  12 degrees of freedom as
           vibrations may cause significant error
 Vibrational temperatures:    118.94   343.61   395.87   418.58   432.17
          (Kelvin)            492.17   547.60   573.89   623.16   626.79
                              740.39   753.90   943.34  1011.70  1024.02
                             1124.83  1187.23  1252.04  1312.57  1355.44
                             1403.10  1434.52  1493.21  1571.00  1645.98
                             1762.30  1856.46  1906.63  2008.37  2041.92
                             2097.71  2151.29  2179.26  2360.75  2378.34
                             2396.89  2487.45  4366.97  4480.86  4532.10
                             4559.61  4717.17  4990.20  5003.52  5065.24
                             5111.68  5129.99  5233.11

 Zero-point correction=                           0.160944 (Hartree/Particle)
 Thermal correction to Energy=                    0.169232
 Thermal correction to Enthalpy=                  0.170176
 Thermal correction to Gibbs Free Energy=         0.129435
 Sum of electronic and zero-point Energies=           -323.135538
 Sum of electronic and thermal Energies=              -323.127249
 Sum of electronic and thermal Enthalpies=            -323.126305
 Sum of electronic and thermal Free Energies=         -323.167047

                     E (Thermal)             CV                S
                      KCal/Mol        Cal/Mol-Kelvin    Cal/Mol-Kelvin
 Total                  106.195             32.613             85.747
 Electronic               0.000              0.000              0.000
 Translational            0.889              2.981             39.751
 Rotational               0.889              2.981             27.436
 Vibrational            104.417             26.651             18.560
 Vibration     1          0.600              1.961              3.827
 Vibration     2          0.657              1.781              1.812
 Vibration     3          0.677              1.719              1.564
 Vibration     4          0.687              1.691              1.469
 Vibration     5          0.693              1.673              1.415
 Vibration     6          0.721              1.591              1.202
 Vibration     7          0.750              1.512              1.037
 Vibration     8          0.765              1.473              0.967
 Vibration     9          0.794              1.398              0.849
 Vibration    10          0.796              1.393              0.840
 Vibration    11          0.870              1.218              0.623
 Vibration    12          0.879              1.197              0.601

 Optimization completed.
    -- Stationary point found.
 Normal termination of Gaussian 09 at Thu Sep  8 15:17:28 2022.
