 Gaussian 09, Revision E.01,
 Gaussian 09:  ES64L-G09RevE.01 30-Nov-2015

 ----------------------------
 #P OPT Freq B3LYP/6-31G(d,p)
 ----------------------------

 --------
 Frag_878
 --------
 Symbolic Z-matrix:
 Charge =  0 Multiplicity = 1

 SCF Done:  E(RB3LYP) =  -323.173444843     A.U. after   15 cycles
 SCF Done:  E(RB3LYP) =  -323.173507311     A.U. after   12 cycles
 SCF Done:  E(RB3LYP) =  -323.173408616     A.U. after   11 cycles
 SCF Done:  E(RB3LYP) =  -323.173543629     A.U. after   11 cycles
 SCF Done:  E(RB3LYP) =  -323.173544888     A.U. after    8 cycles
 SCF Done:  E(RB3LYP) =  -323.173545921     A.U. after    8 cycles
 SCF Done:  E(RB3LYP) =  -323.173546245     A.U. after    7 cycles
 Optimization completed.
    -- Stationary point found.
 Normal termination of Gaussian 09 at Thu Sep  8 15:25:55 2022.

 ----------------------------------------------------------------------
 #P Geom=AllCheck Guess=TCheck SCRF=Check GenChk RB3LYP/6-31G(d,p) Freq
 ----------------------------------------------------------------------

 Structure from the checkpoint file:  "B3LYP6-31Gdp.Frag_878.chk"
 --------
 Frag_878
 --------
 Charge =  0 Multiplicity = 1

                         Standard orientation:
 ---------------------------------------------------------------------
 Center     Atomic      Atomic             Coordinates (Angstroms)
 Number     Number       Type             X           Y           Z
 ---------------------------------------------------------------------
      1          6           0       -1.549945    1.287477   -0.015225
      2          6           0       -0.944796    0.103604    0.008320
      3          7           0       -1.552980   -1.161924   -0.055777
      4          7           0        0.583499    0.075836   -0.018012
      5          6           0        1.056158   -0.414741    1.316733
      6          6           0        1.041639   -0.882275   -1.093279
      7          7           0        1.227597    1.359678   -0.151054
      8          1           0       -0.924547    2.170155   -0.061014
      9          1           0       -2.630697    1.362994    0.031632
     10          1           0       -2.564159   -1.088434   -0.073530
     11          1           0       -1.277483   -1.796043    0.687689
     12          1           0        0.727974    0.318518    2.050568
     13          1           0        2.143850   -0.425066    1.276313
     14          1           0        0.663420   -1.410821    1.539634
     15          1           0        0.666092   -0.500952   -2.043072
     16          1           0        0.666890   -1.896695   -0.938898
     17          1           0        2.128962   -0.838763   -1.081232
     18          1           0        0.974547    1.625588   -1.113480
 ---------------------------------------------------------------------

 SCF Done:  E(RB3LYP) =  -323.173546245     A.U. after    1 cycles

 The electronic state is 1-A.
 Alpha  occ. eigenvalues --  -14.44569 -14.35498 -14.23222 -10.25113 -10.22165
 Alpha  occ. eigenvalues --  -10.21697 -10.16705  -1.00045  -0.91419  -0.74966
 Alpha  occ. eigenvalues --   -0.73268  -0.72692  -0.64715  -0.56017  -0.53485
 Alpha  occ. eigenvalues --   -0.49862  -0.48663  -0.45484  -0.44649  -0.42320
 Alpha  occ. eigenvalues --   -0.40638  -0.38540  -0.37647  -0.36977  -0.32908
 Alpha  occ. eigenvalues --   -0.23206  -0.21934  -0.13952
 Alpha virt. eigenvalues --    0.02740   0.05154   0.09744   0.10777   0.12970
 Alpha virt. eigenvalues --    0.13215   0.14612   0.15550   0.16389   0.17942
 Alpha virt. eigenvalues --    0.18523   0.20020   0.20572   0.21710   0.23217

 Mulliken charges:
               1
     1  C   -0.287779
     2  C    0.400269
     3  N   -0.630470
     4  N   -0.315491
     5  C   -0.135082
     6  C   -0.142121
     7  N   -0.570902
     8  H    0.138200
     9  H    0.081568
    10  H    0.264637
    11  H    0.257731
    12  H    0.155497
    13  H    0.148937
    14  H    0.086094
    15  H    0.132750
    16  H    0.109540
    17  H    0.139176
    18  H    0.167446
 Sum of Mulliken charges =  -0.00000

 Dipole moment (field-independent basis, Debye):
    X=             -2.5341    Y=             -4.2199    Z=              0.6238  Tot=              4.9617
 Quadrupole moment (field-independent basis, Debye-Ang):
   XX=            -42.3992   YY=            -47.0671   ZZ=            -42.1323
   XY=             -4.1390   XZ=             -1.4249   YZ=             -3.3112

  Exact polarizability:  71.621  -3.288  75.607  -0.138  -2.691  50.923
 Approx polarizability:  97.715  -3.025 123.227   1.138  -4.523  70.659

                      1                      2                      3
                      A                      A                      A
 Frequencies --     85.5874               221.1842               263.5474
 Red. masses --      3.2555                 1.1510                 1.1274
 Frc consts  --      0.0141                 0.0332                 0.0461
 IR Inten    --      2.5275                 2.8165                28.5348

                      4                      5                      6
                      A                      A                      A
 Frequencies --    274.2488               301.4068               323.8782
 Red. masses --      1.1459                 1.7966                 3.0845
 Frc consts  --      0.0508                 0.0962                 0.1906
 IR Inten    --      9.1891                 2.2095                27.2713

                      7                      8                      9
                      A                      A                      A
 Frequencies --    369.6336               416.8377               455.2959
 Red. masses --      2.3411                 3.3141                 3.2073
 Frc consts  --      0.1885                 0.3393                 0.3917
 IR Inten    --      2.6484                 6.1856                14.5128

                     10                     11                     12
                      A                      A                      A
 Frequencies --    463.2402               513.0717               530.2893
 Red. masses --      1.6056                 2.7433                 1.5899
 Frc consts  --      0.2030                 0.4255                 0.2634
 IR Inten    --     19.9346                 7.7637                66.3679

                     13                     14                     15
                      A                      A                      A
 Frequencies --    609.9979               656.8694               734.0778
 Red. masses --      2.3369                 3.1492                 1.3705
 Frc consts  --      0.5123                 0.8006                 0.4351
 IR Inten    --     84.5715                 3.5302                55.0353

                     16                     17                     18
                      A                      A                      A
 Frequencies --    775.7344               815.9525               891.3898
 Red. masses --      5.5542                 1.4283                 1.3649
 Frc consts  --      1.9692                 0.5603                 0.6390
 IR Inten    --     10.1328               122.4318                30.3603

                     19                     20                     21
                      A                      A                      A
 Frequencies --    915.6102               956.5606               977.5952
 Red. masses --      2.7302                 1.7840                 2.0921
 Frc consts  --      1.3485                 0.9618                 1.1780
 IR Inten    --      5.4290                 3.2841                 5.0490

                     22                     23                     24
                      A                      A                      A
 Frequencies --   1102.0275              1115.3337              1172.0825
 Red. masses --      1.2556                 1.5820                 1.8191
 Frc consts  --      0.8984                 1.1595                 1.4724
 IR Inten    --      4.7398                 3.1258                 4.7265

                     25                     26                     27
                      A                      A                      A
 Frequencies --   1196.1919              1245.3907              1293.7049
 Red. masses --      1.5571                 1.7379                 2.1854
 Frc consts  --      1.3127                 1.5881                 2.1550
 IR Inten    --      5.9294                 5.6929                31.7021

                     28                     29                     30
                      A                      A                      A
 Frequencies --   1382.3218              1417.4703              1446.2671
 Red. masses --      1.1641                 1.1574                 1.1968
 Frc consts  --      1.3106                 1.3702                 1.4750
 IR Inten    --     10.8957                 2.2548                 3.3494

                     31                     32                     33
                      A                      A                      A
 Frequencies --   1460.5082              1474.6052              1497.9915
 Red. masses --      1.1326                 1.0636                 1.0691
 Frc consts  --      1.4234                 1.3626                 1.4135
 IR Inten    --      9.4473                 6.3323                11.0910

                     34                     35                     36
                      A                      A                      A
 Frequencies --   1505.4109              1519.9696              1651.2237
 Red. masses --      1.1261                 1.0657                 1.1348
 Frc consts  --      1.5036                 1.4506                 1.8230
 IR Inten    --     16.8336                 6.8461                49.9521

                     37                     38                     39
                      A                      A                      A
 Frequencies --   1753.0767              3066.5252              3074.0195
 Red. masses --      5.7419                 1.0353                 1.0354
 Frc consts  --     10.3970                 5.7361                 5.7644
 IR Inten    --     85.1198                16.9544                46.7461

                     40                     41                     42
                      A                      A                      A
 Frequencies --   3162.8786              3169.6702              3173.7938
 Red. masses --      1.1017                 1.0595                 1.0972
 Frc consts  --      6.4935                 6.2717                 6.5116
 IR Inten    --     10.9760                20.6213                16.3822

                     43                     44                     45
                      A                      A                      A
 Frequencies --   3196.5043              3206.3143              3278.7746
 Red. masses --      1.1070                 1.1068                 1.1174
 Frc consts  --      6.6642                 6.7041                 7.0776
 IR Inten    --      7.0591                 3.6139                 1.9799

                     46                     47                     48
                      A                      A                      A
 Frequencies --   3351.0063              3517.1713              3615.6832
 Red. masses --      1.0740                 1.0489                 1.0948
 Frc consts  --      7.1054                 7.6451                 8.4330
 IR Inten    --     47.7447                 1.4552                 3.5018

 - Thermochemistry -
 -------------------
 Temperature   298.150 Kelvin.  Pressure   1.00000 Atm.
 Atom     1 has atomic number  6 and mass  12.00000

 Molecular mass:   101.09530 amu.
 Principal axes and moments of inertia in atomic units:
                           1         2         3
     Eigenvalues --   529.81702 734.73734 894.95722
           X            0.99760  -0.06882  -0.00699
           Y            0.06857   0.99718  -0.03042
           Z            0.00906   0.02987   0.99951
 This molecule is an asymmetric top.
 Rotational symmetry number  1.
 Warning -- assumption of classical behavior for rotation
           may cause significant error
 Rotational temperatures (Kelvin)      0.16348     0.11788     0.09678
 Rotational constants (GHZ):           3.40635     2.45631     2.01657
 Zero-point vibrational energy     416288.0 (Joules/Mol)
                                   99.49523 (Kcal/Mol)
 Warning -- explicit consideration of  13 degrees of freedom as
           vibrations may cause significant error
 Vibrational temperatures:    123.14   318.23   379.19   394.58   433.66
          (Kelvin)            465.99   531.82   599.74   655.07   666.50
                              738.19   762.97   877.65   945.09  1056.17
                             1116.11  1173.97  1282.51  1317.36  1376.28
                             1406.54  1585.57  1604.71  1686.36  1721.05
                             1791.84  1861.35  1988.85  2039.42  2080.85
                             2101.34  2121.63  2155.27  2165.95  2186.89
                             2375.74  2522.28  4412.04  4422.82  4550.67
                             4560.44  4566.38  4599.05  4613.17  4717.42
                             4821.34  5060.42  5202.16

 Zero-point correction=                           0.158556 (Hartree/Particle)
 Thermal correction to Energy=                    0.166868
 Thermal correction to Enthalpy=                  0.167813
 Thermal correction to Gibbs Free Energy=         0.127040
 Sum of electronic and zero-point Energies=           -323.014991
 Sum of electronic and thermal Energies=              -323.006678
 Sum of electronic and thermal Enthalpies=            -323.005734
 Sum of electronic and thermal Free Energies=         -323.046506

                     E (Thermal)             CV                S
                      KCal/Mol        Cal/Mol-Kelvin    Cal/Mol-Kelvin
 Total                  104.711             32.438             85.813
 Electronic               0.000              0.000              0.000
 Translational            0.889              2.981             39.751
 Rotational               0.889              2.981             27.346
 Vibrational            102.934             26.476             18.716
 Vibration     1          0.601              1.959              3.758
 Vibration     2          0.648              1.809              1.949
 Vibration     3          0.670              1.740              1.638
 Vibration     4          0.677              1.721              1.569
 Vibration     5          0.693              1.671              1.409
 Vibration     6          0.708              1.628              1.290
 Vibration     7          0.742              1.535              1.081
 Vibration     8          0.780              1.434              0.903
 Vibration     9          0.814              1.349              0.780
 Vibration    10          0.821              1.332              0.757
 Vibration    11          0.868              1.221              0.626
 Vibration    12          0.885              1.183              0.587
 Vibration    13          0.969              1.011              0.433

 Normal termination of Gaussian 09 at Thu Sep  8 15:26:13 2022.
