 Gaussian 09, Revision E.01,
 Gaussian 09:  ES64L-G09RevE.01 30-Nov-2015

 ----------------------------
 #P OPT Freq B3LYP/6-31G(d,p)
 ----------------------------

 --------
 Frag_879
 --------
 Symbolic Z-matrix:
 Charge =  0 Multiplicity = 1

 SCF Done:  E(RB3LYP) =  -205.270301271     A.U. after   16 cycles
 SCF Done:  E(RB3LYP) =  -205.270356583     A.U. after   11 cycles
 SCF Done:  E(RB3LYP) =  -205.270367066     A.U. after    9 cycles
 SCF Done:  E(RB3LYP) =  -205.270370908     A.U. after    8 cycles
 Optimization completed.
    -- Stationary point found.
 Normal termination of Gaussian 09 at Thu Sep  8 15:20:15 2022.

 ----------------------------------------------------------------------
 #P Geom=AllCheck Guess=TCheck SCRF=Check GenChk RB3LYP/6-31G(d,p) Freq
 ----------------------------------------------------------------------

 Structure from the checkpoint file:  "B3LYP6-31Gdp.Frag_879.chk"
 --------
 Frag_879
 --------
 Charge =  0 Multiplicity = 1

                         Standard orientation:
 ---------------------------------------------------------------------
 Center     Atomic      Atomic             Coordinates (Angstroms)
 Number     Number       Type             X           Y           Z
 ---------------------------------------------------------------------
      1          7           0       -1.922642    0.077604   -0.000007
      2          6           0       -0.656096    0.293104    0.000025
      3          7           0        0.362071   -0.617521   -0.000017
      4          7           0        1.630104    0.104330    0.000005
      5          1           0       -2.091551   -0.934160    0.000045
      6          1           0       -0.355334    1.367940   -0.000072
      7          1           0        1.511219    1.134828   -0.000349
      8          1           0        2.192639   -0.138779    0.824634
      9          1           0        2.192880   -0.139348   -0.824280
 ---------------------------------------------------------------------

 SCF Done:  E(RB3LYP) =  -205.270370908     A.U. after    1 cycles

 The electronic state is 1-A.
 Alpha  occ. eigenvalues --  -14.48921 -14.30555 -14.24613 -10.21084  -1.03376
 Alpha  occ. eigenvalues --   -0.86227  -0.77011  -0.61178  -0.59389  -0.53735
 Alpha  occ. eigenvalues --   -0.49997  -0.38694  -0.31401  -0.27274  -0.21989
 Alpha  occ. eigenvalues --   -0.17394
 Alpha virt. eigenvalues --    0.00614   0.06421   0.07297   0.08988   0.11718
 Alpha virt. eigenvalues --    0.17756   0.20750   0.37532   0.38598   0.54409
 Alpha virt. eigenvalues --    0.59223   0.62092   0.64682   0.67034   0.69535

 Mulliken charges:
               1
     1  N   -0.585914
     2  C    0.276469
     3  N   -0.448288
     4  N   -0.386381
     5  H    0.203183
     6  H    0.013787
     7  H    0.283530
     8  H    0.321797
     9  H    0.321817
 Sum of Mulliken charges =  -0.00000

 Dipole moment (field-independent basis, Debye):
    X=              7.7977    Y=              1.3028    Z=              0.0001  Tot=              7.9058
 Quadrupole moment (field-independent basis, Debye-Ang):
   XX=            -20.1177   YY=            -24.8437   ZZ=            -24.2472
   XY=              4.7514   XZ=             -0.0003   YZ=              0.0001

  Exact polarizability:  56.929   3.654  32.576   0.001  -0.001  18.361
 Approx polarizability:  88.673   2.474  49.121   0.001  -0.001  25.260

                      1                      2                      3
                      A                      A                      A
 Frequencies --     59.7269               231.6827               374.6244
 Red. masses --      1.4664                 1.6253                 3.0152
 Frc consts  --      0.0031                 0.0514                 0.2493
 IR Inten    --     12.5526                13.0692                39.1355

                      4                      5                      6
                      A                      A                      A
 Frequencies --    591.0159               795.5885               803.1634
 Red. masses --      3.7288                 1.8846                 6.8861
 Frc consts  --      0.7674                 0.7028                 2.6172
 IR Inten    --      4.8668                54.2159                27.2666

                      7                      8                      9
                      A                      A                      A
 Frequencies --   1027.8400              1041.9758              1078.3841
 Red. masses --      1.5309                 1.1700                 1.2037
 Frc consts  --      0.9529                 0.7484                 0.8247
 IR Inten    --     56.8209                15.1121                36.4063

                     10                     11                     12
                      A                      A                      A
 Frequencies --   1180.6623              1319.5287              1448.4903
 Red. masses --      1.5785                 2.2201                 1.1209
 Frc consts  --      1.2964                 2.2775                 1.3856
 IR Inten    --     47.5916               117.3609                 4.0994

                     13                     14                     15
                      A                      A                      A
 Frequencies --   1484.7209              1632.8234              1676.4444
 Red. masses --      1.2617                 1.0577                 1.0915
 Frc consts  --      1.6387                 1.6615                 1.8073
 IR Inten    --     51.0079                19.6166                37.6669

                     16                     17                     18
                      A                      A                      A
 Frequencies --   1687.8935              2844.3792              3226.8250
 Red. masses --      6.3509                 1.0800                 1.0463
 Frc consts  --     10.6604                 5.1483                 6.4189
 IR Inten    --    375.0263               155.9256                58.4067

                     19                     20                     21
                      A                      A                      A
 Frequencies --   3369.7176              3375.2360              3431.9558
 Red. masses --      1.0686                 1.0967                 1.0725
 Frc consts  --      7.1490                 7.3610                 7.4428
 IR Inten    --      5.3153                 8.1306                 8.6083

 - Thermochemistry -
 -------------------
 Temperature   298.150 Kelvin.  Pressure   1.00000 Atm.
 Atom     1 has atomic number  7 and mass  14.00307

 Molecular mass:    59.04835 amu.
 Principal axes and moments of inertia in atomic units:
                           1         2         3
     Eigenvalues --    42.79615 406.18320 439.19395
           X            0.99967   0.02583  -0.00000
           Y           -0.02583   0.99967  -0.00001
           Z            0.00000   0.00001   1.00000
 This molecule is an asymmetric top.
 Rotational symmetry number  1.
 Rotational temperatures (Kelvin)      2.02387     0.21324     0.19721
 Rotational constants (GHZ):          42.17064     4.44317     4.10921
 Zero-point vibrational energy     195485.8 (Joules/Mol)
                                   46.72223 (Kcal/Mol)
 Warning -- explicit consideration of   4 degrees of freedom as
           vibrations may cause significant error
 Vibrational temperatures:     85.93   333.34   539.00   850.34  1144.67
          (Kelvin)           1155.57  1478.83  1499.17  1551.55  1698.71
                             1898.51  2084.05  2136.18  2349.27  2412.03
                             2428.50  4092.42  4642.68  4848.27  4856.21
                             4937.81

 Zero-point correction=                           0.074457 (Hartree/Particle)
 Thermal correction to Energy=                    0.079412
 Thermal correction to Enthalpy=                  0.080356
 Thermal correction to Gibbs Free Energy=         0.046947
 Sum of electronic and zero-point Energies=           -205.195914
 Sum of electronic and thermal Energies=              -205.190959
 Sum of electronic and thermal Enthalpies=            -205.190014
 Sum of electronic and thermal Free Energies=         -205.223424

                     E (Thermal)             CV                S
                      KCal/Mol        Cal/Mol-Kelvin    Cal/Mol-Kelvin
 Total                   49.832             15.237             70.317
 Electronic               0.000              0.000              0.000
 Translational            0.889              2.981             38.148
 Rotational               0.889              2.981             23.550
 Vibrational             48.055              9.276              8.619
 Vibration     1          0.597              1.974              4.466
 Vibration     2          0.653              1.793              1.866
 Vibration     3          0.746              1.524              1.061
 Vibration     4          0.948              1.051              0.465

 Optimization completed.
    -- Stationary point found.
 Normal termination of Gaussian 09 at Thu Sep  8 15:20:21 2022.
