 Gaussian 09, Revision E.01,
 Gaussian 09:  ES64L-G09RevE.01 30-Nov-2015

 --------------------------------
 #P OPT=calcfc Freq B3LYP/6-31G**
 --------------------------------

 --------
 Frag_322
 --------
 Symbolic Z-matrix:
 Charge =  0 Multiplicity = 1

 SCF Done:  E(RB3LYP) =  -243.433579955     A.U. after   14 cycles
 SCF Done:  E(RB3LYP) =  -243.450698195     A.U. after   15 cycles
 SCF Done:  E(RB3LYP) =  -243.447622541     A.U. after   15 cycles
 SCF Done:  E(RB3LYP) =  -243.450979930     A.U. after   11 cycles
 SCF Done:  E(RB3LYP) =  -243.451817295     A.U. after   16 cycles
 SCF Done:  E(RB3LYP) =  -243.441828815     A.U. after   15 cycles
 SCF Done:  E(RB3LYP) =  -243.451885378     A.U. after   11 cycles
 SCF Done:  E(RB3LYP) =  -243.442349088     A.U. after   14 cycles
 SCF Done:  E(RB3LYP) =  -243.452237663     A.U. after   10 cycles
 SCF Done:  E(RB3LYP) =  -243.452385474     A.U. after   12 cycles
 SCF Done:  E(RB3LYP) =  -243.452247556     A.U. after   15 cycles
 SCF Done:  E(RB3LYP) =  -243.453093541     A.U. after   13 cycles
 SCF Done:  E(RB3LYP) =  -243.453222892     A.U. after   15 cycles
 SCF Done:  E(RB3LYP) =  -243.452826235     A.U. after   14 cycles
 SCF Done:  E(RB3LYP) =  -243.453456118     A.U. after   11 cycles
 SCF Done:  E(RB3LYP) =  -243.453558795     A.U. after   13 cycles
 SCF Done:  E(RB3LYP) =  -243.453570511     A.U. after   11 cycles
 SCF Done:  E(RB3LYP) =  -243.453571581     A.U. after    9 cycles
 SCF Done:  E(RB3LYP) =  -243.453571841     A.U. after    8 cycles
 Optimization completed.
    -- Stationary point found.
 Normal termination of Gaussian 09 at Fri Sep 10 21:01:17 2021.

 ----------------------------------------------------------------------
 #P Geom=AllCheck Guess=TCheck SCRF=Check GenChk RB3LYP/6-31G(d,p) Freq
 ----------------------------------------------------------------------

 Structure from the checkpoint file:  "/public/home/users/caep010/.cache/gau_scr/Gau-18601.chk"
 --------
 Frag_322
 --------
 Charge =  0 Multiplicity = 1

                         Standard orientation:
 ---------------------------------------------------------------------
 Center     Atomic      Atomic             Coordinates (Angstroms)
 Number     Number       Type             X           Y           Z
 ---------------------------------------------------------------------
      1          6           0       -1.828422    0.125172    0.231289
      2          7           0       -0.797698    0.471406   -0.425025
      3          6           0        0.453612   -0.117038   -0.071958
      4          7           0        0.736753   -1.365638   -0.038612
      5          7           0        1.395923    0.846411    0.215809
      6          1           0       -1.803764   -0.578383    1.073377
      7          1           0       -2.799194    0.536307   -0.049449
      8          1           0       -0.093140   -1.923217   -0.237579
      9          1           0        2.347444    0.507026    0.214925
     10          1           0        1.252673    1.744214   -0.222465
 ---------------------------------------------------------------------

 SCF Done:  E(RB3LYP) =  -243.453571841     A.U. after    1 cycles

 The electronic state is 1-A.
 Alpha  occ. eigenvalues --  -14.35621 -14.34292 -14.29218 -10.27978 -10.25225
 Alpha  occ. eigenvalues --   -0.97917  -0.89792  -0.84449  -0.67110  -0.57377
 Alpha  occ. eigenvalues --   -0.54081  -0.49487  -0.45953  -0.45011  -0.37519
 Alpha  occ. eigenvalues --   -0.34763  -0.29287  -0.25074  -0.23646
 Alpha virt. eigenvalues --   -0.03998   0.05820   0.09631   0.11212   0.13547
 Alpha virt. eigenvalues --    0.15070   0.17028   0.22736   0.30342   0.35375
 Alpha virt. eigenvalues --    0.43590   0.51803   0.57718   0.58795   0.60914

 Mulliken charges:
               1
     1  C   -0.017594
     2  N   -0.349538
     3  C    0.511828
     4  N   -0.554663
     5  N   -0.588398
     6  H    0.112228
     7  H    0.119924
     8  H    0.218695
     9  H    0.275811
    10  H    0.271707
 Sum of Mulliken charges =  -0.00000

 Dipole moment (field-independent basis, Debye):
    X=             -1.4141    Y=              1.3426    Z=              0.1534  Tot=              1.9560
 Quadrupole moment (field-independent basis, Debye-Ang):
   XX=            -23.4650   YY=            -29.8401   ZZ=            -31.6566
   XY=              5.5196   XZ=             -2.1940   YZ=             -0.2303

  Exact polarizability:  53.229   0.379  43.430  -1.867  -2.558  23.976
 Approx polarizability:  72.536  -0.072  71.431  -4.773  -4.749  36.617

                      1                      2                      3
                      A                      A                      A
 Frequencies --     93.0168               300.8264               405.3644
 Red. masses --      3.2540                 3.0119                 1.5280
 Frc consts  --      0.0166                 0.1606                 0.1479
 IR Inten    --      8.0213                13.0656                26.1868

                      4                      5                      6
                      A                      A                      A
 Frequencies --    418.0290               509.9921               578.0401
 Red. masses --      1.3530                 2.5611                 1.2649
 Frc consts  --      0.1393                 0.3925                 0.2490
 IR Inten    --     25.3733                21.2223               279.1240

                      7                      8                      9
                      A                      A                      A
 Frequencies --    720.4667               791.7771               841.7801
 Red. masses --      2.6710                 1.3190                 1.8236
 Frc consts  --      0.8169                 0.4872                 0.7614
 IR Inten    --     13.1224                13.6132                43.8221

                     10                     11                     12
                      A                      A                      A
 Frequencies --    852.2017              1083.4829              1122.1189
 Red. masses --      3.7073                 1.3567                 1.7018
 Frc consts  --      1.5863                 0.9384                 1.2625
 IR Inten    --     24.5810                15.1643                51.6386

                     13                     14                     15
                      A                      A                      A
 Frequencies --   1160.3947              1226.0754              1410.1098
 Red. masses --      1.3490                 1.5132                 2.4070
 Frc consts  --      1.0702                 1.3402                 2.8199
 IR Inten    --     70.5451                 8.5421               119.6727

                     16                     17                     18
                      A                      A                      A
 Frequencies --   1511.3551              1619.3854              1721.8717
 Red. masses --      1.1997                 1.2818                 5.8328
 Frc consts  --      1.6146                 1.9805                10.1889
 IR Inten    --     32.5213                77.3795               199.6162

                     19                     20                     21
                      A                      A                      A
 Frequencies --   1744.5468              3043.7407              3163.0567
 Red. masses --      5.9888                 1.0606                 1.1112
 Frc consts  --     10.7388                 5.7893                 6.5503
 IR Inten    --    122.0545                29.6966                25.3316

                     22                     23                     24
                      A                      A                      A
 Frequencies --   3516.9318              3586.9531              3711.7769
 Red. masses --      1.0748                 1.0461                 1.1012
 Frc consts  --      7.8324                 7.9300                 8.9385
 IR Inten    --      0.7348                29.5456                30.2355

 - Thermochemistry -
 -------------------
 Temperature   298.150 Kelvin.  Pressure   1.00000 Atm.
 Atom     1 has atomic number  6 and mass  12.00000

 Molecular mass:    71.04835 amu.
 Principal axes and moments of inertia in atomic units:
                           1         2         3
     Eigenvalues --   186.83304 393.02816 542.83034
           X            0.99847   0.05288  -0.01596
           Y           -0.05308   0.99852  -0.01215
           Z            0.01530   0.01298   0.99980
 This molecule is an asymmetric top.
 Rotational symmetry number  1.
 Rotational temperatures (Kelvin)      0.46359     0.22038     0.15956
 Rotational constants (GHZ):           9.65965     4.59189     3.32469
 Zero-point vibrational energy     210143.8 (Joules/Mol)
                                   50.22557 (Kcal/Mol)
 Warning -- explicit consideration of   6 degrees of freedom as
           vibrations may cause significant error
 Vibrational temperatures:    133.83   432.82   583.23   601.45   733.76
          (Kelvin)            831.67  1036.59  1139.19  1211.13  1226.13
                             1558.89  1614.48  1669.55  1764.05  2028.83
                             2174.50  2329.93  2477.39  2510.01  4379.26
                             4550.93  5060.07  5160.82  5340.41

 Zero-point correction=                           0.080040 (Hartree/Particle)
 Thermal correction to Energy=                    0.085445
 Thermal correction to Enthalpy=                  0.086389
 Thermal correction to Gibbs Free Energy=         0.051724
 Sum of electronic and zero-point Energies=           -243.373532
 Sum of electronic and thermal Energies=              -243.368127
 Sum of electronic and thermal Enthalpies=            -243.367183
 Sum of electronic and thermal Free Energies=         -243.401848

                     E (Thermal)             CV                S
                      KCal/Mol        Cal/Mol-Kelvin    Cal/Mol-Kelvin
 Total                   53.618             18.657             72.959
 Electronic               0.000              0.000              0.000
 Translational            0.889              2.981             38.699
 Rotational               0.889              2.981             25.192
 Vibrational             51.840             12.696              9.068
 Vibration     1          0.602              1.954              3.596
 Vibration     2          0.693              1.672              1.412
 Vibration     3          0.770              1.459              0.943
 Vibration     4          0.781              1.431              0.899
 Vibration     5          0.865              1.228              0.634
 Vibration     6          0.935              1.079              0.489

 Normal termination of Gaussian 09 at Fri Sep 10 21:01:24 2021.
