 Gaussian 09, Revision E.01,
 Gaussian 09:  ES64L-G09RevE.01 30-Nov-2015

 --------------------------------
 #P OPT=calcfc Freq B3LYP/6-31G**
 --------------------------------

 --------
 Frag_314
 --------
 Symbolic Z-matrix:
 Charge =  0 Multiplicity = 1

 SCF Done:  E(RB3LYP) =  -204.040313957     A.U. after   15 cycles
 SCF Done:  E(RB3LYP) =  -204.063807823     A.U. after   15 cycles
 SCF Done:  E(RB3LYP) =  -204.065736823     A.U. after   13 cycles
 SCF Done:  E(RB3LYP) =  -204.065934768     A.U. after   13 cycles
 SCF Done:  E(RB3LYP) =  -204.066068622     A.U. after   12 cycles
 SCF Done:  E(RB3LYP) =  -204.066204135     A.U. after   12 cycles
 SCF Done:  E(RB3LYP) =  -204.066521468     A.U. after   13 cycles
 SCF Done:  E(RB3LYP) =  -204.069459568     A.U. after   15 cycles
 SCF Done:  E(RB3LYP) =  -204.060954050     A.U. after   15 cycles
 SCF Done:  E(RB3LYP) =  -204.070336011     A.U. after   14 cycles
 SCF Done:  E(RB3LYP) =  -204.070624686     A.U. after   13 cycles
 SCF Done:  E(RB3LYP) =  -204.070924117     A.U. after   13 cycles
 SCF Done:  E(RB3LYP) =  -204.071276538     A.U. after   13 cycles
 SCF Done:  E(RB3LYP) =  -204.071388445     A.U. after   12 cycles
 SCF Done:  E(RB3LYP) =  -204.071435613     A.U. after   10 cycles
 SCF Done:  E(RB3LYP) =  -204.071443848     A.U. after   10 cycles
 SCF Done:  E(RB3LYP) =  -204.071444252     A.U. after    9 cycles
 Optimization completed.
    -- Stationary point found.
 Normal termination of Gaussian 09 at Fri Sep 10 21:20:14 2021.

 ----------------------------------------------------------------------
 #P Geom=AllCheck Guess=TCheck SCRF=Check GenChk RB3LYP/6-31G(d,p) Freq
 ----------------------------------------------------------------------

 Structure from the checkpoint file:  "/public/home/users/caep010/.cache/gau_scr/Gau-95590.chk"
 --------
 Frag_314
 --------
 Charge =  0 Multiplicity = 1

                         Standard orientation:
 ---------------------------------------------------------------------
 Center     Atomic      Atomic             Coordinates (Angstroms)
 Number     Number       Type             X           Y           Z
 ---------------------------------------------------------------------
      1          6           0       -1.626788    0.095841    0.000141
      2          7           0       -0.494967   -0.491646   -0.000204
      3          7           0        0.574878    0.493010   -0.000196
      4          7           0        1.693398   -0.026673    0.000176
      5          1           0       -2.526415   -0.516250    0.000229
      6          1           0       -1.721476    1.184478    0.000251
      7          1           0        1.595464   -1.066112    0.000239
 ---------------------------------------------------------------------

 SCF Done:  E(RB3LYP) =  -204.071444252     A.U. after    1 cycles

 The electronic state is 1-A.
 Alpha  occ. eigenvalues --  -14.42454 -14.38749 -14.38104 -10.25857  -1.06839
 Alpha  occ. eigenvalues --   -0.92578  -0.68779  -0.61498  -0.54455  -0.47939
 Alpha  occ. eigenvalues --   -0.43736  -0.39052  -0.33095  -0.31928  -0.25459
 Alpha virt. eigenvalues --   -0.07541  -0.00197   0.08066   0.11393   0.15783
 Alpha virt. eigenvalues --    0.21191   0.26359   0.38144   0.51624   0.56479
 Alpha virt. eigenvalues --    0.61527   0.62766   0.65461   0.66039   0.70407

 Mulliken charges:
               1
     1  C    0.013691
     2  N   -0.249346
     3  N   -0.056113
     4  N   -0.213669
     5  H    0.134587
     6  H    0.133400
     7  H    0.237450
 Sum of Mulliken charges =  -0.00000

 Dipole moment (field-independent basis, Debye):
    X=             -2.4820    Y=             -0.6849    Z=              0.0006  Tot=              2.5748
 Quadrupole moment (field-independent basis, Debye-Ang):
   XX=            -21.0743   YY=            -23.9091   ZZ=            -23.2156
   XY=             -3.3788   XZ=             -0.0009   YZ=             -0.0003

  Exact polarizability:  54.919  -5.504  28.016  -0.000  -0.000  13.757
 Approx polarizability:  89.907 -12.252  42.252  -0.000   0.000  20.444

                      1                      2                      3
                      A                      A                      A
 Frequencies --     96.2195               388.3071               637.1903
 Red. masses --      4.3938                 2.8984                 5.0470
 Frc consts  --      0.0240                 0.2575                 1.2073
 IR Inten    --     16.6533                 9.1313                 9.7361

                      4                      5                      6
                      A                      A                      A
 Frequencies --    717.5357               806.4423              1063.9879
 Red. masses --      1.0948                 3.7991                 1.3835
 Frc consts  --      0.3321                 1.4557                 0.9228
 IR Inten    --     16.8730                14.4944                70.7173

                      7                      8                      9
                      A                      A                      A
 Frequencies --   1081.1149              1208.6399              1442.5685
 Red. masses --      1.3606                 1.6163                 1.3214
 Frc consts  --      0.9370                 1.3911                 1.6201
 IR Inten    --     14.4256                 9.6916               156.9880

                     10                     11                     12
                      A                      A                      A
 Frequencies --   1454.0954              1671.9125              1720.2922
 Red. masses --      1.1825                 7.5054                 6.4555
 Frc consts  --      1.4732                12.3609                11.2560
 IR Inten    --      1.7909                24.6324                 8.8486

                     13                     14                     15
                      A                      A                      A
 Frequencies --   3095.8914              3165.7096              3213.8552
 Red. masses --      1.0580                 1.0696                 1.1169
 Frc consts  --      5.9746                 6.3157                 6.7969
 IR Inten    --     19.5796                27.0539                 7.6190

 - Thermochemistry -
 -------------------
 Temperature   298.150 Kelvin.  Pressure   1.00000 Atm.
 Atom     1 has atomic number  6 and mass  12.00000

 Molecular mass:    57.03270 amu.
 Principal axes and moments of inertia in atomic units:
                           1         2         3
     Eigenvalues --    34.50989 328.19455 362.70443
           X            0.99957  -0.02919  -0.00001
           Y            0.02919   0.99957  -0.00001
           Z            0.00001   0.00001   1.00000
 This molecule is an asymmetric top.
 Rotational symmetry number  1.
 Rotational temperatures (Kelvin)      2.50983     0.26391     0.23880
 Rotational constants (GHZ):          52.29634     5.49900     4.97579
 Zero-point vibrational energy     130176.2 (Joules/Mol)
                                   31.11286 (Kcal/Mol)
 Warning -- explicit consideration of   2 degrees of freedom as
           vibrations may cause significant error
 Vibrational temperatures:    138.44   558.69   916.77  1032.37  1160.29
          (Kelvin)           1530.84  1555.48  1738.96  2075.53  2092.12
                             2405.51  2475.11  4454.29  4554.74  4624.01

 Zero-point correction=                           0.049581 (Hartree/Particle)
 Thermal correction to Energy=                    0.053888
 Thermal correction to Enthalpy=                  0.054832
 Thermal correction to Gibbs Free Energy=         0.023183
 Sum of electronic and zero-point Energies=           -204.021863
 Sum of electronic and thermal Energies=              -204.017556
 Sum of electronic and thermal Enthalpies=            -204.016612
 Sum of electronic and thermal Free Energies=         -204.048261

                     E (Thermal)             CV                S
                      KCal/Mol        Cal/Mol-Kelvin    Cal/Mol-Kelvin
 Total                   33.815             12.861             66.611
 Electronic               0.000              0.000              0.000
 Translational            0.889              2.981             38.044
 Rotational               0.889              2.981             22.934
 Vibrational             32.038              6.900              5.633
 Vibration     1          0.603              1.952              3.529
 Vibration     2          0.756              1.495              1.007

 Optimization completed.
    -- Stationary point found.
 Normal termination of Gaussian 09 at Fri Sep 10 21:20:19 2021.
