 Gaussian 09, Revision E.01,
 Gaussian 09:  ES64L-G09RevE.01 30-Nov-2015

 ----------------------------
 #P OPT Freq B3LYP/6-31G(d,p)
 ----------------------------

 --------
 Frag_920
 --------
 Symbolic Z-matrix:
 Charge =  0 Multiplicity = 1

 SCF Done:  E(RB3LYP) =  -303.841819969     A.U. after   13 cycles
 SCF Done:  E(RB3LYP) =  -303.841886162     A.U. after   11 cycles
 SCF Done:  E(RB3LYP) =  -303.841892563     A.U. after    8 cycles
 SCF Done:  E(RB3LYP) =  -303.841894919     A.U. after    8 cycles
 SCF Done:  E(RB3LYP) =  -303.841895677     A.U. after    7 cycles
 SCF Done:  E(RB3LYP) =  -303.841895970     A.U. after    7 cycles
 Optimization completed.
    -- Stationary point found.
 Normal termination of Gaussian 09 at Thu Sep  8 15:03:10 2022.

 ----------------------------------------------------------------------
 #P Geom=AllCheck Guess=TCheck SCRF=Check GenChk RB3LYP/6-31G(d,p) Freq
 ----------------------------------------------------------------------

 Structure from the checkpoint file:  "B3LYP6-31Gdp.Frag_920.chk"
 --------
 Frag_920
 --------
 Charge =  0 Multiplicity = 1

                         Standard orientation:
 ---------------------------------------------------------------------
 Center     Atomic      Atomic             Coordinates (Angstroms)
 Number     Number       Type             X           Y           Z
 ---------------------------------------------------------------------
      1          6           0        1.139020    1.329701    0.460766
      2          6           0        0.771879    0.153826   -0.062494
      3          7           0        1.633641   -0.943959   -0.253403
      4          6           0       -0.677780   -0.205424   -0.358155
      5          7           0       -1.286463   -1.082376    0.644763
      6          8           0       -1.439827    0.974430   -0.448802
      7          1           0        2.174784    1.544458    0.708323
      8          1           0        0.397033    2.092501    0.651961
      9          1           0        1.491768   -1.417124   -1.140495
     10          1           0        2.612236   -0.704425   -0.145358
     11          1           0       -0.709038   -0.767678   -1.311259
     12          1           0       -1.064940   -0.710121    1.567808
     13          1           0       -0.857086   -2.003967    0.599247
     14          1           0       -2.355094    0.686650   -0.320034
 ---------------------------------------------------------------------

 SCF Done:  E(RB3LYP) =  -303.841895970     A.U. after    1 cycles

 The electronic state is 1-A.
 Alpha  occ. eigenvalues --  -19.14024 -14.33730 -14.31964 -10.26384 -10.21258
 Alpha  occ. eigenvalues --  -10.15374  -1.02750  -0.91009  -0.86762  -0.73194
 Alpha  occ. eigenvalues --   -0.65552  -0.55137  -0.52390  -0.50920  -0.48559
 Alpha  occ. eigenvalues --   -0.44357  -0.41929  -0.41521  -0.36996  -0.34378
 Alpha  occ. eigenvalues --   -0.32672  -0.27390  -0.25108  -0.20592
 Alpha virt. eigenvalues --    0.03940   0.07781   0.09566   0.11488   0.12725
 Alpha virt. eigenvalues --    0.15043   0.16561   0.18236   0.20561   0.23162
 Alpha virt. eigenvalues --    0.28024   0.28244   0.34949   0.37064   0.54977

 Mulliken charges:
               1
     1  C   -0.305192
     2  C    0.270975
     3  N   -0.641354
     4  C    0.246603
     5  N   -0.594716
     6  O   -0.536338
     7  H    0.071369
     8  H    0.114577
     9  H    0.248816
    10  H    0.254472
    11  H    0.069835
    12  H    0.245443
    13  H    0.245493
    14  H    0.310016
 Sum of Mulliken charges =  -0.00000

 Dipole moment (field-independent basis, Debye):
    X=              1.0982    Y=             -1.7748    Z=             -0.3872  Tot=              2.1227
 Quadrupole moment (field-independent basis, Debye-Ang):
   XX=            -32.2299   YY=            -37.7139   ZZ=            -35.3433
   XY=             -1.4991   XZ=             -1.5385   YZ=              2.9154

  Exact polarizability:  52.814   1.837  58.664   1.342   8.504  37.483
 Approx polarizability:  67.195   3.106  92.039   2.579  15.751  54.077

                      1                      2                      3
                      A                      A                      A
 Frequencies --     83.3827               242.2570               255.6192
 Red. masses --      3.9804                 1.6650                 1.6494
 Frc consts  --      0.0163                 0.0576                 0.0635
 IR Inten    --      0.6083                26.2151                23.3387

                      4                      5                      6
                      A                      A                      A
 Frequencies --    309.7501               338.2290               382.9457
 Red. masses --      2.0404                 1.2902                 1.8552
 Frc consts  --      0.1153                 0.0870                 0.1603
 IR Inten    --     17.4724                29.2290                31.6642

                      7                      8                      9
                      A                      A                      A
 Frequencies --    444.5101               511.2764               559.0892
 Red. masses --      1.6781                 2.0348                 3.7716
 Frc consts  --      0.1954                 0.3134                 0.6946
 IR Inten    --     68.8318                36.4327                31.1509

                     10                     11                     12
                      A                      A                      A
 Frequencies --    643.9593               703.6170               794.5135
 Red. masses --      2.0221                 1.2521                 1.5342
 Frc consts  --      0.4941                 0.3652                 0.5706
 IR Inten    --     80.4535                55.6376                92.8321

                     13                     14                     15
                      A                      A                      A
 Frequencies --    833.2549               843.2940               940.6119
 Red. masses --      1.8244                 1.7184                 1.7210
 Frc consts  --      0.7463                 0.7200                 0.8971
 IR Inten    --    103.4476                 6.0093               194.9769

                     16                     17                     18
                      A                      A                      A
 Frequencies --    986.4911              1002.7325              1123.6662
 Red. masses --      1.5933                 2.6690                 1.6004
 Frc consts  --      0.9135                 1.5811                 1.1905
 IR Inten    --     10.9633                42.9739                23.2308

                     19                     20                     21
                      A                      A                      A
 Frequencies --   1153.6787              1225.6878              1300.3949
 Red. masses --      2.1131                 1.4209                 1.2235
 Frc consts  --      1.6570                 1.2577                 1.2190
 IR Inten    --     49.0638                72.3483                64.1022

                     22                     23                     24
                      A                      A                      A
 Frequencies --   1336.4360              1418.4881              1440.9107
 Red. masses --      2.2705                 1.2755                 1.2117
 Frc consts  --      2.3893                 1.5121                 1.4823
 IR Inten    --     14.6246                14.4719                 7.4061

                     25                     26                     27
                      A                      A                      A
 Frequencies --   1461.4238              1656.6093              1663.2274
 Red. masses --      1.6161                 1.1431                 1.1075
 Frc consts  --      2.0336                 1.8483                 1.8051
 IR Inten    --     33.8553                44.2980                35.2811

                     28                     29                     30
                      A                      A                      A
 Frequencies --   1737.7106              2928.8525              3165.1828
 Red. masses --      5.0887                 1.0824                 1.0642
 Frc consts  --      9.0535                 5.4706                 6.2815
 IR Inten    --     65.2755                97.6797                13.9562

                     31                     32                     33
                      A                      A                      A
 Frequencies --   3278.3768              3480.4664              3520.3203
 Red. masses --      1.1111                 1.0508                 1.0494
 Frc consts  --      7.0360                 7.4995                 7.6623
 IR Inten    --      3.4221                 0.1644                 1.5033

                     34                     35                     36
                      A                      A                      A
 Frequencies --   3572.0336              3626.3288              3796.2483
 Red. masses --      1.0908                 1.0945                 1.0651
 Frc consts  --      8.1999                 8.4800                 9.0434
 IR Inten    --      1.2163                 3.6409                29.1282

 - Thermochemistry -
 -------------------
 Temperature   298.150 Kelvin.  Pressure   1.00000 Atm.
 Atom     1 has atomic number  6 and mass  12.00000

 Molecular mass:    88.06366 amu.
 Principal axes and moments of inertia in atomic units:
                           1         2         3
     Eigenvalues --   364.22304 588.76468 803.74923
           X            0.99965   0.02584  -0.00558
           Y           -0.02558   0.99873   0.04337
           Z            0.00670  -0.04321   0.99904
 This molecule is an asymmetric top.
 Rotational symmetry number  1.
 Rotational temperatures (Kelvin)      0.23780     0.14711     0.10776
 Rotational constants (GHZ):           4.95504     3.06530     2.24540
 Zero-point vibrational energy     315584.3 (Joules/Mol)
                                   75.42646 (Kcal/Mol)
 Warning -- explicit consideration of   9 degrees of freedom as
           vibrations may cause significant error
 Vibrational temperatures:    119.97   348.55   367.78   445.66   486.64
          (Kelvin)            550.97   639.55   735.61   804.40   926.51
                             1012.35  1143.13  1198.87  1213.31  1353.33
                             1419.34  1442.71  1616.70  1659.88  1763.49
                             1870.98  1922.83  2040.89  2073.15  2102.66
                             2383.49  2393.01  2500.17  4213.96  4553.99
                             4716.85  5007.61  5064.95  5139.35  5217.47
                             5461.95

 Zero-point correction=                           0.120200 (Hartree/Particle)
 Thermal correction to Energy=                    0.127243
 Thermal correction to Enthalpy=                  0.128188
 Thermal correction to Gibbs Free Energy=         0.089859
 Sum of electronic and zero-point Energies=           -303.721696
 Sum of electronic and thermal Energies=              -303.714653
 Sum of electronic and thermal Enthalpies=            -303.713708
 Sum of electronic and thermal Free Energies=         -303.752037

                     E (Thermal)             CV                S
                      KCal/Mol        Cal/Mol-Kelvin    Cal/Mol-Kelvin
 Total                   79.846             26.104             80.670
 Electronic               0.000              0.000              0.000
 Translational            0.889              2.981             39.339
 Rotational               0.889              2.981             26.647
 Vibrational             78.069             20.143             14.684
 Vibration     1          0.600              1.961              3.810
 Vibration     2          0.658              1.776              1.786
 Vibration     3          0.666              1.753              1.692
 Vibration     4          0.699              1.655              1.364
 Vibration     5          0.719              1.599              1.220
 Vibration     6          0.752              1.507              1.028
 Vibration     7          0.804              1.373              0.813
 Vibration     8          0.866              1.225              0.631
 Vibration     9          0.915              1.120              0.526

 Normal termination of Gaussian 09 at Thu Sep  8 15:03:21 2022.
