 Gaussian 09, Revision E.01,
 Gaussian 09:  ES64L-G09RevE.01 30-Nov-2015

 ----------------------------
 #P OPT Freq B3LYP/6-31G(d,p)
 ----------------------------

 ---------
 Frag_1047
 ---------
 Symbolic Z-matrix:
 Charge =  0 Multiplicity = 1

 SCF Done:  E(RB3LYP) =  -323.287079808     A.U. after   13 cycles
 SCF Done:  E(RB3LYP) =  -323.287131043     A.U. after   10 cycles
 SCF Done:  E(RB3LYP) =  -323.287136390     A.U. after   10 cycles
 SCF Done:  E(RB3LYP) =  -323.287142442     A.U. after    9 cycles
 SCF Done:  E(RB3LYP) =  -323.287147688     A.U. after    9 cycles
 SCF Done:  E(RB3LYP) =  -323.287150968     A.U. after    9 cycles
 SCF Done:  E(RB3LYP) =  -323.287152598     A.U. after    8 cycles
 SCF Done:  E(RB3LYP) =  -323.287153148     A.U. after    7 cycles
 SCF Done:  E(RB3LYP) =  -323.287153369     A.U. after    6 cycles
 SCF Done:  E(RB3LYP) =  -323.287153375     A.U. after    7 cycles
 Optimization completed.
    -- Stationary point found.
 Normal termination of Gaussian 09 at Thu Sep  8 14:49:27 2022.

 ----------------------------------------------------------------------
 #P Geom=AllCheck Guess=TCheck SCRF=Check GenChk RB3LYP/6-31G(d,p) Freq
 ----------------------------------------------------------------------

 Structure from the checkpoint file:  "B3LYP6-31Gdp.Frag_1047.chk"
 ---------
 Frag_1047
 ---------
 Charge =  0 Multiplicity = 1

                         Standard orientation:
 ---------------------------------------------------------------------
 Center     Atomic      Atomic             Coordinates (Angstroms)
 Number     Number       Type             X           Y           Z
 ---------------------------------------------------------------------
      1          6           0       -1.477261    1.402800   -0.003959
      2          6           0       -0.932277    0.183205   -0.017214
      3          6           0       -1.763020   -1.074038    0.014240
      4          6           0        0.591845   -0.025448    0.002542
      5          7           0        0.919126   -1.076304   -0.977048
      6          7           0        1.278107    1.264429   -0.212488
      7          7           0        0.953454   -0.555356    1.319216
      8          1           0       -0.872604    2.301676    0.020578
      9          1           0       -2.556462    1.528046    0.009933
     10          1           0       -2.824414   -0.837033    0.127173
     11          1           0       -1.444329   -1.705640    0.849000
     12          1           0       -1.629279   -1.670463   -0.893625
     13          1           0        1.932227   -1.181274   -1.028135
     14          1           0        0.620014   -0.769609   -1.900348
     15          1           0        2.284078    1.104727   -0.193902
     16          1           0        1.054506    1.631177   -1.136659
     17          1           0        1.881769   -0.973041    1.291762
     18          1           0        0.983967    0.222939    1.972803
 ---------------------------------------------------------------------

 SCF Done:  E(RB3LYP) =  -323.287153375     A.U. after    1 cycles

 The electronic state is 1-A.
 Alpha  occ. eigenvalues --  -14.31631 -14.31432 -14.31045 -10.26966 -10.18337
 Alpha  occ. eigenvalues --  -10.16282 -10.16030  -0.94605  -0.83896  -0.83524
 Alpha  occ. eigenvalues --   -0.77524  -0.66730  -0.62571  -0.52971  -0.49550
 Alpha  occ. eigenvalues --   -0.49028  -0.46553  -0.45874  -0.42463  -0.40528
 Alpha  occ. eigenvalues --   -0.38821  -0.38533  -0.34999  -0.32793  -0.29317
 Alpha  occ. eigenvalues --   -0.24479  -0.23928  -0.22140
 Alpha virt. eigenvalues --    0.02865   0.05824   0.11566   0.12073   0.13362
 Alpha virt. eigenvalues --    0.14037   0.16322   0.17004   0.17574   0.19313
 Alpha virt. eigenvalues --    0.20989   0.21144   0.25261   0.26519   0.27744

 Mulliken charges:
               1
     1  C   -0.290610
     2  C    0.168698
     3  C   -0.339811
     4  C    0.263351
     5  N   -0.568944
     6  N   -0.580646
     7  N   -0.556798
     8  H    0.106004
     9  H    0.083855
    10  H    0.090930
    11  H    0.139328
    12  H    0.113757
    13  H    0.219630
    14  H    0.234378
    15  H    0.215276
    16  H    0.226926
    17  H    0.226024
    18  H    0.248651
 Sum of Mulliken charges =  -0.00000

 Dipole moment (field-independent basis, Debye):
    X=              2.3101    Y=              0.7445    Z=             -1.5386  Tot=              2.8737
 Quadrupole moment (field-independent basis, Debye-Ang):
   XX=            -36.5575   YY=            -48.7235   ZZ=            -41.4704
   XY=             -0.7467   XZ=             -0.6589   YZ=             -0.4994

  Exact polarizability:  70.681  -6.078  69.273   0.686  -0.379  50.743
 Approx polarizability:  91.672 -13.166 104.112   2.007  -0.831  71.945

                      1                      2                      3
                      A                      A                      A
 Frequencies --     75.8909               149.0138               174.9523
 Red. masses --      2.6254                 1.1087                 1.0722
 Frc consts  --      0.0089                 0.0145                 0.0193
 IR Inten    --      0.0231                18.4511                 0.5681

                      4                      5                      6
                      A                      A                      A
 Frequencies --    252.7555               269.3598               291.8046
 Red. masses --      1.8672                 1.3810                 3.0378
 Frc consts  --      0.0703                 0.0590                 0.1524
 IR Inten    --      4.1452                15.0673                 2.9288

                      7                      8                      9
                      A                      A                      A
 Frequencies --    346.4324               398.3753               416.4911
 Red. masses --      1.1853                 2.5508                 2.7992
 Frc consts  --      0.0838                 0.2385                 0.2861
 IR Inten    --     65.1117                21.1562                 7.4005

                     10                     11                     12
                      A                      A                      A
 Frequencies --    447.3924               521.5757               534.8678
 Red. masses --      2.4322                 2.3618                 3.6335
 Frc consts  --      0.2868                 0.3786                 0.6124
 IR Inten    --     13.8127                28.8335                22.1666

                     13                     14                     15
                      A                      A                      A
 Frequencies --    586.7991               714.2149               759.3708
 Red. masses --      2.4077                 3.1063                 1.2045
 Frc consts  --      0.4885                 0.9336                 0.4092
 IR Inten    --      9.4007                 6.4958                23.3339

                     16                     17                     18
                      A                      A                      A
 Frequencies --    813.5655               855.8254               882.1336
 Red. masses --      1.3397                 1.7414                 1.8730
 Frc consts  --      0.5225                 0.7515                 0.8587
 IR Inten    --    175.9992               172.8621                73.1989

                     19                     20                     21
                      A                      A                      A
 Frequencies --    939.6310               958.1571               985.3845
 Red. masses --      1.6400                 1.4502                 2.0067
 Frc consts  --      0.8531                 0.7844                 1.1480
 IR Inten    --     15.4691                19.9473                17.2508

                     22                     23                     24
                      A                      A                      A
 Frequencies --   1008.1380              1052.1511              1081.3612
 Red. masses --      1.5088                 1.6296                 1.4819
 Frc consts  --      0.9035                 1.0629                 1.0210
 IR Inten    --     25.5736                22.9518                 3.0202

                     25                     26                     27
                      A                      A                      A
 Frequencies --   1147.9524              1169.0668              1282.2326
 Red. masses --      1.4349                 1.7605                 2.5000
 Frc consts  --      1.1141                 1.4176                 2.4218
 IR Inten    --     31.5324                60.1370                 7.3661

                     28                     29                     30
                      A                      A                      A
 Frequencies --   1296.6565              1416.3654              1421.7082
 Red. masses --      1.8939                 1.3122                 1.7649
 Frc consts  --      1.8761                 1.5509                 2.1018
 IR Inten    --     37.1455                 8.6418                 4.7317

                     31                     32                     33
                      A                      A                      A
 Frequencies --   1454.9513              1483.4869              1509.4929
 Red. masses --      1.2908                 1.0561                 1.0561
 Frc consts  --      1.6099                 1.3694                 1.4178
 IR Inten    --     12.9569                 5.9607                16.5173

                     34                     35                     36
                      A                      A                      A
 Frequencies --   1630.9279              1648.8682              1679.2539
 Red. masses --      1.0995                 1.0967                 1.1045
 Frc consts  --      1.7232                 1.7567                 1.8351
 IR Inten    --     22.8263                41.9443                24.0508

                     37                     38                     39
                      A                      A                      A
 Frequencies --   1730.5736              3051.7370              3116.0416
 Red. masses --      5.2248                 1.0350                 1.0998
 Frc consts  --      9.2194                 5.6791                 6.2918
 IR Inten    --      6.5615                21.8064                14.6714

                     40                     41                     42
                      A                      A                      A
 Frequencies --   3132.5318              3160.9469              3254.7173
 Red. masses --      1.1039                 1.0622                 1.1135
 Frc consts  --      6.3820                 6.2528                 6.9497
 IR Inten    --     19.0211                14.3364                 8.1861

                     43                     44                     45
                      A                      A                      A
 Frequencies --   3464.6742              3468.7324              3483.7810
 Red. masses --      1.0500                 1.0499                 1.0496
 Frc consts  --      7.4261                 7.4425                 7.5057
 IR Inten    --      1.3208                 4.1737                 2.6433

                     46                     47                     48
                      A                      A                      A
 Frequencies --   3557.7551              3561.7346              3585.6332
 Red. masses --      1.0930                 1.0907                 1.0923
 Frc consts  --      8.1514                 8.1525                 8.2739
 IR Inten    --      1.1158                 1.3890                 1.8410

 - Thermochemistry -
 -------------------
 Temperature   298.150 Kelvin.  Pressure   1.00000 Atm.
 Atom     1 has atomic number  6 and mass  12.00000

 Molecular mass:   101.09530 amu.
 Principal axes and moments of inertia in atomic units:
                           1         2         3
     Eigenvalues --   547.73284 758.48699 937.96078
           X            0.99966   0.02532  -0.00553
           Y           -0.02534   0.99967  -0.00420
           Z            0.00542   0.00434   0.99998
 This molecule is an asymmetric top.
 Rotational symmetry number  1.
 Warning -- assumption of classical behavior for rotation
           may cause significant error
 Rotational temperatures (Kelvin)      0.15813     0.11419     0.09234
 Rotational constants (GHZ):           3.29493     2.37940     1.92411
 Zero-point vibrational energy     420041.6 (Joules/Mol)
                                  100.39234 (Kcal/Mol)
 Warning -- explicit consideration of  13 degrees of freedom as
           vibrations may cause significant error
 Vibrational temperatures:    109.19   214.40   251.72   363.66   387.55
          (Kelvin)            419.84   498.44   573.17   599.24   643.70
                              750.43   769.55   844.27  1027.59  1092.56
                             1170.54  1231.34  1269.19  1351.92  1378.57
                             1417.75  1450.48  1513.81  1555.84  1651.65
                             1682.02  1844.84  1865.60  2037.83  2045.52
                             2093.35  2134.40  2171.82  2346.54  2372.35
                             2416.07  2489.91  4390.76  4483.28  4507.01
                             4547.89  4682.81  4984.89  4990.73  5012.38
                             5118.81  5124.54  5158.92

 Zero-point correction=                           0.159985 (Hartree/Particle)
 Thermal correction to Energy=                    0.168748
 Thermal correction to Enthalpy=                  0.169692
 Thermal correction to Gibbs Free Energy=         0.127683
 Sum of electronic and zero-point Energies=           -323.127168
 Sum of electronic and thermal Energies=              -323.118405
 Sum of electronic and thermal Enthalpies=            -323.117461
 Sum of electronic and thermal Free Energies=         -323.159470

                     E (Thermal)             CV                S
                      KCal/Mol        Cal/Mol-Kelvin    Cal/Mol-Kelvin
 Total                  105.891             33.043             88.416
 Electronic               0.000              0.000              0.000
 Translational            0.889              2.981             39.751
 Rotational               0.889              2.981             27.457
 Vibrational            104.114             27.081             21.208
 Vibration     1          0.599              1.965              3.994
 Vibration     2          0.618              1.904              2.685
 Vibration     3          0.627              1.873              2.382
 Vibration     4          0.664              1.758              1.711
 Vibration     5          0.674              1.730              1.600
 Vibration     6          0.687              1.689              1.463
 Vibration     7          0.724              1.583              1.182
 Vibration     8          0.765              1.474              0.969
 Vibration     9          0.780              1.434              0.904
 Vibration    10          0.807              1.367              0.804
 Vibration    11          0.877              1.202              0.606
 Vibration    12          0.890              1.173              0.576
 Vibration    13          0.944              1.060              0.473

 Optimization completed.
    -- Stationary point found.
 Normal termination of Gaussian 09 at Thu Sep  8 14:49:44 2022.
