 Gaussian 09, Revision E.01,
 Gaussian 09:  ES64L-G09RevE.01 30-Nov-2015

 ----------------------------
 #P OPT Freq B3LYP/6-31G(d,p)
 ----------------------------

 --------
 Frag_476
 --------
 Symbolic Z-matrix:
 Charge =  0 Multiplicity = 1

 SCF Done:  E(RB3LYP) =  -302.666633283     A.U. after   15 cycles
 SCF Done:  E(RB3LYP) =  -302.666735249     A.U. after   12 cycles
 SCF Done:  E(RB3LYP) =  -302.666740666     A.U. after   12 cycles
 SCF Done:  E(RB3LYP) =  -302.666747551     A.U. after   10 cycles
 SCF Done:  E(RB3LYP) =  -302.666747219     A.U. after    9 cycles
 SCF Done:  E(RB3LYP) =  -302.666748050     A.U. after    8 cycles
 SCF Done:  E(RB3LYP) =  -302.666748107     A.U. after    8 cycles
 SCF Done:  E(RB3LYP) =  -302.666748173     A.U. after    7 cycles
 Optimization completed.
    -- Stationary point found.
 Normal termination of Gaussian 09 at Thu Sep  8 15:11:38 2022.

 ----------------------------------------------------------------------
 #P Geom=AllCheck Guess=TCheck SCRF=Check GenChk RB3LYP/6-31G(d,p) Freq
 ----------------------------------------------------------------------

 Structure from the checkpoint file:  "B3LYP6-31Gdp.Frag_476.chk"
 --------
 Frag_476
 --------
 Charge =  0 Multiplicity = 1

                         Standard orientation:
 ---------------------------------------------------------------------
 Center     Atomic      Atomic             Coordinates (Angstroms)
 Number     Number       Type             X           Y           Z
 ---------------------------------------------------------------------
      1          6           0       -1.749020   -0.765110    0.295177
      2          6           0       -0.706944    0.267068   -0.027488
      3          7           0       -1.039403    1.464285   -0.324164
      4          6           0        0.730319   -0.251251   -0.037751
      5          7           0        1.689037    0.671569    0.290514
      6          8           0        0.990759   -1.400031   -0.362033
      7          1           0       -1.638268   -1.620279   -0.377735
      8          1           0       -2.743612   -0.329129    0.198505
      9          1           0       -1.612315   -1.148588    1.312990
     10          1           0       -0.212243    2.020350   -0.566586
     11          1           0        2.637133    0.330358    0.359745
     12          1           0        1.449669    1.492320    0.825262
 ---------------------------------------------------------------------

 SCF Done:  E(RB3LYP) =  -302.666748173     A.U. after    1 cycles

 The electronic state is 1-A.
 Alpha  occ. eigenvalues --  -19.13063 -14.37397 -14.33349 -10.30300 -10.25022
 Alpha  occ. eigenvalues --  -10.18482  -1.04779  -0.93063  -0.90408  -0.73902
 Alpha  occ. eigenvalues --   -0.64994  -0.57121  -0.55134  -0.50815  -0.44181
 Alpha  occ. eigenvalues --   -0.43228  -0.41121  -0.39764  -0.38586  -0.31511
 Alpha  occ. eigenvalues --   -0.30676  -0.28812  -0.24561
 Alpha virt. eigenvalues --   -0.04384   0.05237   0.06682   0.11542   0.13042
 Alpha virt. eigenvalues --    0.14102   0.16773   0.18407   0.22728   0.26538
 Alpha virt. eigenvalues --    0.32098   0.33862   0.42917   0.52552   0.54325

 Mulliken charges:
               1
     1  C   -0.349418
     2  C    0.221079
     3  N   -0.500436
     4  C    0.534075
     5  N   -0.613073
     6  O   -0.482283
     7  H    0.152076
     8  H    0.132221
     9  H    0.125055
    10  H    0.223475
    11  H    0.284276
    12  H    0.272951
 Sum of Mulliken charges =  -0.00000

 Dipole moment (field-independent basis, Debye):
    X=              1.7392    Y=              1.7343    Z=              1.7958  Tot=              3.0426
 Quadrupole moment (field-independent basis, Debye-Ang):
   XX=            -32.7695   YY=            -38.1906   ZZ=            -34.7629
   XY=              8.0458   XZ=              1.6972   YZ=              0.2905

  Exact polarizability:  50.597   1.376  56.798   0.786  -0.366  29.578
 Approx polarizability:  64.315  -3.217  99.939   1.609   1.138  43.378

                      1                      2                      3
                      A                      A                      A
 Frequencies --     77.8665               161.2325               254.5797
 Red. masses --      4.3097                 1.0535                 3.6785
 Frc consts  --      0.0154                 0.0161                 0.1405
 IR Inten    --      6.4854                 0.3880                17.3186

                      4                      5                      6
                      A                      A                      A
 Frequencies --    318.1733               380.3604               400.1914
 Red. masses --      3.3946                 2.0316                 1.5699
 Frc consts  --      0.2025                 0.1732                 0.1481
 IR Inten    --      7.0205               104.8914               104.7415

                      7                      8                      9
                      A                      A                      A
 Frequencies --    543.3784               561.6254               585.7918
 Red. masses --      2.2647                 2.9813                 1.4115
 Frc consts  --      0.3940                 0.5541                 0.2854
 IR Inten    --     10.0408                 0.9199                36.8519

                     10                     11                     12
                      A                      A                      A
 Frequencies --    735.4306               736.5496               946.8613
 Red. masses --      2.9270                 3.2691                 1.5910
 Frc consts  --      0.9327                 1.0449                 0.8404
 IR Inten    --     43.2370                 3.4575                38.5554

                     13                     14                     15
                      A                      A                      A
 Frequencies --    996.2727              1083.4176              1093.8447
 Red. masses --      1.9838                 1.4463                 1.7762
 Frc consts  --      1.1601                 1.0002                 1.2522
 IR Inten    --     17.4779                 7.2027                 8.9687

                     16                     17                     18
                      A                      A                      A
 Frequencies --   1112.3003              1314.3766              1387.5025
 Red. masses --      1.5498                 1.9772                 1.6674
 Frc consts  --      1.1297                 2.0125                 1.8913
 IR Inten    --     31.9988               134.0870                41.5287

                     19                     20                     21
                      A                      A                      A
 Frequencies --   1429.5239              1481.9023              1484.9010
 Red. masses --      1.8914                 1.0572                 1.0503
 Frc consts  --      2.2772                 1.3679                 1.3645
 IR Inten    --      8.9878                11.2635                 9.0508

                     22                     23                     24
                      A                      A                      A
 Frequencies --   1619.4944              1720.2439              1796.8271
 Red. masses --      1.2707                 8.3461                 9.2695
 Frc consts  --      1.9636                14.5517                17.6326
 IR Inten    --     97.0956                66.5726               227.8621

                     25                     26                     27
                      A                      A                      A
 Frequencies --   3053.8197              3118.5031              3170.9954
 Red. masses --      1.0397                 1.0952                 1.1042
 Frc consts  --      5.7125                 6.2754                 6.5419
 IR Inten    --      6.1220                 6.6041                 6.4086

                     28                     29                     30
                      A                      A                      A
 Frequencies --   3427.8175              3590.4115              3723.3265
 Red. masses --      1.0740                 1.0455                 1.1038
 Frc consts  --      7.4349                 7.9409                 9.0156
 IR Inten    --      3.9030                37.7171                38.6586

 - Thermochemistry -
 -------------------
 Temperature   298.150 Kelvin.  Pressure   1.00000 Atm.
 Atom     1 has atomic number  6 and mass  12.00000

 Molecular mass:    86.04801 amu.
 Principal axes and moments of inertia in atomic units:
                           1         2         3
     Eigenvalues --   337.83630 542.36263 817.05709
           X            0.99017   0.13983   0.00075
           Y           -0.13982   0.99013  -0.00930
           Z           -0.00205   0.00910   0.99996
 This molecule is an asymmetric top.
 Rotational symmetry number  1.
 Rotational temperatures (Kelvin)      0.25638     0.15970     0.10601
 Rotational constants (GHZ):           5.34206     3.32755     2.20883
 Zero-point vibrational energy     253055.2 (Joules/Mol)
                                   60.48164 (Kcal/Mol)
 Warning -- explicit consideration of   9 degrees of freedom as
           vibrations may cause significant error
 Vibrational temperatures:    112.03   231.98   366.28   457.78   547.25
          (Kelvin)            575.79   781.80   808.05   842.82  1058.12
                             1059.73  1362.32  1433.41  1558.79  1573.80
                             1600.35  1891.09  1996.30  2056.76  2132.12
                             2136.44  2330.09  2475.04  2585.23  4393.76
                             4486.82  4562.35  4931.86  5165.79  5357.03

 Zero-point correction=                           0.096384 (Hartree/Particle)
 Thermal correction to Energy=                    0.103077
 Thermal correction to Enthalpy=                  0.104021
 Thermal correction to Gibbs Free Energy=         0.066076
 Sum of electronic and zero-point Energies=           -302.570365
 Sum of electronic and thermal Energies=              -302.563671
 Sum of electronic and thermal Enthalpies=            -302.562727
 Sum of electronic and thermal Free Energies=         -302.600672

                     E (Thermal)             CV                S
                      KCal/Mol        Cal/Mol-Kelvin    Cal/Mol-Kelvin
 Total                   64.682             23.331             79.861
 Electronic               0.000              0.000              0.000
 Translational            0.889              2.981             39.270
 Rotational               0.889              2.981             26.507
 Vibrational             62.904             17.369             14.084
 Vibration     1          0.599              1.964              3.944
 Vibration     2          0.622              1.890              2.535
 Vibration     3          0.665              1.755              1.699
 Vibration     4          0.705              1.639              1.319
 Vibration     5          0.750              1.512              1.038
 Vibration     6          0.766              1.470              0.962
 Vibration     7          0.899              1.154              0.558
 Vibration     8          0.917              1.114              0.521
 Vibration     9          0.943              1.062              0.475

 Optimization completed.
    -- Stationary point found.
 Normal termination of Gaussian 09 at Thu Sep  8 15:11:48 2022.
