 Gaussian 09, Revision E.01,
 Gaussian 09:  ES64L-G09RevE.01 30-Nov-2015

 ----------------------------
 #P OPT Freq B3LYP/6-31G(d,p)
 ----------------------------

 --------
 Frag_640
 --------
 Symbolic Z-matrix:
 Charge =  0 Multiplicity = 1

 SCF Done:  E(RB3LYP) =  -303.862736816     A.U. after   13 cycles
 SCF Done:  E(RB3LYP) =  -303.862800810     A.U. after   10 cycles
 SCF Done:  E(RB3LYP) =  -303.862802971     A.U. after    8 cycles
 SCF Done:  E(RB3LYP) =  -303.862800326     A.U. after    8 cycles
 SCF Done:  E(RB3LYP) =  -303.862798617     A.U. after    8 cycles
 SCF Done:  E(RB3LYP) =  -303.862795896     A.U. after    8 cycles
 Optimization completed.
    -- Stationary point found.
 Normal termination of Gaussian 09 at Thu Sep  8 14:57:18 2022.

 ----------------------------------------------------------------------
 #P Geom=AllCheck Guess=TCheck SCRF=Check GenChk RB3LYP/6-31G(d,p) Freq
 ----------------------------------------------------------------------

 Structure from the checkpoint file:  "B3LYP6-31Gdp.Frag_640.chk"
 --------
 Frag_640
 --------
 Charge =  0 Multiplicity = 1

                         Standard orientation:
 ---------------------------------------------------------------------
 Center     Atomic      Atomic             Coordinates (Angstroms)
 Number     Number       Type             X           Y           Z
 ---------------------------------------------------------------------
      1          6           0       -1.416755   -1.170363    0.239662
      2          6           0       -0.660307   -0.050556   -0.484043
      3          7           0       -1.326988    1.233398   -0.232831
      4          6           0        0.813575   -0.046760   -0.102169
      5          7           0        1.727330   -0.277697   -0.955212
      6          8           0        0.973510    0.251131    1.226355
      7          1           0       -0.977814   -2.147787    0.018224
      8          1           0       -2.460890   -1.167321   -0.082314
      9          1           0       -1.387525   -1.021077    1.323676
     10          1           0       -0.682055   -0.236413   -1.561083
     11          1           0       -1.223963    1.475318    0.751075
     12          1           0       -0.861939    1.970405   -0.758925
     13          1           0        2.666581   -0.232230   -0.545471
     14          1           0        1.918056    0.266225    1.439576
 ---------------------------------------------------------------------

 SCF Done:  E(RB3LYP) =  -303.862795896     A.U. after    1 cycles

 The electronic state is 1-A.
 Alpha  occ. eigenvalues --  -19.19444 -14.31404 -14.31157 -10.28049 -10.21940
 Alpha  occ. eigenvalues --  -10.17423  -1.07793  -0.89598  -0.87510  -0.73934
 Alpha  occ. eigenvalues --   -0.65580  -0.59073  -0.52482  -0.48447  -0.46547
 Alpha  occ. eigenvalues --   -0.43565  -0.41644  -0.41250  -0.36750  -0.35762
 Alpha  occ. eigenvalues --   -0.34753  -0.28007  -0.27638  -0.23739
 Alpha virt. eigenvalues --    0.02416   0.04884   0.09959   0.12752   0.14118
 Alpha virt. eigenvalues --    0.14498   0.17561   0.18678   0.19489   0.22533
 Alpha virt. eigenvalues --    0.24035   0.27072   0.29469   0.45887   0.52464

 Mulliken charges:
               1
     1  C   -0.311070
     2  C    0.023393
     3  N   -0.584103
     4  C    0.450987
     5  N   -0.539209
     6  O   -0.507483
     7  H    0.110625
     8  H    0.122448
     9  H    0.112246
    10  H    0.126414
    11  H    0.243888
    12  H    0.240544
    13  H    0.202557
    14  H    0.308763
 Sum of Mulliken charges =  -0.00000

 Dipole moment (field-independent basis, Debye):
    X=              1.8527    Y=              0.5838    Z=              2.0313  Tot=              2.8106
 Quadrupole moment (field-independent basis, Debye-Ang):
   XX=            -34.5145   YY=            -35.2136   ZZ=            -38.6150
   XY=              2.5705   XZ=              4.3752   YZ=             -0.3407

  Exact polarizability:  57.565  -1.469  41.732  -2.895   2.083  47.747
 Approx polarizability:  76.471  -5.049  55.977  -8.647   5.658  75.331

                      1                      2                      3
                      A                      A                      A
 Frequencies --     56.2032               229.4058               243.0666
 Red. masses --      4.5194                 1.6616                 1.6461
 Frc consts  --      0.0084                 0.0515                 0.0573
 IR Inten    --      0.0378                 0.3720                 1.1504

                      4                      5                      6
                      A                      A                      A
 Frequencies --    270.0455               307.6660               367.2819
 Red. masses --      2.2733                 1.2484                 2.6355
 Frc consts  --      0.0977                 0.0696                 0.2095
 IR Inten    --      4.2840                41.3349                11.4996

                      7                      8                      9
                      A                      A                      A
 Frequencies --    461.7802               525.2119               608.5299
 Red. masses --      1.1039                 3.2742                 2.6992
 Frc consts  --      0.1387                 0.5321                 0.5889
 IR Inten    --     88.2320                22.9810                19.5201

                     10                     11                     12
                      A                      A                      A
 Frequencies --    712.3190               784.3240               868.6952
 Red. masses --      3.3569                 2.7960                 1.4031
 Frc consts  --      1.0035                 1.0134                 0.6238
 IR Inten    --     10.2330                49.6178                93.2194

                     13                     14                     15
                      A                      A                      A
 Frequencies --    900.8301               930.3465              1024.0916
 Red. masses --      1.7123                 1.8623                 1.3583
 Frc consts  --      0.8187                 0.9497                 0.8393
 IR Inten    --    149.6101                12.0290                10.0061

                     16                     17                     18
                      A                      A                      A
 Frequencies --   1043.0881              1124.2456              1148.2764
 Red. masses --      1.8264                 1.3618                 2.1132
 Frc consts  --      1.1708                 1.0141                 1.6416
 IR Inten    --    107.9753                45.0441                21.0325

                     19                     20                     21
                      A                      A                      A
 Frequencies --   1186.6948              1274.4460              1339.9658
 Red. masses --      1.6809                 1.5779                 1.3660
 Frc consts  --      1.3947                 1.5100                 1.4451
 IR Inten    --    125.0411                 5.0167                13.3861

                     22                     23                     24
                      A                      A                      A
 Frequencies --   1395.2239              1411.6715              1423.1166
 Red. masses --      1.6662                 1.4982                 1.3520
 Frc consts  --      1.9111                 1.7591                 1.6132
 IR Inten    --     38.6930                15.8276                11.5968

                     25                     26                     27
                      A                      A                      A
 Frequencies --   1505.4338              1512.7863              1671.4929
 Red. masses --      1.0431                 1.0556                 1.0942
 Frc consts  --      1.3929                 1.4233                 1.8012
 IR Inten    --      6.2154                 1.6621                27.7459

                     28                     29                     30
                      A                      A                      A
 Frequencies --   1755.6436              3053.4731              3099.9941
 Red. masses --      7.3785                 1.0350                 1.0877
 Frc consts  --     13.3995                 5.6855                 6.1588
 IR Inten    --    184.9032                16.0927                 4.2605

                     31                     32                     33
                      A                      A                      A
 Frequencies --   3128.6481              3142.3910              3425.4220
 Red. masses --      1.1013                 1.1032                 1.0753
 Frc consts  --      6.3513                 6.4184                 7.4334
 IR Inten    --     28.6411                18.2963                15.2117

                     34                     35                     36
                      A                      A                      A
 Frequencies --   3483.3245              3569.7116              3788.9412
 Red. masses --      1.0492                 1.0926                 1.0655
 Frc consts  --      7.5003                 8.2028                 9.0126
 IR Inten    --      0.3208                 0.2971                20.3577

 - Thermochemistry -
 -------------------
 Temperature   298.150 Kelvin.  Pressure   1.00000 Atm.
 Atom     1 has atomic number  6 and mass  12.00000

 Molecular mass:    88.06366 amu.
 Principal axes and moments of inertia in atomic units:
                           1         2         3
     Eigenvalues --   364.64769 679.57881 695.45010
           X            0.99942   0.03393  -0.00107
           Y           -0.03357   0.98308  -0.18010
           Z           -0.00506   0.18003   0.98365
 This molecule is an asymmetric top.
 Rotational symmetry number  1.
 Rotational temperatures (Kelvin)      0.23753     0.12745     0.12454
 Rotational constants (GHZ):           4.94927     2.65568     2.59507
 Zero-point vibrational energy     315657.3 (Joules/Mol)
                                   75.44392 (Kcal/Mol)
 Warning -- explicit consideration of   9 degrees of freedom as
           vibrations may cause significant error
 Vibrational temperatures:     80.86   330.06   349.72   388.53   442.66
          (Kelvin)            528.44   664.40   755.66   875.54  1024.87
                             1128.47  1249.86  1296.09  1338.56  1473.44
                             1500.77  1617.54  1652.11  1707.39  1833.64
                             1927.91  2007.41  2031.08  2047.54  2165.98
                             2176.56  2404.90  2525.98  4393.26  4460.19
                             4501.42  4521.19  4928.41  5011.72  5136.01
                             5451.43

 Zero-point correction=                           0.120228 (Hartree/Particle)
 Thermal correction to Energy=                    0.127258
 Thermal correction to Enthalpy=                  0.128202
 Thermal correction to Gibbs Free Energy=         0.089490
 Sum of electronic and zero-point Energies=           -303.742568
 Sum of electronic and thermal Energies=              -303.735538
 Sum of electronic and thermal Enthalpies=            -303.734594
 Sum of electronic and thermal Free Energies=         -303.773306

                     E (Thermal)             CV                S
                      KCal/Mol        Cal/Mol-Kelvin    Cal/Mol-Kelvin
 Total                   79.856             25.175             81.477
 Electronic               0.000              0.000              0.000
 Translational            0.889              2.981             39.339
 Rotational               0.889              2.981             26.647
 Vibrational             78.078             19.214             15.492
 Vibration     1          0.596              1.975              4.586
 Vibration     2          0.652              1.796              1.884
 Vibration     3          0.659              1.774              1.780
 Vibration     4          0.674              1.728              1.596
 Vibration     5          0.698              1.659              1.375
 Vibration     6          0.740              1.540              1.091
 Vibration     7          0.820              1.335              0.761
 Vibration     8          0.880              1.194              0.598
 Vibration     9          0.967              1.014              0.435

 Normal termination of Gaussian 09 at Thu Sep  8 14:57:29 2022.
