 Gaussian 09, Revision E.01,
 Gaussian 09:  ES64L-G09RevE.01 30-Nov-2015

 --------------------------------
 #P OPT=calcfc Freq B3LYP/6-31G**
 --------------------------------

 --------
 Frag_302
 --------
 Symbolic Z-matrix:
 Charge =  0 Multiplicity = 1

 SCF Done:  E(RB3LYP) =  -267.908935801     A.U. after   13 cycles
 SCF Done:  E(RB3LYP) =  -267.926394221     A.U. after   13 cycles
 SCF Done:  E(RB3LYP) =  -267.927433370     A.U. after   13 cycles
 SCF Done:  E(RB3LYP) =  -267.928247596     A.U. after   13 cycles
 SCF Done:  E(RB3LYP) =  -267.926595626     A.U. after   13 cycles
 SCF Done:  E(RB3LYP) =  -267.929143372     A.U. after   11 cycles
 SCF Done:  E(RB3LYP) =  -267.918281587     A.U. after   12 cycles
 SCF Done:  E(RB3LYP) =  -267.929770975     A.U. after   10 cycles
 SCF Done:  E(RB3LYP) =  -267.930253858     A.U. after   11 cycles
 SCF Done:  E(RB3LYP) =  -267.931107538     A.U. after   11 cycles
 SCF Done:  E(RB3LYP) =  -267.933295863     A.U. after   10 cycles
 SCF Done:  E(RB3LYP) =  -267.933342347     A.U. after   10 cycles
 SCF Done:  E(RB3LYP) =  -267.933385733     A.U. after    9 cycles
 SCF Done:  E(RB3LYP) =  -267.933429642     A.U. after    8 cycles
 SCF Done:  E(RB3LYP) =  -267.933530524     A.U. after   10 cycles
 SCF Done:  E(RB3LYP) =  -267.933590605     A.U. after    9 cycles
 SCF Done:  E(RB3LYP) =  -267.933622889     A.U. after    9 cycles
 SCF Done:  E(RB3LYP) =  -267.933643232     A.U. after   10 cycles
 SCF Done:  E(RB3LYP) =  -267.933643879     A.U. after    7 cycles
 Optimization completed.
    -- Stationary point found.
 Normal termination of Gaussian 09 at Fri Sep 10 20:10:54 2021.

 ----------------------------------------------------------------------
 #P Geom=AllCheck Guess=TCheck SCRF=Check GenChk RB3LYP/6-31G(d,p) Freq
 ----------------------------------------------------------------------

 Structure from the checkpoint file:  "/public/home/users/caep010/.cache/gau_scr/Gau-90340.chk"
 --------
 Frag_302
 --------
 Charge =  0 Multiplicity = 1

                         Standard orientation:
 ---------------------------------------------------------------------
 Center     Atomic      Atomic             Coordinates (Angstroms)
 Number     Number       Type             X           Y           Z
 ---------------------------------------------------------------------
      1          6           0       -1.299875    1.290242   -0.355122
      2          6           0       -0.755538    0.113992    0.016541
      3          7           0       -1.520512   -1.052780    0.218001
      4          7           0        0.613187   -0.100471    0.256413
      5          6           0        1.467868    1.072346    0.291338
      6          6           0        1.243193   -1.244264   -0.404688
      7          1           0       -2.376353    1.417524   -0.365396
      8          1           0       -0.698849    2.131405   -0.670654
      9          1           0       -1.329649   -1.490067    1.114249
     10          1           0       -2.512135   -0.886967    0.102673
     11          1           0        2.437873    0.791862    0.714076
     12          1           0        1.647967    1.509154   -0.706367
     13          1           0        1.017259    1.838751    0.925886
     14          1           0        1.549583   -1.007145   -1.437670
     15          1           0        2.135401   -1.545332    0.154626
     16          1           0        0.546283   -2.080321   -0.440737
 ---------------------------------------------------------------------

 SCF Done:  E(RB3LYP) =  -267.933643879     A.U. after    1 cycles

 The electronic state is 1-A.
 Alpha  occ. eigenvalues --  -14.33680 -14.32758 -10.23573 -10.20248 -10.20150
 Alpha  occ. eigenvalues --  -10.14263  -0.94625  -0.87328  -0.72309  -0.69937
 Alpha  occ. eigenvalues --   -0.64586  -0.54168  -0.50795  -0.47951  -0.45604
 Alpha  occ. eigenvalues --   -0.43940  -0.40771  -0.39201  -0.38129  -0.37332
 Alpha  occ. eigenvalues --   -0.36517  -0.31852  -0.22998  -0.18650
 Alpha virt. eigenvalues --    0.05889   0.08986   0.11056   0.13494   0.14674
 Alpha virt. eigenvalues --    0.15463   0.16864   0.17498   0.18104   0.19422
 Alpha virt. eigenvalues --    0.20259   0.21456   0.25201   0.29635   0.35757

 Mulliken charges:
               1
     1  C   -0.343321
     2  C    0.466123
     3  N   -0.638798
     4  N   -0.456649
     5  C   -0.161531
     6  C   -0.170780
     7  H    0.065811
     8  H    0.081141
     9  H    0.253510
    10  H    0.253575
    11  H    0.102261
    12  H    0.094976
    13  H    0.121840
    14  H    0.095072
    15  H    0.103725
    16  H    0.133043
 Sum of Mulliken charges =  -0.00000

 Dipole moment (field-independent basis, Debye):
    X=              0.1839    Y=             -0.6320    Z=              0.7824  Tot=              1.0224
 Quadrupole moment (field-independent basis, Debye-Ang):
   XX=            -33.3872   YY=            -37.9515   ZZ=            -39.4601
   XY=              1.7471   XZ=             -1.7791   YZ=             -1.6055

  Exact polarizability:  67.691  -4.930  65.806   1.348  -5.709  40.615
 Approx polarizability:  87.768 -10.110  97.172   4.266 -11.804  58.611

                      1                      2                      3
                      A                      A                      A
 Frequencies --    103.0881               180.6319               254.2905
 Red. masses --      3.0607                 1.2396                 1.5014
 Frc consts  --      0.0192                 0.0238                 0.0572
 IR Inten    --      2.4650                 1.6837                 5.4274

                      4                      5                      6
                      A                      A                      A
 Frequencies --    285.6157               325.2544               364.0192
 Red. masses --      1.4459                 2.2494                 1.0494
 Frc consts  --      0.0695                 0.1402                 0.0819
 IR Inten    --      4.4661                 0.3281                33.8089

                      7                      8                      9
                      A                      A                      A
 Frequencies --    406.2004               484.0269               517.3384
 Red. masses --      2.2481                 2.2814                 3.0931
 Frc consts  --      0.2185                 0.3149                 0.4877
 IR Inten    --      4.2814                 5.8543                 4.8008

                     10                     11                     12
                      A                      A                      A
 Frequencies --    604.0536               696.3266               744.5478
 Red. masses --      1.5613                 1.4075                 1.3969
 Frc consts  --      0.3356                 0.4021                 0.4563
 IR Inten    --    128.0886                 2.7485                35.2889

                     13                     14                     15
                      A                      A                      A
 Frequencies --    765.3294               802.9307               974.7404
 Red. masses --      3.0355                 1.7885                 1.8759
 Frc consts  --      1.0476                 0.6794                 1.0501
 IR Inten    --     32.7079               121.4250                 4.3260

                     16                     17                     18
                      A                      A                      A
 Frequencies --   1024.7197              1082.1129              1127.9799
 Red. masses --      1.8938                 1.4690                 1.2617
 Frc consts  --      1.1716                 1.0135                 0.9458
 IR Inten    --     44.4991                 7.4307                12.4310

                     19                     20                     21
                      A                      A                      A
 Frequencies --   1145.0061              1181.5794              1254.9631
 Red. masses --      1.4050                 1.4229                 3.7559
 Frc consts  --      1.0853                 1.1704                 3.4852
 IR Inten    --     26.6511                12.3542                17.5510

                     22                     23                     24
                      A                      A                      A
 Frequencies --   1285.4554              1406.4229              1445.8230
 Red. masses --      2.0104                 2.9825                 1.2062
 Frc consts  --      1.9572                 3.4759                 1.4856
 IR Inten    --      9.1414               108.2421                10.6538

                     25                     26                     27
                      A                      A                      A
 Frequencies --   1456.8988              1486.0384              1496.7440
 Red. masses --      1.1754                 1.1989                 1.0488
 Frc consts  --      1.4699                 1.5599                 1.3843
 IR Inten    --      3.0388                10.6551                12.9996

                     28                     29                     30
                      A                      A                      A
 Frequencies --   1513.6140              1519.8515              1542.4141
 Red. masses --      1.0727                 1.0481                 1.1138
 Frc consts  --      1.4479                 1.4265                 1.5612
 IR Inten    --     19.3535                 5.4287                18.3258

                     31                     32                     33
                      A                      A                      A
 Frequencies --   1633.9447              1713.9320              2965.5611
 Red. masses --      1.1866                 4.2654                 1.0572
 Frc consts  --      1.8665                 7.3825                 5.4780
 IR Inten    --     75.1706               167.4489                43.4109

                     34                     35                     36
                      A                      A                      A
 Frequencies --   2975.3575              3076.5493              3078.1278
 Red. masses --      1.0587                 1.0819                 1.0785
 Frc consts  --      5.5219                 6.0333                 6.0206
 IR Inten    --    111.1461                 8.4109                76.6377

                     37                     38                     39
                      A                      A                      A
 Frequencies --   3134.9651              3169.6789              3184.0035
 Red. masses --      1.1015                 1.0965                 1.0617
 Frc consts  --      6.3785                 6.4909                 6.3413
 IR Inten    --     17.9242                 8.3496                 3.0648

                     40                     41                     42
                      A                      A                      A
 Frequencies --   3275.0310              3524.0592              3644.4789
 Red. masses --      1.1141                 1.0502                 1.0939
 Frc consts  --      7.0403                 7.6844                 8.5607
 IR Inten    --     13.2334                 2.9373                 5.0037

 - Thermochemistry -
 -------------------
 Temperature   298.150 Kelvin.  Pressure   1.00000 Atm.
 Atom     1 has atomic number  6 and mass  12.00000

 Molecular mass:    86.08440 amu.
 Principal axes and moments of inertia in atomic units:
                           1         2         3
     Eigenvalues --   371.50075 545.04714 830.08714
           X            0.99994  -0.00711  -0.00801
           Y            0.00707   0.99996  -0.00463
           Z            0.00805   0.00457   0.99996
 This molecule is an asymmetric top.
 Rotational symmetry number  1.
 Rotational temperatures (Kelvin)      0.23315     0.15891     0.10434
 Rotational constants (GHZ):           4.85797     3.31117     2.17416
 Zero-point vibrational energy     375948.6 (Joules/Mol)
                                   89.85388 (Kcal/Mol)
 Warning -- explicit consideration of  10 degrees of freedom as
           vibrations may cause significant error
 Vibrational temperatures:    148.32   259.89   365.87   410.94   467.97
          (Kelvin)            523.74   584.43   696.41   744.33   869.10
                             1001.86  1071.24  1101.14  1155.24  1402.43
                             1474.34  1556.92  1622.91  1647.41  1700.03
                             1805.61  1849.48  2023.53  2080.21  2096.15
                             2138.08  2153.48  2177.75  2186.72  2219.19
                             2350.88  2465.96  4266.78  4280.87  4426.46
                             4428.73  4510.51  4560.46  4581.07  4712.03
                             5070.33  5243.59

 Zero-point correction=                           0.143191 (Hartree/Particle)
 Thermal correction to Energy=                    0.150519
 Thermal correction to Enthalpy=                  0.151464
 Thermal correction to Gibbs Free Energy=         0.112745
 Sum of electronic and zero-point Energies=           -267.790453
 Sum of electronic and thermal Energies=              -267.783125
 Sum of electronic and thermal Enthalpies=            -267.782180
 Sum of electronic and thermal Free Energies=         -267.820899

                     E (Thermal)             CV                S
                      KCal/Mol        Cal/Mol-Kelvin    Cal/Mol-Kelvin
 Total                   94.452             27.138             81.491
 Electronic               0.000              0.000              0.000
 Translational            0.889              2.981             39.271
 Rotational               0.889              2.981             26.622
 Vibrational             92.675             21.176             15.598
 Vibration     1          0.605              1.947              3.395
 Vibration     2          0.630              1.866              2.322
 Vibration     3          0.665              1.756              1.701
 Vibration     4          0.683              1.700              1.500
 Vibration     5          0.709              1.625              1.284
 Vibration     6          0.738              1.546              1.105
 Vibration     7          0.771              1.457              0.940
 Vibration     8          0.840              1.285              0.699
 Vibration     9          0.872              1.212              0.616
 Vibration    10          0.963              1.023              0.443

 Optimization completed.
    -- Stationary point found.
 Normal termination of Gaussian 09 at Fri Sep 10 20:11:07 2021.
