 Gaussian 09, Revision E.01,
 Gaussian 09:  ES64L-G09RevE.01 30-Nov-2015

 ----------------------------
 #P OPT Freq B3LYP/6-31G(d,p)
 ----------------------------

 --------
 Frag_746
 --------
 Symbolic Z-matrix:
 Charge =  0 Multiplicity = 1

 SCF Done:  E(RB3LYP) =  -384.120429236     A.U. after   13 cycles
 SCF Done:  E(RB3LYP) =  -384.120502470     A.U. after   10 cycles
 SCF Done:  E(RB3LYP) =  -384.120517485     A.U. after    9 cycles
 SCF Done:  E(RB3LYP) =  -384.120527347     A.U. after    9 cycles
 SCF Done:  E(RB3LYP) =  -384.120534016     A.U. after    9 cycles
 SCF Done:  E(RB3LYP) =  -384.120538830     A.U. after    8 cycles
 SCF Done:  E(RB3LYP) =  -384.120539854     A.U. after    7 cycles
 SCF Done:  E(RB3LYP) =  -384.120540192     A.U. after    7 cycles
 SCF Done:  E(RB3LYP) =  -384.120540470     A.U. after    7 cycles
 SCF Done:  E(RB3LYP) =  -384.120540667     A.U. after    7 cycles
 SCF Done:  E(RB3LYP) =  -384.120540725     A.U. after    7 cycles
 Optimization completed.
    -- Stationary point found.
 Normal termination of Gaussian 09 at Thu Sep  8 15:00:21 2022.

 ----------------------------------------------------------------------
 #P Geom=AllCheck Guess=TCheck SCRF=Check GenChk RB3LYP/6-31G(d,p) Freq
 ----------------------------------------------------------------------

 Structure from the checkpoint file:  "B3LYP6-31Gdp.Frag_746.chk"
 --------
 Frag_746
 --------
 Charge =  0 Multiplicity = 1

                         Standard orientation:
 ---------------------------------------------------------------------
 Center     Atomic      Atomic             Coordinates (Angstroms)
 Number     Number       Type             X           Y           Z
 ---------------------------------------------------------------------
      1          6           0       -1.768566   -0.981976   -0.040187
      2          6           0       -0.837645    0.157180   -0.442910
      3          8           0       -1.257619    1.409096    0.093978
      4          6           0        0.619081   -0.080202    0.017097
      5          6           0        1.517617    1.129223   -0.255695
      6          8           0        0.590084   -0.394004    1.383573
      7          8           0        1.127598   -1.242110   -0.648152
      8          1           0       -1.394889   -1.933684   -0.425197
      9          1           0       -1.831522   -1.044419    1.047931
     10          1           0       -2.772609   -0.817054   -0.449640
     11          1           0       -0.795323    0.217045   -1.545437
     12          1           0       -2.209014    1.485245   -0.051123
     13          1           0        1.151775    1.993303    0.299334
     14          1           0        1.529169    1.388028   -1.321158
     15          1           0        2.542339    0.901823    0.056925
     16          1           0        1.464733   -0.745502    1.601324
     17          1           0        1.451908   -0.973988   -1.517980
 ---------------------------------------------------------------------

 SCF Done:  E(RB3LYP) =  -384.120540725     A.U. after    1 cycles

 The electronic state is 1-A.
 Alpha  occ. eigenvalues --  -19.14913 -19.14228 -19.13936 -10.28441 -10.23147
 Alpha  occ. eigenvalues --  -10.17487 -10.16725  -1.05952  -1.01217  -0.98761
 Alpha  occ. eigenvalues --   -0.75945  -0.72527  -0.64297  -0.58452  -0.53239
 Alpha  occ. eigenvalues --   -0.48633  -0.47174  -0.46143  -0.42985  -0.40771
 Alpha  occ. eigenvalues --   -0.39716  -0.36949  -0.36625  -0.34295  -0.34111
 Alpha  occ. eigenvalues --   -0.32889  -0.29555  -0.26636  -0.25886
 Alpha virt. eigenvalues --    0.06140   0.08179   0.10546   0.13370   0.14495
 Alpha virt. eigenvalues --    0.16678   0.16879   0.17431   0.18234   0.19657
 Alpha virt. eigenvalues --    0.21226   0.23991   0.25230   0.27390   0.28567

 Mulliken charges:
               1
     1  C   -0.338764
     2  C    0.186969
     3  O   -0.545481
     4  C    0.475348
     5  C   -0.333981
     6  O   -0.529709
     7  O   -0.558228
     8  H    0.121802
     9  H    0.137572
    10  H    0.080867
    11  H    0.055890
    12  H    0.304575
    13  H    0.149026
    14  H    0.087687
    15  H    0.095165
    16  H    0.307950
    17  H    0.303312
 Sum of Mulliken charges =  -0.00000

 Dipole moment (field-independent basis, Debye):
    X=              0.3290    Y=              0.2096    Z=             -1.8759  Tot=              1.9161
 Quadrupole moment (field-independent basis, Debye-Ang):
   XX=            -34.8206   YY=            -46.6385   ZZ=            -41.0143
   XY=             -0.9892   XZ=              1.0575   YZ=             -0.9727

  Exact polarizability:  59.573   0.128  51.713  -0.222  -0.080  51.161
 Approx polarizability:  74.125  -3.597  70.926  -1.230   1.349  74.923

                      1                      2                      3
                      A                      A                      A
 Frequencies --     90.9446               206.2575               222.9333
 Red. masses --      3.7989                 1.0852                 1.0500
 Frc consts  --      0.0185                 0.0272                 0.0307
 IR Inten    --      3.2806               102.6170                47.0934

                      4                      5                      6
                      A                      A                      A
 Frequencies --    233.7704               246.1556               252.6403
 Red. masses --      1.4981                 1.6650                 1.2922
 Frc consts  --      0.0482                 0.0594                 0.0486
 IR Inten    --     16.5235                 5.2335                23.2281

                      7                      8                      9
                      A                      A                      A
 Frequencies --    267.1380               307.3994               344.7650
 Red. masses --      1.3173                 1.9049                 3.2177
 Frc consts  --      0.0554                 0.1061                 0.2253
 IR Inten    --     75.3853                52.0670                 5.9528

                     10                     11                     12
                      A                      A                      A
 Frequencies --    387.5849               430.6535               484.5515
 Red. masses --      3.5181                 3.0475                 2.9430
 Frc consts  --      0.3114                 0.3330                 0.4071
 IR Inten    --      4.9982                13.5297                 4.5742

                     13                     14                     15
                      A                      A                      A
 Frequencies --    557.5460               606.5695               756.5956
 Red. masses --      4.7461                 3.0426                 2.9186
 Frc consts  --      0.8693                 0.6596                 0.9843
 IR Inten    --     11.6189                18.2734                 7.9651

                     16                     17                     18
                      A                      A                      A
 Frequencies --    893.5480               936.1628               974.9147
 Red. masses --      2.4923                 1.9874                 1.9186
 Frc consts  --      1.1724                 1.0262                 1.0744
 IR Inten    --     26.7892                 1.0117                43.5808

                     19                     20                     21
                      A                      A                      A
 Frequencies --   1026.7440              1076.1224              1105.0262
 Red. masses --      1.4015                 2.0160                 1.8875
 Frc consts  --      0.8705                 1.3755                 1.3579
 IR Inten    --     30.9214                63.4394                62.4811

                     22                     23                     24
                      A                      A                      A
 Frequencies --   1134.3646              1165.6591              1174.4860
 Red. masses --      2.2684                 1.8101                 2.6920
 Frc consts  --      1.7198                 1.4491                 2.1879
 IR Inten    --    116.6997               132.0650                17.6210

                     25                     26                     27
                      A                      A                      A
 Frequencies --   1262.0902              1333.9960              1377.3326
 Red. masses --      1.2688                 1.5731                 1.2272
 Frc consts  --      1.1907                 1.6493                 1.3717
 IR Inten    --      6.5118               117.0885                 8.2160

                     28                     29                     30
                      A                      A                      A
 Frequencies --   1387.4473              1414.3019              1421.5393
 Red. masses --      1.6459                 1.2878                 1.3831
 Frc consts  --      1.8668                 1.5177                 1.6467
 IR Inten    --     42.4898                34.9006                 4.4886

                     31                     32                     33
                      A                      A                      A
 Frequencies --   1450.6080              1496.3374              1500.3301
 Red. masses --      1.6455                 1.0577                 1.0472
 Frc consts  --      2.0401                 1.3953                 1.3888
 IR Inten    --     11.6294                 1.3718                 2.5957

                     34                     35                     36
                      A                      A                      A
 Frequencies --   1512.1672              1524.3285              2951.6945
 Red. masses --      1.0555                 1.1446                 1.0831
 Frc consts  --      1.4220                 1.5670                 5.5599
 IR Inten    --      9.5155                 5.5674                72.2792

                     37                     38                     39
                      A                      A                      A
 Frequencies --   3041.2959              3044.1129              3107.4309
 Red. masses --      1.0402                 1.0437                 1.1015
 Frc consts  --      5.6685                 5.6983                 6.2668
 IR Inten    --     24.4513                26.4791                30.8385

                     40                     41                     42
                      A                      A                      A
 Frequencies --   3123.9438              3158.8239              3167.8820
 Red. masses --      1.0924                 1.1031                 1.0987
 Frc consts  --      6.2813                 6.4850                 6.4965
 IR Inten    --     19.9598                11.2769                 6.6931

                     43                     44                     45
                      A                      A                      A
 Frequencies --   3804.9640              3820.8957              3823.3906
 Red. masses --      1.0655                 1.0658                 1.0665
 Frc consts  --      9.0892                 9.1677                 9.1856
 IR Inten    --     21.9430                15.8444                12.6559

 - Thermochemistry -
 -------------------
 Temperature   298.150 Kelvin.  Pressure   1.00000 Atm.
 Atom     1 has atomic number  6 and mass  12.00000

 Molecular mass:   106.06299 amu.
 Principal axes and moments of inertia in atomic units:
                           1         2         3
     Eigenvalues --   544.87318 766.64093 945.66778
           X            0.99248   0.12236  -0.00261
           Y           -0.12238   0.99219  -0.02420
           Z           -0.00038   0.02434   0.99970
 This molecule is an asymmetric top.
 Rotational symmetry number  1.
 Warning -- assumption of classical behavior for rotation
           may cause significant error
 Rotational temperatures (Kelvin)      0.15896     0.11298     0.09159
 Rotational constants (GHZ):           3.31222     2.35409     1.90843
 Zero-point vibrational energy     380457.0 (Joules/Mol)
                                   90.93141 (Kcal/Mol)
 Warning -- explicit consideration of  14 degrees of freedom as
           vibrations may cause significant error
 Vibrational temperatures:    130.85   296.76   320.75   336.34   354.16
          (Kelvin)            363.49   384.35   442.28   496.04   557.65
                              619.61   697.16   802.18   872.72  1088.57
                             1285.61  1346.93  1402.68  1477.25  1548.30
                             1589.88  1632.10  1677.12  1689.82  1815.86
                             1919.32  1981.67  1996.22  2034.86  2045.28
                             2087.10  2152.89  2158.64  2175.67  2193.17
                             4246.82  4375.74  4379.79  4470.89  4494.65
                             4544.84  4557.87  5474.49  5497.41  5501.00

 Zero-point correction=                           0.144908 (Hartree/Particle)
 Thermal correction to Energy=                    0.153932
 Thermal correction to Enthalpy=                  0.154876
 Thermal correction to Gibbs Free Energy=         0.112489
 Sum of electronic and zero-point Energies=           -383.975632
 Sum of electronic and thermal Energies=              -383.966609
 Sum of electronic and thermal Enthalpies=            -383.965665
 Sum of electronic and thermal Free Energies=         -384.008052

                     E (Thermal)             CV                S
                      KCal/Mol        Cal/Mol-Kelvin    Cal/Mol-Kelvin
 Total                   96.594             33.000             89.210
 Electronic               0.000              0.000              0.000
 Translational            0.889              2.981             39.894
 Rotational               0.889              2.981             27.471
 Vibrational             94.816             27.039             21.846
 Vibration     1          0.602              1.956              3.640
 Vibration     2          0.641              1.831              2.077
 Vibration     3          0.649              1.806              1.935
 Vibration     4          0.654              1.789              1.850
 Vibration     5          0.661              1.769              1.758
 Vibration     6          0.664              1.758              1.712
 Vibration     7          0.672              1.733              1.615
 Vibration     8          0.697              1.660              1.376
 Vibration     9          0.723              1.586              1.190
 Vibration    10          0.756              1.497              1.009
 Vibration    11          0.792              1.403              0.857
 Vibration    12          0.841              1.284              0.698
 Vibration    13          0.913              1.123              0.529
 Vibration    14          0.965              1.018              0.438

 Optimization completed.
    -- Stationary point found.
 Normal termination of Gaussian 09 at Thu Sep  8 15:00:37 2022.
