 Gaussian 09, Revision E.01,
 Gaussian 09:  ES64L-G09RevE.01 30-Nov-2015

 ----------------------------
 #P OPT Freq B3LYP/6-31G(d,p)
 ----------------------------

 ---------
 Frag_1113
 ---------
 Symbolic Z-matrix:
 Charge =  0 Multiplicity = 1

 SCF Done:  E(RB3LYP) =  -265.748575137     A.U. after   13 cycles
 SCF Done:  E(RB3LYP) =  -265.748608883     A.U. after   10 cycles
 SCF Done:  E(RB3LYP) =  -265.748611851     A.U. after    8 cycles
 SCF Done:  E(RB3LYP) =  -265.748613233     A.U. after    7 cycles
 Optimization completed.
    -- Stationary point found.
 Normal termination of Gaussian 09 at Thu Sep  8 14:49:12 2022.

 ----------------------------------------------------------------------
 #P Geom=AllCheck Guess=TCheck SCRF=Check GenChk RB3LYP/6-31G(d,p) Freq
 ----------------------------------------------------------------------

 Structure from the checkpoint file:  "B3LYP6-31Gdp.Frag_1113.chk"
 ---------
 Frag_1113
 ---------
 Charge =  0 Multiplicity = 1

                         Standard orientation:
 ---------------------------------------------------------------------
 Center     Atomic      Atomic             Coordinates (Angstroms)
 Number     Number       Type             X           Y           Z
 ---------------------------------------------------------------------
      1          7           0       -0.531297    1.356645   -0.239376
      2          6           0       -0.485317    0.006460    0.326575
      3          7           0       -1.663547   -0.790629    0.008224
      4          6           0        0.751518   -0.701136   -0.239550
      5          8           0        1.955810    0.015368    0.026607
      6          1           0        0.407178    1.752872   -0.210267
      7          1           0       -1.132069    1.961030    0.316361
      8          1           0       -0.397895   -0.000089    1.429766
      9          1           0       -1.887007   -0.630837   -0.973749
     10          1           0       -2.465066   -0.449375    0.533773
     11          1           0        0.784246   -1.727158    0.147301
     12          1           0        0.665641   -0.748642   -1.330335
     13          1           0        2.145200   -0.074793    0.970207
 ---------------------------------------------------------------------

 SCF Done:  E(RB3LYP) =  -265.748613233     A.U. after    1 cycles

 The electronic state is 1-A.
 Alpha  occ. eigenvalues --  -19.14892 -14.31052 -14.30564 -10.23391 -10.22348
 Alpha  occ. eigenvalues --   -1.01948  -0.90925  -0.83096  -0.70254  -0.59580
 Alpha  occ. eigenvalues --   -0.50680  -0.50278  -0.47700  -0.43584  -0.42901
 Alpha  occ. eigenvalues --   -0.38868  -0.37615  -0.32689  -0.27733  -0.25138
 Alpha  occ. eigenvalues --   -0.23000
 Alpha virt. eigenvalues --    0.06834   0.08036   0.12348   0.13528   0.15304
 Alpha virt. eigenvalues --    0.17873   0.18272   0.18786   0.23020   0.24885
 Alpha virt. eigenvalues --    0.26430   0.28726   0.54094   0.55992   0.56812

 Mulliken charges:
               1
     1  N   -0.599569
     2  C    0.129896
     3  N   -0.581114
     4  C    0.063595
     5  O   -0.540433
     6  H    0.246378
     7  H    0.225466
     8  H    0.063653
     9  H    0.241203
    10  H    0.233882
    11  H    0.099691
    12  H    0.112854
    13  H    0.304498
 Sum of Mulliken charges =   0.00000

 Dipole moment (field-independent basis, Debye):
    X=             -0.6803    Y=              0.7561    Z=              2.0512  Tot=              2.2895
 Quadrupole moment (field-independent basis, Debye-Ang):
   XX=            -30.3586   YY=            -32.4250   ZZ=            -29.3401
   XY=             -2.4211   XZ=              2.3246   YZ=              2.6375

  Exact polarizability:  44.063   1.036  39.690   0.544   0.653  37.242
 Approx polarizability:  56.000   2.942  52.231   0.239  -0.018  53.224

                      1                      2                      3
                      A                      A                      A
 Frequencies --    152.5860               261.2805               293.8461
 Red. masses --      2.5711                 2.2613                 1.2171
 Frc consts  --      0.0353                 0.0910                 0.0619
 IR Inten    --      5.6892                 2.2002                47.4413

                      4                      5                      6
                      A                      A                      A
 Frequencies --    309.8078               364.6457               424.8837
 Red. masses --      1.2429                 1.1896                 2.3141
 Frc consts  --      0.0703                 0.0932                 0.2461
 IR Inten    --     14.1179               108.9725                58.5987

                      7                      8                      9
                      A                      A                      A
 Frequencies --    494.5981               533.8375               860.4556
 Red. masses --      2.2756                 2.9659                 2.0775
 Frc consts  --      0.3280                 0.4980                 0.9062
 IR Inten    --     42.9344                17.9040                73.8150

                     10                     11                     12
                      A                      A                      A
 Frequencies --    889.9524               896.0408               964.7033
 Red. masses --      1.6796                 1.5846                 1.4817
 Frc consts  --      0.7838                 0.7496                 0.8125
 IR Inten    --    120.5575               107.3781                29.6117

                     13                     14                     15
                      A                      A                      A
 Frequencies --   1074.8553              1082.7488              1113.4664
 Red. masses --      1.9628                 3.2859                 2.1066
 Frc consts  --      1.3361                 2.2696                 1.5388
 IR Inten    --     23.0840                48.0930                71.1042

                     16                     17                     18
                      A                      A                      A
 Frequencies --   1139.8229              1250.2501              1293.2801
 Red. masses --      1.1682                 1.6399                 1.2295
 Frc consts  --      0.8942                 1.5103                 1.2116
 IR Inten    --      5.9114                18.4640                 5.9599

                     19                     20                     21
                      A                      A                      A
 Frequencies --   1368.3728              1386.4182              1415.2136
 Red. masses --      1.2976                 1.2926                 1.2026
 Frc consts  --      1.4315                 1.4639                 1.4191
 IR Inten    --      9.7148                21.1695                45.3146

                     22                     23                     24
                      A                      A                      A
 Frequencies --   1464.0196              1508.0757              1653.8498
 Red. masses --      1.6127                 1.0867                 1.0968
 Frc consts  --      2.0365                 1.4562                 1.7676
 IR Inten    --      7.1693                 1.4521                40.4305

                     25                     26                     27
                      A                      A                      A
 Frequencies --   1676.7471              2931.2987              3043.4116
 Red. masses --      1.0947                 1.0826                 1.0607
 Frc consts  --      1.8134                 5.4808                 5.7885
 IR Inten    --     22.1007                90.4256                41.9634

                     28                     29                     30
                      A                      A                      A
 Frequencies --   3103.7898              3476.8552              3480.5542
 Red. masses --      1.1062                 1.0497                 1.0493
 Frc consts  --      6.2785                 7.4764                 7.4892
 IR Inten    --     33.8415                 4.6683                 1.9119

                     31                     32                     33
                      A                      A                      A
 Frequencies --   3562.9489              3568.7574              3807.2360
 Red. masses --      1.0913                 1.0929                 1.0663
 Frc consts  --      8.1621                 8.2006                 9.1064
 IR Inten    --      0.4876                 0.9679                13.6013

 - Thermochemistry -
 -------------------
 Temperature   298.150 Kelvin.  Pressure   1.00000 Atm.
 Atom     1 has atomic number  7 and mass  14.00307

 Molecular mass:    76.06366 amu.
 Principal axes and moments of inertia in atomic units:
                           1         2         3
     Eigenvalues --   216.17162 497.94420 650.32216
           X            0.99986  -0.01570   0.00622
           Y            0.01551   0.99943   0.02998
           Z           -0.00668  -0.02988   0.99953
 This molecule is an asymmetric top.
 Rotational symmetry number  1.
 Rotational temperatures (Kelvin)      0.40067     0.17394     0.13319
 Rotational constants (GHZ):           8.34865     3.62438     2.77515
 Zero-point vibrational energy     304142.2 (Joules/Mol)
                                   72.69174 (Kcal/Mol)
 Warning -- explicit consideration of   8 degrees of freedom as
           vibrations may cause significant error
 Vibrational temperatures:    219.54   375.92   422.78   445.74   524.64
          (Kelvin)            611.31   711.62   768.07  1238.00  1280.44
                             1289.20  1387.99  1546.48  1557.83  1602.03
                             1639.95  1798.83  1860.74  1968.78  1994.74
                             2036.17  2106.40  2169.78  2379.52  2412.46
                             4217.48  4378.79  4465.66  5002.41  5007.73
                             5126.28  5134.64  5477.76

 Zero-point correction=                           0.115842 (Hartree/Particle)
 Thermal correction to Energy=                    0.122058
 Thermal correction to Enthalpy=                  0.123003
 Thermal correction to Gibbs Free Energy=         0.086916
 Sum of electronic and zero-point Energies=           -265.632772
 Sum of electronic and thermal Energies=              -265.626555
 Sum of electronic and thermal Enthalpies=            -265.625611
 Sum of electronic and thermal Free Energies=         -265.661698

                     E (Thermal)             CV                S
                      KCal/Mol        Cal/Mol-Kelvin    Cal/Mol-Kelvin
 Total                   76.593             22.347             75.951
 Electronic               0.000              0.000              0.000
 Translational            0.889              2.981             38.903
 Rotational               0.889              2.981             25.751
 Vibrational             74.815             16.385             11.297
 Vibration     1          0.619              1.900              2.640
 Vibration     2          0.669              1.744              1.653
 Vibration     3          0.689              1.685              1.452
 Vibration     4          0.699              1.655              1.363
 Vibration     5          0.738              1.545              1.102
 Vibration     6          0.787              1.416              0.876
 Vibration     7          0.850              1.262              0.672
 Vibration     8          0.889              1.175              0.579

 Optimization completed.
    -- Stationary point found.
 Normal termination of Gaussian 09 at Thu Sep  8 14:49:22 2022.
