 Gaussian 09, Revision E.01,
 Gaussian 09:  ES64L-G09RevE.01 30-Nov-2015

 ----------------------------
 #P OPT Freq B3LYP/6-31G(d,p)
 ----------------------------

 --------
 Frag_477
 --------
 Symbolic Z-matrix:
 Charge =  0 Multiplicity = 1

 SCF Done:  E(RB3LYP) =  -248.497098923     A.U. after   13 cycles
 SCF Done:  E(RB3LYP) =  -248.497156988     A.U. after    8 cycles
 SCF Done:  E(RB3LYP) =  -248.497160303     A.U. after    8 cycles
 SCF Done:  E(RB3LYP) =  -248.497161280     A.U. after    8 cycles
 SCF Done:  E(RB3LYP) =  -248.497162156     A.U. after    8 cycles
 SCF Done:  E(RB3LYP) =  -248.497162696     A.U. after    8 cycles
 SCF Done:  E(RB3LYP) =  -248.497162962     A.U. after    7 cycles
 Optimization completed.
    -- Stationary point found.
 Normal termination of Gaussian 09 at Thu Sep  8 15:17:33 2022.

 ----------------------------------------------------------------------
 #P Geom=AllCheck Guess=TCheck SCRF=Check GenChk RB3LYP/6-31G(d,p) Freq
 ----------------------------------------------------------------------

 Structure from the checkpoint file:  "B3LYP6-31Gdp.Frag_477.chk"
 --------
 Frag_477
 --------
 Charge =  0 Multiplicity = 1

                         Standard orientation:
 ---------------------------------------------------------------------
 Center     Atomic      Atomic             Coordinates (Angstroms)
 Number     Number       Type             X           Y           Z
 ---------------------------------------------------------------------
      1          6           0        2.042256    0.004123   -0.016864
      2          6           0        0.702579   -0.677996    0.005788
      3          6           0       -0.488043   -0.048891    0.015467
      4          7           0       -0.709529    1.321804    0.093604
      5          8           0       -1.696403   -0.697397   -0.000694
      6          1           0        2.763708   -0.569826   -0.609325
      7          1           0        1.994215    1.002201   -0.471573
      8          1           0        2.481426    0.130770    0.983129
      9          1           0        0.695213   -1.763652    0.069509
     10          1           0       -1.518712    1.620258   -0.437653
     11          1           0        0.106244    1.884881   -0.101466
     12          1           0       -1.524917   -1.641500   -0.108642
 ---------------------------------------------------------------------

 SCF Done:  E(RB3LYP) =  -248.497162962     A.U. after    1 cycles

 The electronic state is 1-A.
 Alpha  occ. eigenvalues --  -19.16988 -14.33505 -10.26212 -10.17693 -10.15394
 Alpha  occ. eigenvalues --   -1.05625  -0.89654  -0.75384  -0.66091  -0.59693
 Alpha  occ. eigenvalues --   -0.52202  -0.46840  -0.44781  -0.41675  -0.40617
 Alpha  occ. eigenvalues --   -0.38172  -0.35596  -0.35284  -0.28250  -0.18490
 Alpha virt. eigenvalues --    0.06707   0.07560   0.09104   0.12440   0.13827
 Alpha virt. eigenvalues --    0.17836   0.19393   0.21669   0.23740   0.27836
 Alpha virt. eigenvalues --    0.35354   0.45513   0.53240   0.55338   0.56494

 Mulliken charges:
               1
     1  C   -0.347320
     2  C   -0.168171
     3  C    0.486384
     4  N   -0.628325
     5  O   -0.541469
     6  H    0.107146
     7  H    0.084090
     8  H    0.113426
     9  H    0.052454
    10  H    0.263849
    11  H    0.258610
    12  H    0.319327
 Sum of Mulliken charges =   0.00000

 Dipole moment (field-independent basis, Debye):
    X=              0.3518    Y=             -0.0040    Z=             -1.2420  Tot=              1.2909
 Quadrupole moment (field-independent basis, Debye-Ang):
   XX=            -31.7102   YY=            -24.2059   ZZ=            -32.9983
   XY=              1.3514   XZ=              1.7286   YZ=             -1.8391

  Exact polarizability:  57.047  -4.759  46.704   1.213  -0.352  25.128
 Approx polarizability:  81.233 -11.460  66.333   1.048   0.347  34.824

                      1                      2                      3
                      A                      A                      A
 Frequencies --    111.2835               161.2521               279.4232
 Red. masses --      1.1135                 1.4305                 2.3991
 Frc consts  --      0.0081                 0.0219                 0.1104
 IR Inten    --      0.6002                24.3775                 1.3825

                      4                      5                      6
                      A                      A                      A
 Frequencies --    306.1234               398.9765               490.6505
 Red. masses --      1.9824                 1.0663                 3.4572
 Frc consts  --      0.1095                 0.1000                 0.4904
 IR Inten    --     21.3757                89.2915                 7.7781

                      7                      8                      9
                      A                      A                      A
 Frequencies --    557.0466               575.8349               705.0531
 Red. masses --      2.7226                 1.6807                 2.2458
 Frc consts  --      0.4978                 0.3283                 0.6577
 IR Inten    --     31.8772               138.8246               173.5383

                     10                     11                     12
                      A                      A                      A
 Frequencies --    714.2987               866.9787              1026.7592
 Red. masses --      1.3799                 2.9215                 1.5968
 Frc consts  --      0.4148                 1.2938                 0.9919
 IR Inten    --     42.5513                15.5840                30.2454

                     13                     14                     15
                      A                      A                      A
 Frequencies --   1058.2888              1103.4011              1142.6047
 Red. masses --      1.4072                 2.2695                 1.6140
 Frc consts  --      0.9286                 1.6280                 1.2415
 IR Inten    --      0.5723                23.0616                67.6401

                     16                     17                     18
                      A                      A                      A
 Frequencies --   1230.5184              1324.7421              1423.9178
 Red. masses --      1.1945                 2.0081                 1.3171
 Frc consts  --      1.0657                 2.0764                 1.5734
 IR Inten    --     65.7824                97.4560                17.9515

                     19                     20                     21
                      A                      A                      A
 Frequencies --   1472.7520              1498.0203              1518.1924
 Red. masses --      1.7921                 1.0557                 1.0699
 Frc consts  --      2.2901                 1.3958                 1.4529
 IR Inten    --     12.8443                 4.6686                 3.6500

                     22                     23                     24
                      A                      A                      A
 Frequencies --   1644.0718              1766.6979              3007.4954
 Red. masses --      1.1978                 6.0879                 1.0414
 Frc consts  --      1.9075                11.1954                 5.5499
 IR Inten    --     67.7901               266.1745                57.1023

                     25                     26                     27
                      A                      A                      A
 Frequencies --   3054.8156              3086.7324              3163.5730
 Red. masses --      1.0967                 1.0985                 1.0888
 Frc consts  --      6.0301                 6.1667                 6.4202
 IR Inten    --     42.6516                33.9504                25.1598

                     28                     29                     30
                      A                      A                      A
 Frequencies --   3558.0959              3677.2047              3839.2768
 Red. masses --      1.0486                 1.0965                 1.0656
 Frc consts  --      7.8215                 8.7354                 9.2542
 IR Inten    --      8.3272                10.8760                34.8971

 - Thermochemistry -
 -------------------
 Temperature   298.150 Kelvin.  Pressure   1.00000 Atm.
 Atom     1 has atomic number  6 and mass  12.00000

 Molecular mass:    73.05276 amu.
 Principal axes and moments of inertia in atomic units:
                           1         2         3
     Eigenvalues --   189.73132 487.64705 663.81962
           X            0.99999  -0.00203   0.00479
           Y            0.00211   0.99985  -0.01707
           Z           -0.00475   0.01708   0.99984
 This molecule is an asymmetric top.
 Rotational symmetry number  1.
 Rotational temperatures (Kelvin)      0.45651     0.17762     0.13048
 Rotational constants (GHZ):           9.51209     3.70092     2.71872
 Zero-point vibrational energy     267748.7 (Joules/Mol)
                                   63.99347 (Kcal/Mol)
 Warning -- explicit consideration of   8 degrees of freedom as
           vibrations may cause significant error
 Vibrational temperatures:    160.11   232.01   402.03   440.44   574.04
          (Kelvin)            705.94   801.46   828.50  1014.41  1027.72
                             1247.39  1477.28  1522.64  1587.55  1643.95
                             1770.44  1906.01  2048.70  2118.96  2155.31
                             2184.34  2365.45  2541.88  4327.11  4395.19
                             4441.11  4551.67  5119.30  5290.67  5523.86

 Zero-point correction=                           0.101980 (Hartree/Particle)
 Thermal correction to Energy=                    0.108347
 Thermal correction to Enthalpy=                  0.109292
 Thermal correction to Gibbs Free Energy=         0.072744
 Sum of electronic and zero-point Energies=           -248.395183
 Sum of electronic and thermal Energies=              -248.388816
 Sum of electronic and thermal Enthalpies=            -248.387871
 Sum of electronic and thermal Free Energies=         -248.424419

                     E (Thermal)             CV                S
                      KCal/Mol        Cal/Mol-Kelvin    Cal/Mol-Kelvin
 Total                   67.989             22.196             76.921
 Electronic               0.000              0.000              0.000
 Translational            0.889              2.981             38.782
 Rotational               0.889              2.981             25.621
 Vibrational             66.212             16.234             12.517
 Vibration     1          0.607              1.940              3.246
 Vibration     2          0.622              1.890              2.535
 Vibration     3          0.680              1.712              1.537
 Vibration     4          0.697              1.662              1.383
 Vibration     5          0.765              1.472              0.966
 Vibration     6          0.846              1.271              0.682
 Vibration     7          0.913              1.124              0.530
 Vibration     8          0.932              1.084              0.493

 Normal termination of Gaussian 09 at Thu Sep  8 15:17:41 2022.
