 Gaussian 09, Revision D.01,
 Gaussian 09:  ES64L-G09RevD.01 24-Apr-2013

 --------------------------------
 #P OPT=calcfc Freq B3LYP/6-31G**
 --------------------------------

 --------
 Frag_110
 --------
 Symbolic Z-matrix:
 Charge =  0 Multiplicity = 1

 SCF Done:  E(RB3LYP) =  -193.134627848     A.U. after   13 cycles
 SCF Done:  E(RB3LYP) =  -193.134769260     A.U. after   11 cycles
 SCF Done:  E(RB3LYP) =  -193.135187957     A.U. after   11 cycles
 SCF Done:  E(RB3LYP) =  -193.135466707     A.U. after   13 cycles
 SCF Done:  E(RB3LYP) =  -193.135553430     A.U. after   10 cycles
 SCF Done:  E(RB3LYP) =  -193.135571270     A.U. after   10 cycles
 SCF Done:  E(RB3LYP) =  -193.135589756     A.U. after    9 cycles
 SCF Done:  E(RB3LYP) =  -193.135591563     A.U. after    9 cycles
 SCF Done:  E(RB3LYP) =  -193.135591658     A.U. after    7 cycles
 SCF Done:  E(RB3LYP) =  -193.135591671     A.U. after    6 cycles
 Optimization completed.
    -- Stationary point found.

 1\1\GINC-FN13\FOpt\RB3LYP\6-31G(d,p)\C3H6O1\LIUJ201281\23-Jul-2021\0\\
 #P OPT=calcfc Freq B3LYP/6-31G**\\Frag_110\\0,1\C,-1.5411410864,-0.445
 8842281,-0.0819638584\C,-0.5367423099,0.6695636807,-0.1688933778\C,0.7
 799295914,0.5783144034,0.0479426797\O,1.501404195,-0.5289764994,0.3918
 828712\H,-2.3131951494,-0.2331212535,0.6677393074\H,-1.0943526964,-1.4
 099659934,0.1901144068\H,-2.0576673869,-0.5961035315,-1.0380109428\H,-
 0.9135995192,1.6529389778,-0.4347742669\H,1.4342765493,1.4403303983,-0
 .0375024524\H,0.9038878125,-1.2859959541,0.4634656332\\Version=ES64L-G

 Normal termination of Gaussian 09 at Fri Jul 23 13:01:10 2021.

 ----------------------------------------------------------------------
 #P Geom=AllCheck Guess=TCheck SCRF=Check GenChk RB3LYP/6-31G(d,p) Freq
 ----------------------------------------------------------------------

 Structure from the checkpoint file:  "/vol2/users/liuj201281/HOFBenchmark/IsodesmicSplit/Sample60/Ring26/Running/Gau-135272.chk"
 --------
 Frag_110
 --------
 Charge =  0 Multiplicity = 1

                         Standard orientation:
 ---------------------------------------------------------------------
 Center     Atomic      Atomic             Coordinates (Angstroms)
 Number     Number       Type             X           Y           Z
 ---------------------------------------------------------------------
      1          6           0       -1.556935   -0.436089    0.000003
      2          6           0       -0.558810    0.688342   -0.000003
      3          6           0        0.773837    0.574225    0.000001
      4          8           0        1.520533   -0.569173    0.000003
      5          1           0       -2.208720   -0.394046    0.881365
      6          1           0       -1.090218   -1.428699   -0.000176
      7          1           0       -2.208922   -0.393838   -0.881200
      8          1           0       -0.955148    1.699607    0.000002
      9          1           0        1.421989    1.445110   -0.000002
     10          1           0        0.928200   -1.333615   -0.000020
 ---------------------------------------------------------------------

 SCF Done:  E(RB3LYP) =  -193.135591671     A.U. after    1 cycles

 The electronic state is 1-A.
 Alpha  occ. eigenvalues --  -19.17190 -10.23242 -10.18986 -10.17353  -1.04831
 Alpha  occ. eigenvalues --   -0.77337  -0.68728  -0.58931  -0.49073  -0.46900
 Alpha  occ. eigenvalues --   -0.41540  -0.39205  -0.37208  -0.36213  -0.35502
 Alpha  occ. eigenvalues --   -0.21573
 Alpha virt. eigenvalues --    0.04827   0.06065   0.11653   0.15319   0.17397
 Alpha virt. eigenvalues --    0.17840   0.19988   0.20995   0.31923   0.42919
 Alpha virt. eigenvalues --    0.50601   0.53048   0.54749   0.60771   0.61291

 Mulliken charges:
               1
     1  C   -0.354280
     2  C   -0.109007
     3  C    0.142109
     4  O   -0.507779
     5  H    0.123412
     6  H    0.079571
     7  H    0.123409
     8  H    0.083319
     9  H    0.104997
    10  H    0.314250
 Sum of Mulliken charges =   0.00000

 Dipole moment (field-independent basis, Debye):
    X=             -1.2573    Y=             -0.4938    Z=              0.0000  Tot=              1.3508
 Quadrupole moment (field-independent basis, Debye-Ang):
   XX=            -26.8242   YY=            -21.4879   ZZ=            -26.3698
   XY=              0.9149   XZ=              0.0000   YZ=              0.0000

  Exact polarizability:  48.888  -0.045  35.897   0.000   0.000  21.285
 Approx polarizability:  74.419  -4.269  48.194   0.000   0.000  28.955

                      1                      2                      3
                      A                      A                      A
 Frequencies --     77.4791               275.7043               327.9602
 Red. masses --      1.0514                 3.3177                 1.2530
 Frc consts  --      0.0037                 0.1486                 0.0794
 IR Inten    --      1.6487                 2.9186                38.4008

                      4                      5                      6
                      A                      A                      A
 Frequencies --    495.3675               652.5325               754.0461
 Red. masses --      2.1000                 2.4013                 1.2601
 Frc consts  --      0.3036                 0.6024                 0.4221
 IR Inten    --     84.2049                12.7493                24.4190

                      7                      8                      9
                      A                      A                      A
 Frequencies --    920.5821               959.8189              1046.1439
 Red. masses --      2.7683                 1.2387                 1.8400
 Frc consts  --      1.3822                 0.6723                 1.1864
 IR Inten    --      3.0243                 2.8596                57.5957

                     10                     11                     12
                      A                      A                      A
 Frequencies --   1056.2806              1131.5778              1249.8465
 Red. masses --      1.4021                 2.0596                 1.2018
 Frc consts  --      0.9217                 1.5538                 1.1061
 IR Inten    --      0.6690               107.5395                60.4054

                     13                     14                     15
                      A                      A                      A
 Frequencies --   1352.4529              1426.7178              1448.4966
 Red. masses --      1.4923                 1.1678                 1.4017
 Frc consts  --      1.6083                 1.4006                 1.7328
 IR Inten    --      5.2474                21.1840                 7.9966

                     16                     17                     18
                      A                      A                      A
 Frequencies --   1488.5526              1516.2858              1751.7328
 Red. masses --      1.0417                 1.0776                 5.7494
 Frc consts  --      1.3600                 1.4597                10.3947
 IR Inten    --      5.0315                 1.4689               103.3825

                     19                     20                     21
                      A                      A                      A
 Frequencies --   3023.8454              3079.5663              3084.7941
 Red. masses --      1.0360                 1.1014                 1.1001
 Frc consts  --      5.5811                 6.1543                 6.1679
 IR Inten    --     31.5183                25.6828                39.4965

                     22                     23                     24
                      A                      A                      A
 Frequencies --   3185.2503              3214.4520              3805.7773
 Red. masses --      1.0855                 1.0965                 1.0650
 Frc consts  --      6.4886                 6.6753                 9.0882
 IR Inten    --      4.7032                20.3904                13.9944

 - Thermochemistry -
 -------------------
 Temperature   298.150 Kelvin.  Pressure   1.00000 Atm.
 Atom     1 has atomic number  6 and mass  12.00000

 Molecular mass:    58.04186 amu.
 Principal axes and moments of inertia in atomic units:
                           1         2         3
     Eigenvalues --    99.10442 332.94749 420.87110
           X            0.99927   0.03815   0.00000
           Y           -0.03815   0.99927   0.00000
           Z            0.00000   0.00000   1.00000
 This molecule is an asymmetric top.
 Rotational symmetry number  1.
 Rotational temperatures (Kelvin)      0.87397     0.26014     0.20580
 Rotational constants (GHZ):          18.21050     5.42050     4.28811
 Zero-point vibrational energy     223254.7 (Joules/Mol)
                                   53.35914 (Kcal/Mol)
 Warning -- explicit consideration of   4 degrees of freedom as
           vibrations may cause significant error
 Vibrational temperatures:    111.48   396.68   471.86   712.72   938.85
          (Kelvin)           1084.90  1324.51  1380.96  1505.17  1519.75
                             1628.09  1798.25  1945.88  2052.73  2084.06
                             2141.69  2181.59  2520.35  4350.63  4430.80
                             4438.33  4582.86  4624.87  5475.66

 Zero-point correction=                           0.085033 (Hartree/Particle)
 Thermal correction to Energy=                    0.090158
 Thermal correction to Enthalpy=                  0.091102
 Thermal correction to Gibbs Free Energy=         0.057430
 Sum of electronic and zero-point Energies=           -193.050558
 Sum of electronic and thermal Energies=              -193.045434
 Sum of electronic and thermal Enthalpies=            -193.044489
 Sum of electronic and thermal Free Energies=         -193.078162

                     E (Thermal)             CV                S
                      KCal/Mol        Cal/Mol-Kelvin    Cal/Mol-Kelvin
 Total                   56.575             16.640             70.869
 Electronic               0.000              0.000              0.000
 Translational            0.889              2.981             38.096
 Rotational               0.889              2.981             24.144
 Vibrational             54.798             10.678              8.629
 Vibration     1          0.599              1.964              3.954
 Vibration     2          0.677              1.718              1.560
 Vibration     3          0.711              1.620              1.270
 Vibration     4          0.851              1.260              0.670

 Optimization completed.
    -- Stationary point found.

 1\1\GINC-FN13\Freq\RB3LYP\6-31G(d,p)\C3H6O1\LIUJ201281\23-Jul-2021\0\\
 #P Geom=AllCheck Guess=TCheck SCRF=Check GenChk RB3LYP/6-31G(d,p) Freq
 \\Frag_110\\0,1\C,-1.5411410864,-0.4458842281,-0.0819638584\C,-0.53674
 23099,0.6695636807,-0.1688933778\C,0.7799295914,0.5783144034,0.0479426
 797\O,1.501404195,-0.5289764994,0.3918828712\H,-2.3131951494,-0.233121
 2535,0.6677393074\H,-1.0943526964,-1.4099659934,0.1901144068\H,-2.0576
 673869,-0.5961035315,-1.0380109428\H,-0.9135995192,1.6529389778,-0.434
 7742669\H,1.4342765493,1.4403303983,-0.0375024524\H,0.9038878125,-1.28

 Normal termination of Gaussian 09 at Fri Jul 23 13:01:20 2021.
