 Gaussian 09, Revision E.01,
 Gaussian 09:  ES64L-G09RevE.01 30-Nov-2015

 ----------------------------
 #P OPT Freq B3LYP/6-31G(d,p)
 ----------------------------

 --------
 Frag_753
 --------
 Symbolic Z-matrix:
 Charge =  0 Multiplicity = 1

 SCF Done:  E(RB3LYP) =  -268.323211237     A.U. after   14 cycles
 SCF Done:  E(RB3LYP) =  -268.368725819     A.U. after   13 cycles
 SCF Done:  E(RB3LYP) =  -268.375102986     A.U. after   13 cycles
 SCF Done:  E(RB3LYP) =  -268.374397060     A.U. after   13 cycles
 SCF Done:  E(RB3LYP) =  -268.375503198     A.U. after    9 cycles
 SCF Done:  E(RB3LYP) =  -268.375660198     A.U. after   12 cycles
 SCF Done:  E(RB3LYP) =  -268.375761759     A.U. after   12 cycles
 SCF Done:  E(RB3LYP) =  -268.375787738     A.U. after   11 cycles
 SCF Done:  E(RB3LYP) =  -268.375796676     A.U. after    9 cycles
 SCF Done:  E(RB3LYP) =  -268.375796981     A.U. after    7 cycles
 SCF Done:  E(RB3LYP) =  -268.375797134     A.U. after    6 cycles
 SCF Done:  E(RB3LYP) =  -268.375797932     A.U. after    9 cycles
 SCF Done:  E(RB3LYP) =  -268.375798509     A.U. after    8 cycles
 SCF Done:  E(RB3LYP) =  -268.375799261     A.U. after    9 cycles
 SCF Done:  E(RB3LYP) =  -268.375799993     A.U. after    7 cycles
 SCF Done:  E(RB3LYP) =  -268.375800940     A.U. after    9 cycles
 SCF Done:  E(RB3LYP) =  -268.375801132     A.U. after    9 cycles
 SCF Done:  E(RB3LYP) =  -268.375801449     A.U. after    8 cycles
 SCF Done:  E(RB3LYP) =  -268.375801479     A.U. after    7 cycles
 Optimization completed.
    -- Stationary point found.
 Normal termination of Gaussian 09 at Thu Sep  8 20:18:50 2022.

 ----------------------------------------------------------------------
 #P Geom=AllCheck Guess=TCheck SCRF=Check GenChk RB3LYP/6-31G(d,p) Freq
 ----------------------------------------------------------------------

 Structure from the checkpoint file:  "B3LYP6-31Gdp.Frag_753.chk"
 --------
 Frag_753
 --------
 Charge =  0 Multiplicity = 1

                         Standard orientation:
 ---------------------------------------------------------------------
 Center     Atomic      Atomic             Coordinates (Angstroms)
 Number     Number       Type             X           Y           Z
 ---------------------------------------------------------------------
      1          6           0        1.856051   -0.449953    0.014052
      2          6           0        0.473095    0.155673   -0.012141
      3          8           0        0.277942    1.359701   -0.011619
      4          6           0       -0.728760   -0.782379   -0.027196
      5          8           0       -1.931863   -0.072643    0.031452
      6          1           0        2.057448   -0.853242    1.013771
      7          1           0        2.600255    0.313904   -0.214606
      8          1           0        1.939300   -1.282020   -0.692543
      9          1           0       -0.663062   -1.396742   -0.942558
     10          1           0       -0.636866   -1.484028    0.818553
     11          1           0       -1.668023    0.865612    0.010427
 ---------------------------------------------------------------------

 SCF Done:  E(RB3LYP) =  -268.375801479     A.U. after    1 cycles

 The electronic state is 1-A.
 Alpha  occ. eigenvalues --  -19.16183 -19.13927 -10.29287 -10.24511 -10.20727
 Alpha  occ. eigenvalues --   -1.06619  -1.01263  -0.77617  -0.69970  -0.56128
 Alpha  occ. eigenvalues --   -0.50582  -0.48355  -0.46978  -0.43195  -0.43033
 Alpha  occ. eigenvalues --   -0.41358  -0.36827  -0.34321  -0.27303  -0.26868
 Alpha virt. eigenvalues --   -0.02970   0.08264   0.10967   0.13709   0.14659
 Alpha virt. eigenvalues --    0.15450   0.17093   0.20750   0.22238   0.28946
 Alpha virt. eigenvalues --    0.33813   0.50797   0.52460   0.53829   0.57532

 Mulliken charges:
               1
     1  C   -0.391271
     2  C    0.387586
     3  O   -0.446362
     4  C    0.033095
     5  O   -0.546724
     6  H    0.145437
     7  H    0.148329
     8  H    0.130836
     9  H    0.109216
    10  H    0.110064
    11  H    0.319794
 Sum of Mulliken charges =  -0.00000

 Dipole moment (field-independent basis, Debye):
    X=              2.4382    Y=             -1.8788    Z=             -0.0173  Tot=              3.0782
 Quadrupole moment (field-independent basis, Debye-Ang):
   XX=            -32.6292   YY=            -30.8799   ZZ=            -29.0323
   XY=             -2.8722   XZ=              0.2889   YZ=             -0.0087

  Exact polarizability:  42.235  -2.002  42.357   0.113  -0.028  28.489
 Approx polarizability:  52.162  -3.594  68.042   0.057  -0.107  40.128

                      1                      2                      3
                      A                      A                      A
 Frequencies --     57.0675               119.1869               284.7825
 Red. masses --      1.1267                 2.3317                 3.9328
 Frc consts  --      0.0022                 0.0195                 0.1879
 IR Inten    --      0.3091                 4.9946                11.9769

                      4                      5                      6
                      A                      A                      A
 Frequencies --    394.5710               413.6898               488.0106
 Red. masses --      1.3306                 3.4296                 1.5797
 Frc consts  --      0.1220                 0.3458                 0.2217
 IR Inten    --     38.4643                11.8863                45.8546

                      7                      8                      9
                      A                      A                      A
 Frequencies --    621.0393               808.8206               869.9553
 Red. masses --      4.2703                 3.0192                 1.3149
 Frc consts  --      0.9704                 1.1637                 0.5863
 IR Inten    --      9.1512                11.2128                 3.3648

                     10                     11                     12
                      A                      A                      A
 Frequencies --    978.7924              1101.7716              1134.0567
 Red. masses --      2.0869                 2.0505                 4.0964
 Frc consts  --      1.1779                 1.4666                 3.1040
 IR Inten    --     13.0805                 1.9791               135.3113

                     13                     14                     15
                      A                      A                      A
 Frequencies --   1212.5048              1252.4134              1318.4922
 Red. masses --      2.0379                 1.1017                 1.5221
 Frc consts  --      1.7652                 1.0181                 1.5590
 IR Inten    --     23.3263                 2.2611                75.7841

                     16                     17                     18
                      A                      A                      A
 Frequencies --   1401.3324              1457.0842              1477.3124
 Red. masses --      1.3218                 1.3174                 1.0674
 Frc consts  --      1.5293                 1.6479                 1.3725
 IR Inten    --     43.9663                86.2144                 4.6425

                     19                     20                     21
                      A                      A                      A
 Frequencies --   1489.1705              1507.1895              1803.2728
 Red. masses --      1.0560                 1.0876                10.1185
 Frc consts  --      1.3797                 1.4557                19.3861
 IR Inten    --     10.3694                13.1147               126.5178

                     22                     23                     24
                      A                      A                      A
 Frequencies --   2972.6262              2998.2157              3049.3715
 Red. masses --      1.0650                 1.0942                 1.0383
 Frc consts  --      5.5449                 5.7952                 5.6886
 IR Inten    --     38.6628                34.5044                 2.6410

                     25                     26                     27
                      A                      A                      A
 Frequencies --   3113.4154              3166.8498              3671.2792
 Red. masses --      1.0984                 1.1029                 1.0646
 Frc consts  --      6.2731                 6.5170                 8.4539
 IR Inten    --      7.8612                 5.8865                69.7890

 - Thermochemistry -
 -------------------
 Temperature   298.150 Kelvin.  Pressure   1.00000 Atm.
 Atom     1 has atomic number  6 and mass  12.00000

 Molecular mass:    74.03678 amu.
 Principal axes and moments of inertia in atomic units:
                           1         2         3
     Eigenvalues --   178.56425 474.83776 630.78535
           X            0.99927  -0.03808   0.00209
           Y            0.03807   0.99927   0.00136
           Z           -0.00214  -0.00128   1.00000
 This molecule is an asymmetric top.
 Rotational symmetry number  1.
 Rotational temperatures (Kelvin)      0.48506     0.18241     0.13731
 Rotational constants (GHZ):          10.10696     3.80075     2.86110
 Zero-point vibrational energy     234242.4 (Joules/Mol)
                                   55.98528 (Kcal/Mol)
 Warning -- explicit consideration of   6 degrees of freedom as
           vibrations may cause significant error
 Vibrational temperatures:     82.11   171.48   409.74   567.70   595.21
          (Kelvin)            702.14   893.54  1163.71  1251.67  1408.26
                             1585.20  1631.65  1744.52  1801.94  1897.01
                             2016.20  2096.42  2125.52  2142.58  2168.51
                             2594.50  4276.94  4313.76  4387.36  4479.50
                             4556.38  5282.15

 Zero-point correction=                           0.089218 (Hartree/Particle)
 Thermal correction to Energy=                    0.095295
 Thermal correction to Enthalpy=                  0.096239
 Thermal correction to Gibbs Free Energy=         0.059546
 Sum of electronic and zero-point Energies=           -268.286583
 Sum of electronic and thermal Energies=              -268.280507
 Sum of electronic and thermal Enthalpies=            -268.279563
 Sum of electronic and thermal Free Energies=         -268.316255

                     E (Thermal)             CV                S
                      KCal/Mol        Cal/Mol-Kelvin    Cal/Mol-Kelvin
 Total                   59.798             19.827             77.226
 Electronic               0.000              0.000              0.000
 Translational            0.889              2.981             38.822
 Rotational               0.889              2.981             25.484
 Vibrational             58.021             13.866             12.920
 Vibration     1          0.596              1.975              4.556
 Vibration     2          0.609              1.933              3.114
 Vibration     3          0.683              1.702              1.505
 Vibration     4          0.762              1.482              0.983
 Vibration     5          0.777              1.441              0.914
 Vibration     6          0.844              1.277              0.689

 Optimization completed.
    -- Stationary point found.
 Normal termination of Gaussian 09 at Thu Sep  8 20:18:59 2022.
