 Gaussian 09, Revision E.01,
 Gaussian 09:  ES64L-G09RevE.01 30-Nov-2015

 --------------------------------
 #P OPT=calcfc Freq B3LYP/6-31G**
 --------------------------------

 --------
 Frag_348
 --------
 Symbolic Z-matrix:
 Charge =  0 Multiplicity = 1

 SCF Done:  E(RB3LYP) =  -212.593641694     A.U. after   13 cycles
 SCF Done:  E(RB3LYP) =  -212.601055625     A.U. after   13 cycles
 SCF Done:  E(RB3LYP) =  -212.600103772     A.U. after   13 cycles
 SCF Done:  E(RB3LYP) =  -212.601110772     A.U. after   10 cycles
 SCF Done:  E(RB3LYP) =  -212.580276808     A.U. after   14 cycles
 SCF Done:  E(RB3LYP) =  -212.601281485     A.U. after    9 cycles
 SCF Done:  E(RB3LYP) =  -212.601379107     A.U. after   10 cycles
 SCF Done:  E(RB3LYP) =  -212.601447972     A.U. after   11 cycles
 SCF Done:  E(RB3LYP) =  -212.601464136     A.U. after   10 cycles
 SCF Done:  E(RB3LYP) =  -212.601472943     A.U. after   10 cycles
 SCF Done:  E(RB3LYP) =  -212.601473925     A.U. after    9 cycles
 SCF Done:  E(RB3LYP) =  -212.601474194     A.U. after    8 cycles
 SCF Done:  E(RB3LYP) =  -212.601474251     A.U. after    7 cycles
 Optimization completed on the basis of negligible forces.
    -- Stationary point found.
 Normal termination of Gaussian 09 at Fri Sep 10 18:58:54 2021.

 ----------------------------------------------------------------------
 #P Geom=AllCheck Guess=TCheck SCRF=Check GenChk RB3LYP/6-31G(d,p) Freq
 ----------------------------------------------------------------------

 Structure from the checkpoint file:  "/public/home/users/caep010/.cache/gau_scr/Gau-117022.chk"
 --------
 Frag_348
 --------
 Charge =  0 Multiplicity = 1

                         Standard orientation:
 ---------------------------------------------------------------------
 Center     Atomic      Atomic             Coordinates (Angstroms)
 Number     Number       Type             X           Y           Z
 ---------------------------------------------------------------------
      1          6           0       -1.891656   -0.178561   -0.377109
      2          6           0       -0.817931    0.367006    0.580988
      3          6           0        0.604613    0.171562    0.077520
      4          6           0        1.117727   -1.248733    0.016790
      5          7           0        1.385478    1.112367   -0.292869
      6          1           0       -2.893139    0.020185    0.016265
      7          1           0       -1.816056    0.294261   -1.361409
      8          1           0       -1.799724   -1.259810   -0.515498
      9          1           0       -0.988119    1.436893    0.750338
     10          1           0       -0.922289   -0.129739    1.555126
     11          1           0        0.511503   -1.862240   -0.659535
     12          1           0        1.067925   -1.721829    1.005127
     13          1           0        2.150644   -1.251319   -0.333005
     14          1           0        0.914397    2.019389   -0.196460
 ---------------------------------------------------------------------

 SCF Done:  E(RB3LYP) =  -212.601474251     A.U. after    1 cycles

 The electronic state is 1-A.
 Alpha  occ. eigenvalues --  -14.30643 -10.23062 -10.19580 -10.18803 -10.17939
 Alpha  occ. eigenvalues --   -0.89728  -0.77281  -0.71881  -0.63936  -0.53784
 Alpha  occ. eigenvalues --   -0.47967  -0.45821  -0.42531  -0.39615  -0.39421
 Alpha  occ. eigenvalues --   -0.37921  -0.36626  -0.34501  -0.29002  -0.24898
 Alpha virt. eigenvalues --    0.01075   0.08256   0.11242   0.13034   0.15419
 Alpha virt. eigenvalues --    0.15696   0.16274   0.17142   0.19958   0.20507
 Alpha virt. eigenvalues --    0.22738   0.23118   0.30181   0.42736   0.50043

 Mulliken charges:
               1
     1  C   -0.320998
     2  C   -0.223789
     3  C    0.286410
     4  C   -0.354283
     5  N   -0.514747
     6  H    0.111391
     7  H    0.116388
     8  H    0.112414
     9  H    0.097518
    10  H    0.108662
    11  H    0.118111
    12  H    0.114085
    13  H    0.136460
    14  H    0.212378
 Sum of Mulliken charges =  -0.00000

 Dipole moment (field-independent basis, Debye):
    X=             -2.1999    Y=             -0.6189    Z=              0.7516  Tot=              2.4057
 Quadrupole moment (field-independent basis, Debye-Ang):
   XX=            -36.4101   YY=            -30.2569   ZZ=            -32.6321
   XY=             -2.6246   XZ=              1.0762   YZ=              0.4862

  Exact polarizability:  53.273   2.705  54.876  -2.856  -2.057  39.383
 Approx polarizability:  70.227   9.199  79.059  -6.408  -5.587  56.274

                      1                      2                      3
                      A                      A                      A
 Frequencies --     37.3279               164.3043               225.1343
 Red. masses --      1.9934                 1.1072                 1.2777
 Frc consts  --      0.0016                 0.0176                 0.0382
 IR Inten    --      0.8978                 0.1834                 0.3526

                      4                      5                      6
                      A                      A                      A
 Frequencies --    259.2041               403.6382               502.2398
 Red. masses --      2.0935                 2.0526                 2.8306
 Frc consts  --      0.0829                 0.1970                 0.4207
 IR Inten    --      0.5840                 0.9139                13.1898

                      7                      8                      9
                      A                      A                      A
 Frequencies --    562.3545               768.1726               790.7882
 Red. masses --      2.2687                 2.9750                 1.1816
 Frc consts  --      0.4227                 1.0343                 0.4353
 IR Inten    --      4.6055                 3.1162                 2.7404

                     10                     11                     12
                      A                      A                      A
 Frequencies --    894.2253               955.5842              1004.6319
 Red. masses --      1.2481                 1.6589                 2.0305
 Frc consts  --      0.5880                 0.8925                 1.2074
 IR Inten    --     41.0201                10.6433                 0.0794

                     13                     14                     15
                      A                      A                      A
 Frequencies --   1071.6244              1101.5090              1125.1627
 Red. masses --      1.3458                 1.8089                 1.6833
 Frc consts  --      0.9106                 1.2931                 1.2556
 IR Inten    --     11.9838                 5.3197                 0.5137

                     16                     17                     18
                      A                      A                      A
 Frequencies --   1142.1462              1280.8345              1349.5008
 Red. masses --      1.5287                 1.2036                 1.3916
 Frc consts  --      1.1749                 1.1633                 1.4932
 IR Inten    --     35.5801                 3.5562                10.5101

                     19                     20                     21
                      A                      A                      A
 Frequencies --   1376.4999              1422.7247              1433.1075
 Red. masses --      1.4490                 1.2477                 1.5729
 Frc consts  --      1.6176                 1.4879                 1.9033
 IR Inten    --     42.6978                 5.5554                38.5885

                     22                     23                     24
                      A                      A                      A
 Frequencies --   1484.2179              1490.7914              1501.5700
 Red. masses --      1.0568                 1.0672                 1.0548
 Frc consts  --      1.3717                 1.3974                 1.4013
 IR Inten    --      2.8381                 6.9631                10.8894

                     25                     26                     27
                      A                      A                      A
 Frequencies --   1516.2757              1521.7859              1732.7502
 Red. masses --      1.0403                 1.0644                 7.9755
 Frc consts  --      1.4092                 1.4524                14.1085
 IR Inten    --      5.4237                 6.0749                63.5175

                     28                     29                     30
                      A                      A                      A
 Frequencies --   3028.7344              3041.9378              3050.7555
 Red. masses --      1.0602                 1.0397                 1.0352
 Frc consts  --      5.7300                 5.6682                 5.6766
 IR Inten    --     20.2728                11.3764                23.9432

                     31                     32                     33
                      A                      A                      A
 Frequencies --   3073.7515              3096.5286              3122.7678
 Red. masses --      1.1027                 1.0990                 1.1030
 Frc consts  --      6.1382                 6.2089                 6.3372
 IR Inten    --     16.2904                21.0143                28.7703

                     34                     35                     36
                      A                      A                      A
 Frequencies --   3127.2990              3161.5207              3409.3818
 Red. masses --      1.1027                 1.1005                 1.0740
 Frc consts  --      6.3538                 6.4808                 7.3557
 IR Inten    --     35.2408                 9.9297                13.3037

 - Thermochemistry -
 -------------------
 Temperature   298.150 Kelvin.  Pressure   1.00000 Atm.
 Atom     1 has atomic number  6 and mass  12.00000

 Molecular mass:    71.07350 amu.
 Principal axes and moments of inertia in atomic units:
                           1         2         3
     Eigenvalues --   242.43563 481.12504 625.26714
           X            0.99886  -0.04683   0.00888
           Y            0.04669   0.99880   0.01487
           Z           -0.00957  -0.01444   0.99985
 This molecule is an asymmetric top.
 Rotational symmetry number  1.
 Rotational temperatures (Kelvin)      0.35727     0.18002     0.13852
 Rotational constants (GHZ):           7.44421     3.75109     2.88635
 Zero-point vibrational energy     330353.4 (Joules/Mol)
                                   78.95637 (Kcal/Mol)
 Warning -- explicit consideration of   7 degrees of freedom as
           vibrations may cause significant error
 Vibrational temperatures:     53.71   236.40   323.92   372.94   580.74
          (Kelvin)            722.61   809.10  1105.23  1137.77  1286.59
                             1374.87  1445.44  1541.83  1584.82  1618.86
                             1643.29  1842.83  1941.63  1980.47  2046.98
                             2061.92  2135.46  2144.91  2160.42  2181.58
                             2189.51  2493.04  4357.67  4376.66  4389.35
                             4422.44  4455.21  4492.96  4499.48  4548.72
                             4905.33

 Zero-point correction=                           0.125825 (Hartree/Particle)
 Thermal correction to Energy=                    0.132314
 Thermal correction to Enthalpy=                  0.133258
 Thermal correction to Gibbs Free Energy=         0.095582
 Sum of electronic and zero-point Energies=           -212.475649
 Sum of electronic and thermal Energies=              -212.469160
 Sum of electronic and thermal Enthalpies=            -212.468216
 Sum of electronic and thermal Free Energies=         -212.505893

                     E (Thermal)             CV                S
                      KCal/Mol        Cal/Mol-Kelvin    Cal/Mol-Kelvin
 Total                   83.028             21.963             79.297
 Electronic               0.000              0.000              0.000
 Translational            0.889              2.981             38.700
 Rotational               0.889              2.981             25.792
 Vibrational             81.251             16.001             14.805
 Vibration     1          0.594              1.982              5.396
 Vibration     2          0.623              1.886              2.500
 Vibration     3          0.650              1.803              1.917
 Vibration     4          0.668              1.747              1.667
 Vibration     5          0.769              1.462              0.949
 Vibration     6          0.858              1.245              0.653
 Vibration     7          0.918              1.113              0.519

 Optimization completed.
    -- Stationary point found.
 Normal termination of Gaussian 09 at Fri Sep 10 18:59:05 2021.
