 Gaussian 09, Revision E.01,
 Gaussian 09:  ES64L-G09RevE.01 30-Nov-2015

 ----------------------------
 #P OPT Freq B3LYP/6-31G(d,p)
 ----------------------------

 --------
 Frag_990
 --------
 Symbolic Z-matrix:
 Charge =  0 Multiplicity = 1

 SCF Done:  E(RB3LYP) =  -280.484515104     A.U. after   15 cycles
 SCF Done:  E(RB3LYP) =  -280.484611900     A.U. after   10 cycles
 SCF Done:  E(RB3LYP) =  -280.484614373     A.U. after    9 cycles
 SCF Done:  E(RB3LYP) =  -280.484615038     A.U. after    9 cycles
 SCF Done:  E(RB3LYP) =  -280.484615539     A.U. after    8 cycles
 Optimization completed.
    -- Stationary point found.
 Normal termination of Gaussian 09 at Thu Sep  8 15:05:46 2022.

 ----------------------------------------------------------------------
 #P Geom=AllCheck Guess=TCheck SCRF=Check GenChk RB3LYP/6-31G(d,p) Freq
 ----------------------------------------------------------------------

 Structure from the checkpoint file:  "B3LYP6-31Gdp.Frag_990.chk"
 --------
 Frag_990
 --------
 Charge =  0 Multiplicity = 1

                         Standard orientation:
 ---------------------------------------------------------------------
 Center     Atomic      Atomic             Coordinates (Angstroms)
 Number     Number       Type             X           Y           Z
 ---------------------------------------------------------------------
      1          6           0       -0.367276    1.402575    0.000005
      2          7           0       -0.336213   -0.053168    0.000054
      3          7           0       -1.501302   -0.819123   -0.000046
      4          7           0        0.801992   -0.779606   -0.000024
      5          8           0        1.832791   -0.119053   -0.000005
      6          1           0       -0.884946    1.772504   -0.892244
      7          1           0        0.666445    1.748269   -0.000455
      8          1           0       -0.884146    1.772659    0.892657
      9          1           0       -2.053770   -0.596343   -0.826318
     10          1           0       -2.053593   -0.596829    0.826477
 ---------------------------------------------------------------------

 SCF Done:  E(RB3LYP) =  -280.484615539     A.U. after    1 cycles

 The electronic state is 1-A.
 Alpha  occ. eigenvalues --  -19.15941 -14.45178 -14.42606 -14.37925 -10.23306
 Alpha  occ. eigenvalues --   -1.14353  -1.01277  -0.83909  -0.75864  -0.60171
 Alpha  occ. eigenvalues --   -0.54214  -0.53192  -0.50763  -0.45642  -0.42006
 Alpha  occ. eigenvalues --   -0.41912  -0.38716  -0.29220  -0.26525  -0.22475
 Alpha virt. eigenvalues --   -0.03216   0.05400   0.11680   0.13035   0.13798
 Alpha virt. eigenvalues --    0.15763   0.15919   0.22746   0.28715   0.34147
 Alpha virt. eigenvalues --    0.50380   0.52135   0.53934   0.63925   0.64746

 Mulliken charges:
               1
     1  C   -0.190079
     2  N   -0.160030
     3  N   -0.414961
     4  N    0.187345
     5  O   -0.366058
     6  H    0.123624
     7  H    0.169028
     8  H    0.123648
     9  H    0.263736
    10  H    0.263747
 Sum of Mulliken charges =  -0.00000

 Dipole moment (field-independent basis, Debye):
    X=             -4.2020    Y=              2.5176    Z=              0.0004  Tot=              4.8984
 Quadrupole moment (field-independent basis, Debye-Ang):
   XX=            -29.1508   YY=            -31.4725   ZZ=            -27.2961
   XY=              0.0704   XZ=             -0.0005   YZ=             -0.0012

  Exact polarizability:  50.697  -1.237  34.535  -0.000  -0.000  26.065
 Approx polarizability:  87.060  -1.906  47.099  -0.001  -0.000  36.678

                      1                      2                      3
                      A                      A                      A
 Frequencies --    100.5303               168.0458               284.7556
 Red. masses --      1.5514                 1.6745                 1.4218
 Frc consts  --      0.0092                 0.0279                 0.0679
 IR Inten    --      1.8570                 5.5007                21.9695

                      4                      5                      6
                      A                      A                      A
 Frequencies --    370.9038               392.9600               434.0525
 Red. masses --      3.7622                 3.1605                 3.1982
 Frc consts  --      0.3049                 0.2875                 0.3550
 IR Inten    --      4.6347                15.7756                 2.2862

                      7                      8                      9
                      A                      A                      A
 Frequencies --    691.1660               838.8188               859.0284
 Red. masses --      6.2425                 4.6653                 1.6050
 Frc consts  --      1.7570                 1.9341                 0.6978
 IR Inten    --      1.4230                24.6274               147.7831

                     10                     11                     12
                      A                      A                      A
 Frequencies --   1050.5529              1129.5411              1247.2126
 Red. masses --      1.7645                 1.2687                 5.7896
 Frc consts  --      1.1474                 0.9537                 5.3061
 IR Inten    --    112.4182                 1.3289                92.7859

                     13                     14                     15
                      A                      A                      A
 Frequencies --   1328.4666              1347.3020              1415.1200
 Red. masses --      1.1620                 3.7271                 1.1865
 Frc consts  --      1.2082                 3.9862                 1.3999
 IR Inten    --      2.7784                 4.2210                 6.4347

                     16                     17                     18
                      A                      A                      A
 Frequencies --   1507.5616              1507.7518              1590.3183
 Red. masses --      1.0698                 1.0473                11.7141
 Frc consts  --      1.4326                 1.4027                17.4553
 IR Inten    --      9.2118                12.7091               178.9646

                     19                     20                     21
                      A                      A                      A
 Frequencies --   1701.8552              3036.5669              3097.0185
 Red. masses --      1.0929                 1.0353                 1.1058
 Frc consts  --      1.8650                 5.6247                 6.2489
 IR Inten    --     17.5135                32.3534                27.0366

                     22                     23                     24
                      A                      A                      A
 Frequencies --   3171.4942              3458.8951              3546.5081
 Red. masses --      1.0983                 1.0453                 1.0979
 Frc consts  --      6.5087                 7.3683                 8.1362
 IR Inten    --      1.6610                 2.0461                 0.5056

 - Thermochemistry -
 -------------------
 Temperature   298.150 Kelvin.  Pressure   1.00000 Atm.
 Atom     1 has atomic number  6 and mass  12.00000

 Molecular mass:    75.04326 amu.
 Principal axes and moments of inertia in atomic units:
                           1         2         3
     Eigenvalues --   195.23219 395.14903 569.08370
           X            0.99999   0.00345  -0.00000
           Y           -0.00345   0.99999  -0.00001
           Z            0.00000   0.00001   1.00000
 This molecule is an asymmetric top.
 Rotational symmetry number  1.
 Rotational temperatures (Kelvin)      0.44365     0.21919     0.15220
 Rotational constants (GHZ):           9.24408     4.56724     3.17131
 Zero-point vibrational energy     205018.6 (Joules/Mol)
                                   49.00061 (Kcal/Mol)
 Warning -- explicit consideration of   6 degrees of freedom as
           vibrations may cause significant error
 Vibrational temperatures:    144.64   241.78   409.70   533.65   565.38
          (Kelvin)            624.50   994.43  1206.87  1235.95  1511.51
                             1625.16  1794.46  1911.36  1938.46  2036.04
                             2169.04  2169.32  2288.11  2448.59  4368.94
                             4455.91  4563.07  4976.57  5102.63

 Zero-point correction=                           0.078087 (Hartree/Particle)
 Thermal correction to Energy=                    0.083993
 Thermal correction to Enthalpy=                  0.084937
 Thermal correction to Gibbs Free Energy=         0.049117
 Sum of electronic and zero-point Energies=           -280.406528
 Sum of electronic and thermal Energies=              -280.400622
 Sum of electronic and thermal Enthalpies=            -280.399678
 Sum of electronic and thermal Free Energies=         -280.435499

                     E (Thermal)             CV                S
                      KCal/Mol        Cal/Mol-Kelvin    Cal/Mol-Kelvin
 Total                   52.706             19.256             75.390
 Electronic               0.000              0.000              0.000
 Translational            0.889              2.981             38.862
 Rotational               0.889              2.981             25.288
 Vibrational             50.929             13.295             11.240
 Vibration     1          0.604              1.949              3.444
 Vibration     2          0.625              1.882              2.457
 Vibration     3          0.683              1.702              1.505
 Vibration     4          0.743              1.532              1.076
 Vibration     5          0.760              1.485              0.989
 Vibration     6          0.795              1.396              0.846

 Optimization completed.
    -- Stationary point found.
 Normal termination of Gaussian 09 at Thu Sep  8 15:05:54 2022.
