 Gaussian 09, Revision E.01,
 Gaussian 09:  ES64L-G09RevE.01 30-Nov-2015

 ----------------------------
 #P OPT Freq B3LYP/6-31G(d,p)
 ----------------------------

 --------
 Frag_877
 --------
 Symbolic Z-matrix:
 Charge =  0 Multiplicity = 1

 SCF Done:  E(RB3LYP) =  -204.060700859     A.U. after   14 cycles
 SCF Done:  E(RB3LYP) =  -204.060824727     A.U. after   10 cycles
 SCF Done:  E(RB3LYP) =  -204.060792897     A.U. after   12 cycles
 SCF Done:  E(RB3LYP) =  -204.060837927     A.U. after    6 cycles
 SCF Done:  E(RB3LYP) =  -204.060840726     A.U. after    9 cycles
 SCF Done:  E(RB3LYP) =  -204.060842752     A.U. after    9 cycles
 Optimization completed.
    -- Stationary point found.
 Normal termination of Gaussian 09 at Thu Sep  8 15:10:58 2022.

 ----------------------------------------------------------------------
 #P Geom=AllCheck Guess=TCheck SCRF=Check GenChk RB3LYP/6-31G(d,p) Freq
 ----------------------------------------------------------------------

 Structure from the checkpoint file:  "B3LYP6-31Gdp.Frag_877.chk"
 --------
 Frag_877
 --------
 Charge =  0 Multiplicity = 1

                         Standard orientation:
 ---------------------------------------------------------------------
 Center     Atomic      Atomic             Coordinates (Angstroms)
 Number     Number       Type             X           Y           Z
 ---------------------------------------------------------------------
      1          7           0        1.853557   -0.322053    0.000349
      2          6           0        0.783837    0.170892   -0.000762
      3          7           0       -0.407487    0.762835    0.000310
      4          7           0       -1.402061   -0.333949    0.000018
      5          1           0       -1.346249   -0.946241    0.828214
      6          1           0       -1.347082   -0.944936   -0.829205
      7          1           0       -2.317752    0.117993    0.000823
 ---------------------------------------------------------------------

 SCF Done:  E(RB3LYP) =  -204.060842752     A.U. after    1 cycles

 The electronic state is 1-A.
 Alpha  occ. eigenvalues --  -14.50499 -14.33733 -14.27995 -10.20323  -1.04789
 Alpha  occ. eigenvalues --   -0.87006  -0.80810  -0.62068  -0.60617  -0.54151
 Alpha  occ. eigenvalues --   -0.35392  -0.33743  -0.31403  -0.26522  -0.20046
 Alpha virt. eigenvalues --   -0.01256   0.05257   0.05745   0.06293   0.14842
 Alpha virt. eigenvalues --    0.15258   0.24913   0.44782   0.55304   0.57057
 Alpha virt. eigenvalues --    0.59758   0.60044   0.62773   0.70261   0.70440

 Mulliken charges:
               1
     1  N   -0.501851
     2  C    0.429798
     3  N   -0.511975
     4  N   -0.395321
     5  H    0.320384
     6  H    0.320397
     7  H    0.338569
 Sum of Mulliken charges =   0.00000

 Dipole moment (field-independent basis, Debye):
    X=             -7.7717    Y=             -2.7081    Z=             -0.0020  Tot=              8.2300
 Quadrupole moment (field-independent basis, Debye-Ang):
   XX=            -21.8656   YY=            -23.8868   ZZ=            -22.3138
   XY=              5.4033   XZ=             -0.0011   YZ=             -0.0006

  Exact polarizability:  47.204  -1.601  24.594   0.005  -0.002  18.224
 Approx polarizability:  80.640 -10.977  39.343   0.023  -0.007  24.501

                      1                      2                      3
                      A                      A                      A
 Frequencies --    162.1574               219.2903               540.6710
 Red. masses --      1.1167                 4.7684                11.1955
 Frc consts  --      0.0173                 0.1351                 1.9282
 IR Inten    --      0.5775                31.0940                15.0982

                      4                      5                      6
                      A                      A                      A
 Frequencies --    649.8701               729.6915              1047.8339
 Red. masses --      5.8107                 7.5978                 1.2077
 Frc consts  --      1.4459                 2.3835                 0.7813
 IR Inten    --      1.4866                13.9239                23.9571

                      7                      8                      9
                      A                      A                      A
 Frequencies --   1054.0922              1194.1514              1480.1206
 Red. masses --      2.2332                 2.7510                 1.1250
 Frc consts  --      1.4619                 2.3113                 1.4521
 IR Inten    --     25.3202                22.9621                20.9028

                     10                     11                     12
                      A                      A                      A
 Frequencies --   1645.8682              1665.1637              2244.6705
 Red. masses --      1.0547                 1.0508                12.4456
 Frc consts  --      1.6833                 1.7167                36.9464
 IR Inten    --     33.9803                48.8083               131.7301

                     13                     14                     15
                      A                      A                      A
 Frequencies --   3286.3978              3335.5186              3520.7498
 Red. masses --      1.0320                 1.0971                 1.0846
 Frc consts  --      6.5673                 7.1916                 7.9210
 IR Inten    --     30.0625                 3.6092                59.9202

 - Thermochemistry -
 -------------------
 Temperature   298.150 Kelvin.  Pressure   1.00000 Atm.
 Atom     1 has atomic number  7 and mass  14.00307

 Molecular mass:    57.03270 amu.
 Principal axes and moments of inertia in atomic units:
                           1         2         3
     Eigenvalues --    52.09278 340.77610 382.98219
           X            0.99956   0.02983   0.00000
           Y           -0.02983   0.99956  -0.00000
           Z           -0.00000   0.00000   1.00000
 This molecule is an asymmetric top.
 Rotational symmetry number  1.
 Rotational temperatures (Kelvin)      1.66268     0.25417     0.22616
 Rotational constants (GHZ):          34.64475     5.29597     4.71234
 Zero-point vibrational energy     136232.2 (Joules/Mol)
                                   32.56028 (Kcal/Mol)
 Warning -- explicit consideration of   3 degrees of freedom as
           vibrations may cause significant error
 Vibrational temperatures:    233.31   315.51   777.90   935.02  1049.86
          (Kelvin)           1507.60  1516.60  1718.12  2129.56  2368.03
                             2395.80  3229.58  4728.39  4799.06  5065.57

 Zero-point correction=                           0.051888 (Hartree/Particle)
 Thermal correction to Energy=                    0.056394
 Thermal correction to Enthalpy=                  0.057338
 Thermal correction to Gibbs Free Energy=         0.025316
 Sum of electronic and zero-point Energies=           -204.008955
 Sum of electronic and thermal Energies=              -204.004449
 Sum of electronic and thermal Enthalpies=            -204.003505
 Sum of electronic and thermal Free Energies=         -204.035527

                     E (Thermal)             CV                S
                      KCal/Mol        Cal/Mol-Kelvin    Cal/Mol-Kelvin
 Total                   35.388             13.553             67.396
 Electronic               0.000              0.000              0.000
 Translational            0.889              2.981             38.044
 Rotational               0.889              2.981             23.435
 Vibrational             33.610              7.592              5.917
 Vibration     1          0.622              1.889              2.524
 Vibration     2          0.647              1.812              1.965
 Vibration     3          0.896              1.160              0.564

 Optimization completed.
    -- Stationary point found.
 Normal termination of Gaussian 09 at Thu Sep  8 15:11:03 2022.
