 Gaussian 09, Revision E.01,
 Gaussian 09:  ES64L-G09RevE.01 30-Nov-2015

 ----------------------------
 #P OPT Freq B3LYP/6-31G(d,p)
 ----------------------------

 --------
 Frag_447
 --------
 Symbolic Z-matrix:
 Charge =  0 Multiplicity = 1

 SCF Done:  E(RB3LYP) =  -273.000699174     A.U. after   13 cycles
 SCF Done:  E(RB3LYP) =  -273.000728405     A.U. after   10 cycles
 SCF Done:  E(RB3LYP) =  -273.000733181     A.U. after    8 cycles
 SCF Done:  E(RB3LYP) =  -273.000735572     A.U. after    8 cycles
 SCF Done:  E(RB3LYP) =  -273.000736792     A.U. after    8 cycles
 SCF Done:  E(RB3LYP) =  -273.000737549     A.U. after    7 cycles
 SCF Done:  E(RB3LYP) =  -273.000737714     A.U. after    7 cycles
 Optimization completed.
    -- Stationary point found.
 Normal termination of Gaussian 09 at Thu Sep  8 15:01:25 2022.

 ----------------------------------------------------------------------
 #P Geom=AllCheck Guess=TCheck SCRF=Check GenChk RB3LYP/6-31G(d,p) Freq
 ----------------------------------------------------------------------

 Structure from the checkpoint file:  "B3LYP6-31Gdp.Frag_447.chk"
 --------
 Frag_447
 --------
 Charge =  0 Multiplicity = 1

                         Standard orientation:
 ---------------------------------------------------------------------
 Center     Atomic      Atomic             Coordinates (Angstroms)
 Number     Number       Type             X           Y           Z
 ---------------------------------------------------------------------
      1          6           0       -1.573519   -1.153517    0.063578
      2          6           0       -0.692623    0.044632   -0.320482
      3          6           0       -1.381929    1.364735    0.054896
      4          6           0        0.705708   -0.079984    0.310474
      5          6           0        1.660968    1.057777   -0.057782
      6          8           0        1.239682   -1.331380   -0.136142
      7          1           0       -2.544795   -1.097755   -0.439396
      8          1           0       -1.761049   -1.167110    1.144775
      9          1           0       -1.093944   -2.095588   -0.207706
     10          1           0       -0.543818    0.025465   -1.409882
     11          1           0       -0.845611    2.240604   -0.321341
     12          1           0       -1.472924    1.467222    1.143481
     13          1           0       -2.394060    1.396431   -0.361072
     14          1           0        0.581072   -0.098470    1.408517
     15          1           0        2.658473    0.866860    0.356171
     16          1           0        1.758095    1.138383   -1.145543
     17          1           0        1.326043    2.020924    0.337351
     18          1           0        2.103437   -1.447789    0.279680
 ---------------------------------------------------------------------

 SCF Done:  E(RB3LYP) =  -273.000737714     A.U. after    1 cycles

 The electronic state is 1-A.
 Alpha  occ. eigenvalues --  -19.13645 -10.22983 -10.18198 -10.17515 -10.17149
 Alpha  occ. eigenvalues --  -10.16132  -1.00988  -0.79603  -0.72609  -0.67471
 Alpha  occ. eigenvalues --   -0.62640  -0.55107  -0.50221  -0.45160  -0.44067
 Alpha  occ. eigenvalues --   -0.42258  -0.39421  -0.38015  -0.37889  -0.36639
 Alpha  occ. eigenvalues --   -0.34567  -0.32759  -0.32228  -0.30280  -0.26134
 Alpha virt. eigenvalues --    0.07443   0.10361   0.12343   0.13599   0.14649
 Alpha virt. eigenvalues --    0.16391   0.16532   0.17716   0.18406   0.19686
 Alpha virt. eigenvalues --    0.19851   0.21577   0.23220   0.25619   0.25656

 Mulliken charges:
               1
     1  C   -0.312047
     2  C   -0.052726
     3  C   -0.318436
     4  C    0.188846
     5  C   -0.329644
     6  O   -0.549179
     7  H    0.091475
     8  H    0.090544
     9  H    0.127257
    10  H    0.091526
    11  H    0.100995
    12  H    0.098347
    13  H    0.101995
    14  H    0.064867
    15  H    0.087114
    16  H    0.113968
    17  H    0.104987
    18  H    0.300112
 Sum of Mulliken charges =  -0.00000

 Dipole moment (field-independent basis, Debye):
    X=              0.8310    Y=              0.8769    Z=              0.8145  Tot=              1.4570
 Quadrupole moment (field-independent basis, Debye-Ang):
   XX=            -36.1171   YY=            -41.3208   ZZ=            -39.5362
   XY=             -0.9127   XZ=              1.9411   YZ=             -1.2737

  Exact polarizability:  64.561   0.011  59.006   0.925   0.048  51.727
 Approx polarizability:  80.129  -1.803  77.804   1.308   1.360  76.956

                      1                      2                      3
                      A                      A                      A
 Frequencies --     81.0134               212.4717               227.2291
 Red. masses --      2.7768                 1.2810                 1.2052
 Frc consts  --      0.0107                 0.0341                 0.0367
 IR Inten    --      1.5068                 0.3836                 0.1095

                      4                      5                      6
                      A                      A                      A
 Frequencies --    242.8161               278.3067               288.2704
 Red. masses --      1.1172                 1.0708                 1.7325
 Frc consts  --      0.0388                 0.0489                 0.0848
 IR Inten    --      0.5960                98.0258                11.7124

                      7                      8                      9
                      A                      A                      A
 Frequencies --    365.3714               370.4403               414.1559
 Red. masses --      2.0700                 2.0873                 2.4215
 Frc consts  --      0.1628                 0.1688                 0.2447
 IR Inten    --      2.8932                 4.9809                 0.8652

                     10                     11                     12
                      A                      A                      A
 Frequencies --    460.9696               526.1426               786.8956
 Red. masses --      3.4569                 2.7209                 1.9822
 Frc consts  --      0.4328                 0.4438                 0.7232
 IR Inten    --      8.0307                 3.7284                 2.1958

                     13                     14                     15
                      A                      A                      A
 Frequencies --    896.1193               937.8161               951.7015
 Red. masses --      2.4304                 1.1858                 1.8345
 Frc consts  --      1.1499                 0.6145                 0.9790
 IR Inten    --      6.6541                 1.7819                15.2764

                     16                     17                     18
                      A                      A                      A
 Frequencies --    970.9062               995.8008              1074.9077
 Red. masses --      1.4512                 1.2302                 2.8781
 Frc consts  --      0.8060                 0.7187                 1.9593
 IR Inten    --      3.0237                 4.3202                10.7843

                     19                     20                     21
                      A                      A                      A
 Frequencies --   1100.6743              1155.2783              1181.6563
 Red. masses --      1.7830                 2.0282                 1.9389
 Frc consts  --      1.2727                 1.5949                 1.5951
 IR Inten    --     76.7269                 8.2510                15.7924

                     22                     23                     24
                      A                      A                      A
 Frequencies --   1198.7102              1274.3670              1343.1746
 Red. masses --      1.6956                 1.3456                 1.3805
 Frc consts  --      1.4355                 1.2876                 1.4674
 IR Inten    --      3.7544                30.6036                16.2685

                     25                     26                     27
                      A                      A                      A
 Frequencies --   1353.3816              1383.3445              1413.9624
 Red. masses --      1.3436                 1.2453                 1.2806
 Frc consts  --      1.4500                 1.4041                 1.5085
 IR Inten    --      2.9950                 7.6484                 1.1869

                     28                     29                     30
                      A                      A                      A
 Frequencies --   1422.5712              1425.6439              1439.6143
 Red. masses --      1.2676                 1.4173                 1.3016
 Frc consts  --      1.5115                 1.6972                 1.5893
 IR Inten    --      7.9661                 6.8998                 7.0698

                     31                     32                     33
                      A                      A                      A
 Frequencies --   1503.7672              1504.3718              1510.3846
 Red. masses --      1.0538                 1.0456                 1.0670
 Frc consts  --      1.4040                 1.3942                 1.4341
 IR Inten    --      2.6390                 2.3721                 2.7759

                     34                     35                     36
                      A                      A                      A
 Frequencies --   1514.0670              1522.5203              1534.0389
 Red. masses --      1.0560                 1.0528                 1.0616
 Frc consts  --      1.4263                 1.4379                 1.4719
 IR Inten    --      9.0818                 2.2434                 6.1589

                     37                     38                     39
                      A                      A                      A
 Frequencies --   2950.2794              3022.0343              3034.8495
 Red. masses --      1.0825                 1.0825                 1.0397
 Frc consts  --      5.5516                 5.8248                 5.6418
 IR Inten    --     50.5655                14.4784                17.8672

                     40                     41                     42
                      A                      A                      A
 Frequencies --   3038.0134              3040.8952              3098.2272
 Red. masses --      1.0392                 1.0404                 1.0997
 Frc consts  --      5.6509                 5.6683                 6.2196
 IR Inten    --     41.1131                28.6301                 8.9193

                     43                     44                     45
                      A                      A                      A
 Frequencies --   3102.9559              3106.0784              3120.9237
 Red. masses --      1.0995                 1.0988                 1.1017
 Frc consts  --      6.2373                 6.2459                 6.3223
 IR Inten    --     12.5982                88.2513                36.8313

                     46                     47                     48
                      A                      A                      A
 Frequencies --   3131.9310              3149.5242              3817.2953
 Red. masses --      1.1012                 1.0988                 1.0664
 Frc consts  --      6.3639                 6.4221                 9.1555
 IR Inten    --     26.3643                16.4028                 9.2598

 - Thermochemistry -
 -------------------
 Temperature   298.150 Kelvin.  Pressure   1.00000 Atm.
 Atom     1 has atomic number  6 and mass  12.00000

 Molecular mass:    88.08882 amu.
 Principal axes and moments of inertia in atomic units:
                           1         2         3
     Eigenvalues --   413.97828 608.59027 940.04481
           X            0.99793   0.06431   0.00191
           Y           -0.06429   0.99789  -0.00876
           Z           -0.00247   0.00862   0.99996
 This molecule is an asymmetric top.
 Rotational symmetry number  1.
 Rotational temperatures (Kelvin)      0.20922     0.14232     0.09214
 Rotational constants (GHZ):           4.35951     2.96545     1.91985
 Zero-point vibrational energy     433502.0 (Joules/Mol)
                                  103.60946 (Kcal/Mol)
 Warning -- explicit consideration of  11 degrees of freedom as
           vibrations may cause significant error
 Vibrational temperatures:    116.56   305.70   326.93   349.36   400.42
          (Kelvin)            414.76   525.69   532.98   595.88   663.23
                              757.00  1132.17  1289.31  1349.31  1369.28
                             1396.92  1432.73  1546.55  1583.62  1662.19
                             1700.14  1724.67  1833.53  1932.53  1947.21
                             1990.32  2034.37  2046.76  2051.18  2071.28
                             2163.58  2164.45  2173.10  2178.40  2190.56
                             2207.14  4244.79  4348.03  4366.47  4371.02
                             4375.16  4457.65  4464.46  4468.95  4490.31
                             4506.14  4531.46  5492.23

 Zero-point correction=                           0.165112 (Hartree/Particle)
 Thermal correction to Energy=                    0.173104
 Thermal correction to Enthalpy=                  0.174048
 Thermal correction to Gibbs Free Energy=         0.133835
 Sum of electronic and zero-point Energies=           -272.835626
 Sum of electronic and thermal Energies=              -272.827634
 Sum of electronic and thermal Enthalpies=            -272.826689
 Sum of electronic and thermal Free Energies=         -272.866903

                     E (Thermal)             CV                S
                      KCal/Mol        Cal/Mol-Kelvin    Cal/Mol-Kelvin
 Total                  108.624             29.210             84.637
 Electronic               0.000              0.000              0.000
 Translational            0.889              2.981             39.340
 Rotational               0.889              2.981             26.962
 Vibrational            106.847             23.248             18.334
 Vibration     1          0.600              1.962              3.866
 Vibration     2          0.644              1.822              2.022
 Vibration     3          0.651              1.800              1.901
 Vibration     4          0.659              1.775              1.782
 Vibration     5          0.679              1.714              1.544
 Vibration     6          0.685              1.696              1.484
 Vibration     7          0.739              1.544              1.099
 Vibration     8          0.742              1.533              1.078
 Vibration     9          0.778              1.439              0.912
 Vibration    10          0.819              1.337              0.763
 Vibration    11          0.881              1.192              0.596

 Optimization completed.
    -- Stationary point found.
 Normal termination of Gaussian 09 at Thu Sep  8 15:01:41 2022.
 Normal termination of Gaussian 09 at Thu Sep  8 15:01:41 2022.
