 Gaussian 09, Revision E.01,
 Gaussian 09:  ES64L-G09RevE.01 30-Nov-2015

 ----------------------------
 #P OPT Freq B3LYP/6-31G(d,p)
 ----------------------------

 --------
 Frag_988
 --------
 Symbolic Z-matrix:
 Charge =  0 Multiplicity = 1

 SCF Done:  E(RB3LYP) =  -132.686827682     A.U. after   13 cycles
 SCF Done:  E(RB3LYP) =  -132.686935361     A.U. after    9 cycles
 SCF Done:  E(RB3LYP) =  -132.686448916     A.U. after   12 cycles
 SCF Done:  E(RB3LYP) =  -132.686945282     A.U. after    8 cycles
 SCF Done:  E(RB3LYP) =  -132.686948491     A.U. after    8 cycles
 SCF Done:  E(RB3LYP) =  -132.686949349     A.U. after    8 cycles
 SCF Done:  E(RB3LYP) =  -132.686949907     A.U. after    8 cycles
 Optimization completed.
    -- Stationary point found.
 Normal termination of Gaussian 09 at Thu Sep  8 15:17:02 2022.

 ----------------------------------------------------------------------
 #P Geom=AllCheck Guess=TCheck SCRF=Check GenChk RB3LYP/6-31G(d,p) Freq
 ----------------------------------------------------------------------

 Structure from the checkpoint file:  "B3LYP6-31Gdp.Frag_988.chk"
 --------
 Frag_988
 --------
 Charge =  0 Multiplicity = 1

                         Standard orientation:
 ---------------------------------------------------------------------
 Center     Atomic      Atomic             Coordinates (Angstroms)
 Number     Number       Type             X           Y           Z
 ---------------------------------------------------------------------
      1          6           0        1.370301    0.000022    0.008995
      2          6           0        0.160713   -0.000038   -0.004534
      3          7           0       -1.193116    0.000008   -0.088763
      4          1           0        2.433329   -0.000016    0.039462
      5          1           0       -1.633832   -0.836006    0.277563
      6          1           0       -1.633771    0.836060    0.277549
 ---------------------------------------------------------------------

 SCF Done:  E(RB3LYP) =  -132.686949907     A.U. after    1 cycles

 The electronic state is 1-A.
 Alpha  occ. eigenvalues --  -14.36275 -10.20585 -10.16224  -0.92105  -0.71495
 Alpha  occ. eigenvalues --   -0.55759  -0.52194  -0.48773  -0.35113  -0.26113
 Alpha  occ. eigenvalues --   -0.21589
 Alpha virt. eigenvalues --    0.06200   0.06614   0.10694   0.14014   0.15696
 Alpha virt. eigenvalues --    0.26852   0.42741   0.55045   0.55174   0.56363
 Alpha virt. eigenvalues --    0.64067   0.68315   0.69669   0.77031   0.81548

 Mulliken charges:
               1
     1  C   -0.243673
     2  C    0.284657
     3  N   -0.734879
     4  H    0.139123
     5  H    0.277386
     6  H    0.277386
 Sum of Mulliken charges =  -0.00000

 Dipole moment (field-independent basis, Debye):
    X=             -1.4059    Y=              0.0000    Z=              1.2290  Tot=              1.8673
 Quadrupole moment (field-independent basis, Debye-Ang):
   XX=            -11.9728   YY=            -16.5315   ZZ=            -19.6430
   XY=             -0.0001   XZ=             -2.0574   YZ=              0.0000

  Exact polarizability:  42.904   0.001  14.927  -0.397  -0.000  11.598
 Approx polarizability:  73.265   0.003  19.289   0.427  -0.000  14.752

                      1                      2                      3
                      A                      A                      A
 Frequencies --    346.9495               357.1550               483.7976
 Red. masses --      2.2609                 3.7898                 1.4968
 Frc consts  --      0.1603                 0.2848                 0.2064
 IR Inten    --     30.7864                 3.9350                85.1746

                      4                      5                      6
                      A                      A                      A
 Frequencies --    637.9656               660.1234              1089.4793
 Red. masses --      1.4926                 1.1883                 4.8617
 Frc consts  --      0.3579                 0.3051                 3.4000
 IR Inten    --    225.0426                33.5120                12.5701

                      7                      8                      9
                      A                      A                      A
 Frequencies --   1200.4615              1644.1569              2264.5701
 Red. masses --      1.2670                 1.1054                 6.1996
 Frc consts  --      1.0757                 1.7607                18.7320
 IR Inten    --      0.1212                26.1296                82.9339

                     10                     11                     12
                      A                      A                      A
 Frequencies --   3504.2509              3533.4817              3624.6000
 Red. masses --      1.1531                 1.0486                 1.0979
 Frc consts  --      8.3429                 7.7139                 8.4982
 IR Inten    --     84.5896                 6.7167                22.3943

 - Thermochemistry -
 -------------------
 Temperature   298.150 Kelvin.  Pressure   1.00000 Atm.
 Atom     1 has atomic number  6 and mass  12.00000

 Molecular mass:    41.02655 amu.
 Principal axes and moments of inertia in atomic units:
                           1         2         3
     Eigenvalues --     5.91497 194.15001 198.29716
           X            0.99989  -0.00000  -0.01516
           Y            0.00000   1.00000   0.00000
           Z            0.01516  -0.00000   0.99989
 This molecule is an asymmetric top.
 Rotational symmetry number  1.
 Rotational temperatures (Kelvin)     14.64314     0.44612     0.43679
 Rotational constants (GHZ):         305.11398     9.29560     9.10120
 Zero-point vibrational energy     115720.7 (Joules/Mol)
                                   27.65791 (Kcal/Mol)
 Warning -- explicit consideration of   3 degrees of freedom as
           vibrations may cause significant error
 Vibrational temperatures:    499.18   513.87   696.08   917.89   949.77
          (Kelvin)           1567.52  1727.19  2365.57  3258.21  5041.83
                             5083.89  5214.98

 Zero-point correction=                           0.044076 (Hartree/Particle)
 Thermal correction to Energy=                    0.048178
 Thermal correction to Enthalpy=                  0.049122
 Thermal correction to Gibbs Free Energy=         0.020142
 Sum of electronic and zero-point Energies=           -132.642874
 Sum of electronic and thermal Energies=              -132.638772
 Sum of electronic and thermal Enthalpies=            -132.637827
 Sum of electronic and thermal Free Energies=         -132.666808

                     E (Thermal)             CV                S
                      KCal/Mol        Cal/Mol-Kelvin    Cal/Mol-Kelvin
 Total                   30.232             12.792             60.995
 Electronic               0.000              0.000              0.000
 Translational            0.889              2.981             37.062
 Rotational               0.889              2.981             20.060
 Vibrational             28.455              6.831              3.873
 Vibration     1          0.725              1.581              1.180
 Vibration     2          0.732              1.561              1.134
 Vibration     3          0.840              1.286              0.700

 Optimization completed.
    -- Stationary point found.
 Normal termination of Gaussian 09 at Thu Sep  8 15:17:07 2022.
