 Gaussian 09, Revision E.01,
 Gaussian 09:  ES64L-G09RevE.01 30-Nov-2015

 ----------------------------
 #P OPT Freq B3LYP/6-31G(d,p)
 ----------------------------

 --------
 Frag_570
 --------
 Symbolic Z-matrix:
 Charge =  0 Multiplicity = 1

 SCF Done:  E(RB3LYP) =  -299.208822490     A.U. after   15 cycles
 SCF Done:  E(RB3LYP) =  -299.208933581     A.U. after   12 cycles
 SCF Done:  E(RB3LYP) =  -299.208945552     A.U. after   11 cycles
 SCF Done:  E(RB3LYP) =  -299.208948898     A.U. after   10 cycles
 SCF Done:  E(RB3LYP) =  -299.208948713     A.U. after    9 cycles
 SCF Done:  E(RB3LYP) =  -299.208949212     A.U. after    9 cycles
 Optimization completed.
    -- Stationary point found.
 Normal termination of Gaussian 09 at Thu Sep  8 15:15:49 2022.

 ----------------------------------------------------------------------
 #P Geom=AllCheck Guess=TCheck SCRF=Check GenChk RB3LYP/6-31G(d,p) Freq
 ----------------------------------------------------------------------

 Structure from the checkpoint file:  "B3LYP6-31Gdp.Frag_570.chk"
 --------
 Frag_570
 --------
 Charge =  0 Multiplicity = 1

                         Standard orientation:
 ---------------------------------------------------------------------
 Center     Atomic      Atomic             Coordinates (Angstroms)
 Number     Number       Type             X           Y           Z
 ---------------------------------------------------------------------
      1          7           0       -1.829259   -0.159897   -0.000059
      2          7           0       -0.746895   -0.756874   -0.000022
      3          6           0        0.453674    0.146975    0.000343
      4          8           0        0.392343    1.346446   -0.000104
      5          8           0        1.565757   -0.575141   -0.000094
      6          1           0       -1.657151    0.877900    0.000144
      7          1           0        1.303380   -1.512793   -0.000050
 ---------------------------------------------------------------------

 SCF Done:  E(RB3LYP) =  -299.208949212     A.U. after    1 cycles

 The electronic state is 1-A.
 Alpha  occ. eigenvalues --  -19.23735 -19.18124 -14.42663 -14.42020 -10.36856
 Alpha  occ. eigenvalues --   -1.15300  -1.07763  -1.05050  -0.73482  -0.64631
 Alpha  occ. eigenvalues --   -0.60914  -0.49769  -0.49317  -0.45192  -0.41080
 Alpha  occ. eigenvalues --   -0.40025  -0.35446  -0.34050  -0.27223
 Alpha virt. eigenvalues --   -0.10639   0.02874   0.05591   0.09839   0.18267
 Alpha virt. eigenvalues --    0.29471   0.31994   0.36760   0.49947   0.51834
 Alpha virt. eigenvalues --    0.56110   0.63963   0.66075   0.66999   0.69757

 Mulliken charges:
               1
     1  N   -0.182770
     2  N   -0.250219
     3  C    0.695336
     4  O   -0.418196
     5  O   -0.451161
     6  H    0.257102
     7  H    0.349908
 Sum of Mulliken charges =   0.00000

 Dipole moment (field-independent basis, Debye):
    X=              0.4954    Y=             -1.3622    Z=              0.0015  Tot=              1.4495
 Quadrupole moment (field-independent basis, Debye-Ang):
   XX=            -31.3861   YY=            -28.0144   ZZ=            -26.4078
   XY=             -5.9758   XZ=             -0.0004   YZ=              0.0000

  Exact polarizability:  36.950  -4.756  32.822  -0.000  -0.000  14.321
 Approx polarizability:  58.160 -10.871  56.982  -0.000  -0.004  21.030

                      1                      2                      3
                      A                      A                      A
 Frequencies --    155.5546               347.0323               498.6975
 Red. masses --      5.2672                 5.6004                 6.0674
 Frc consts  --      0.0751                 0.3974                 0.8891
 IR Inten    --      4.8706                34.4292                 1.1640

                      4                      5                      6
                      A                      A                      A
 Frequencies --    620.4970               635.4753               719.9737
 Red. masses --      2.7764                 1.2675                 7.4962
 Frc consts  --      0.6298                 0.3016                 2.2894
 IR Inten    --    183.5857                31.1258                 8.0237

                      7                      8                      9
                      A                      A                      A
 Frequencies --    790.7137              1062.0978              1211.1936
 Red. masses --      6.5844                 1.5094                 2.2059
 Frc consts  --      2.4255                 1.0032                 1.9066
 IR Inten    --     16.7803                36.3244                 7.7048

                     10                     11                     12
                      A                      A                      A
 Frequencies --   1362.1575              1500.7540              1688.5260
 Red. masses --      2.3230                 1.2734                10.1625
 Frc consts  --      2.5395                 1.6898                17.0712
 IR Inten    --    483.3238                87.0348                 2.8844

                     13                     14                     15
                      A                      A                      A
 Frequencies --   1911.0569              3071.1685              3728.9693
 Red. masses --     10.2838                 1.0688                 1.0646
 Frc consts  --     22.1285                 5.9395                 8.7223
 IR Inten    --    211.7244                17.3072                86.4968

 - Thermochemistry -
 -------------------
 Temperature   298.150 Kelvin.  Pressure   1.00000 Atm.
 Atom     1 has atomic number  7 and mass  14.00307

 Molecular mass:    74.01163 amu.
 Principal axes and moments of inertia in atomic units:
                           1         2         3
     Eigenvalues --   163.56928 369.58047 533.14974
           X            0.99825  -0.05907  -0.00000
           Y            0.05907   0.99825   0.00000
           Z            0.00000  -0.00000   1.00000
 This molecule is an asymmetric top.
 Rotational symmetry number  1.
 Rotational temperatures (Kelvin)      0.52952     0.23436     0.16246
 Rotational constants (GHZ):          11.03350     4.88322     3.38506
 Zero-point vibrational energy     115462.8 (Joules/Mol)
                                   27.59626 (Kcal/Mol)
 Warning -- explicit consideration of   4 degrees of freedom as
           vibrations may cause significant error
 Vibrational temperatures:    223.81   499.30   717.51   892.76   914.31
          (Kelvin)           1035.88  1137.66  1528.12  1742.64  1959.84
                             2159.25  2429.41  2749.58  4418.72  5365.15

 Zero-point correction=                           0.043977 (Hartree/Particle)
 Thermal correction to Energy=                    0.048572
 Thermal correction to Enthalpy=                  0.049516
 Thermal correction to Gibbs Free Energy=         0.016397
 Sum of electronic and zero-point Energies=           -299.164972
 Sum of electronic and thermal Energies=              -299.160378
 Sum of electronic and thermal Enthalpies=            -299.159434
 Sum of electronic and thermal Free Energies=         -299.192552

                     E (Thermal)             CV                S
                      KCal/Mol        Cal/Mol-Kelvin    Cal/Mol-Kelvin
 Total                   30.479             14.858             69.705
 Electronic               0.000              0.000              0.000
 Translational            0.889              2.981             38.821
 Rotational               0.889              2.981             24.981
 Vibrational             28.702              8.896              5.903
 Vibration     1          0.620              1.896              2.603
 Vibration     2          0.725              1.581              1.180
 Vibration     3          0.854              1.253              0.661
 Vibration     4          0.981              0.989              0.416

 Optimization completed.
    -- Stationary point found.
 Normal termination of Gaussian 09 at Thu Sep  8 15:15:55 2022.
