 Gaussian 09, Revision E.01,
 Gaussian 09:  ES64L-G09RevE.01 30-Nov-2015

 -------------------------
 #P OPT Freq B3LYP/6-31G**
 -------------------------

 --------
 Frag_234
 --------
 Symbolic Z-matrix:
 Charge =  0 Multiplicity = 1

 SCF Done:  E(RB3LYP) =  -232.432083890     A.U. after   13 cycles
 SCF Done:  E(RB3LYP) =  -232.434833826     A.U. after   12 cycles
 SCF Done:  E(RB3LYP) =  -232.434981123     A.U. after   11 cycles
 SCF Done:  E(RB3LYP) =  -232.435094641     A.U. after   11 cycles
 SCF Done:  E(RB3LYP) =  -232.405658502     A.U. after   12 cycles
 SCF Done:  E(RB3LYP) =  -232.435098993     A.U. after    7 cycles
 SCF Done:  E(RB3LYP) =  -232.436321104     A.U. after   12 cycles
 SCF Done:  E(RB3LYP) =  -232.439561942     A.U. after   13 cycles
 SCF Done:  E(RB3LYP) =  -232.440584137     A.U. after   13 cycles
 SCF Done:  E(RB3LYP) =  -232.441743479     A.U. after   11 cycles
 SCF Done:  E(RB3LYP) =  -232.442593525     A.U. after   11 cycles
 SCF Done:  E(RB3LYP) =  -232.443449065     A.U. after   13 cycles
 SCF Done:  E(RB3LYP) =  -232.443709251     A.U. after   10 cycles
 SCF Done:  E(RB3LYP) =  -232.443835973     A.U. after   10 cycles
 SCF Done:  E(RB3LYP) =  -232.443841036     A.U. after    9 cycles
 SCF Done:  E(RB3LYP) =  -232.443843613     A.U. after    7 cycles
 SCF Done:  E(RB3LYP) =  -232.443845970     A.U. after    8 cycles
 SCF Done:  E(RB3LYP) =  -232.443847138     A.U. after    8 cycles
 SCF Done:  E(RB3LYP) =  -232.443847449     A.U. after    8 cycles
 Optimization completed.
    -- Stationary point found.
 Normal termination of Gaussian 09 at Sat Aug 21 01:35:41 2021.

 ----------------------------------------------------------------------
 #P Geom=AllCheck Guess=TCheck SCRF=Check GenChk RB3LYP/6-31G(d,p) Freq
 ----------------------------------------------------------------------

 Structure from the checkpoint file:  "/public/home/users/caep010/.cache/gau_scr/Gau-147899.chk"
 --------
 Frag_234
 --------
 Charge =  0 Multiplicity = 1

                         Standard orientation:
 ---------------------------------------------------------------------
 Center     Atomic      Atomic             Coordinates (Angstroms)
 Number     Number       Type             X           Y           Z
 ---------------------------------------------------------------------
      1          6           0        1.521198    0.994542   -0.197040
      2          6           0        0.563890    0.101992    0.068839
      3          6           0        0.799187   -1.385489    0.065444
      4          6           0       -0.833792    0.546733    0.422621
      5          8           0       -1.763535   -0.117994   -0.433869
      6          1           0        2.540997    0.689085   -0.413489
      7          1           0        1.320043    2.062235   -0.204698
      8          1           0        1.833275   -1.628714   -0.191265
      9          1           0        0.131331   -1.873385   -0.651331
     10          1           0        0.575780   -1.820016    1.048812
     11          1           0       -0.913376    1.640280    0.331964
     12          1           0       -1.032762    0.287597    1.477474
     13          1           0       -2.649893    0.040199   -0.085699
 ---------------------------------------------------------------------

 SCF Done:  E(RB3LYP) =  -232.443847449     A.U. after    1 cycles

 The electronic state is 1-A.
 Alpha  occ. eigenvalues --  -19.14258 -10.23237 -10.19121 -10.17351 -10.17190
 Alpha  occ. eigenvalues --   -1.01372  -0.79693  -0.68394  -0.66781  -0.52407
 Alpha  occ. eigenvalues --   -0.50765  -0.45956  -0.45069  -0.39946  -0.38983
 Alpha  occ. eigenvalues --   -0.36817  -0.35934  -0.32198  -0.26915  -0.24551
 Alpha virt. eigenvalues --    0.01933   0.08449   0.11286   0.14585   0.14802
 Alpha virt. eigenvalues --    0.15733   0.17475   0.19195   0.21613   0.22960
 Alpha virt. eigenvalues --    0.24157   0.31522   0.37867   0.51765   0.52363

 Mulliken charges:
               1
     1  C   -0.279835
     2  C    0.164633
     3  C   -0.359852
     4  C    0.005190
     5  O   -0.535122
     6  H    0.090631
     7  H    0.088490
     8  H    0.104068
     9  H    0.140314
    10  H    0.105745
    11  H    0.083521
    12  H    0.085061
    13  H    0.307155
 Sum of Mulliken charges =  -0.00000

 Dipole moment (field-independent basis, Debye):
    X=             -0.7578    Y=              0.4138    Z=              1.2892  Tot=              1.5516
 Quadrupole moment (field-independent basis, Debye-Ang):
   XX=            -26.5235   YY=            -30.5797   ZZ=            -33.2035
   XY=             -1.4583   XZ=             -2.6384   YZ=             -0.0631

  Exact polarizability:  56.001   5.806  50.975  -4.909  -1.647  32.653
 Approx polarizability:  75.895  13.802  70.559  -7.292  -3.133  46.751

                      1                      2                      3
                      A                      A                      A
 Frequencies --    101.3249               187.1861               241.9690
 Red. masses --      2.7147                 1.0783                 1.1066
 Frc consts  --      0.0164                 0.0223                 0.0382
 IR Inten    --      4.3646                 0.5986               114.8916

                      4                      5                      6
                      A                      A                      A
 Frequencies --    261.3460               400.4684               425.0956
 Red. masses --      3.2317                 2.1031                 2.1597
 Frc consts  --      0.1301                 0.1987                 0.2299
 IR Inten    --      7.1940                 2.1930                 1.9064

                      7                      8                      9
                      A                      A                      A
 Frequencies --    557.0699               723.9595               821.6287
 Red. masses --      2.8822                 1.1496                 2.7910
 Frc consts  --      0.5270                 0.3550                 1.1101
 IR Inten    --      3.1374                 2.3976                 4.1051

                     10                     11                     12
                      A                      A                      A
 Frequencies --    932.4839               971.2848               986.2884
 Red. masses --      1.3334                 1.6932                 1.3178
 Frc consts  --      0.6831                 0.9412                 0.7553
 IR Inten    --     38.7906                 8.2194                 3.1753

                     13                     14                     15
                      A                      A                      A
 Frequencies --   1055.9570              1072.9811              1092.8794
 Red. masses --      1.7281                 3.3293                 1.6663
 Frc consts  --      1.1353                 2.2584                 1.1726
 IR Inten    --     49.2426                38.6308                 4.0869

                     16                     17                     18
                      A                      A                      A
 Frequencies --   1231.6028              1256.8455              1321.9645
 Red. masses --      1.1598                 1.1657                 1.9606
 Frc consts  --      1.0366                 1.0850                 2.0187
 IR Inten    --     75.7170                 4.9905                 4.7391

                     19                     20                     21
                      A                      A                      A
 Frequencies --   1419.9062              1441.1668              1474.3290
 Red. masses --      1.2717                 1.3727                 1.2612
 Frc consts  --      1.5106                 1.6798                 1.6152
 IR Inten    --      4.4862                 4.6440                 5.5263

                     22                     23                     24
                      A                      A                      A
 Frequencies --   1488.6162              1511.6659              1525.1477
 Red. masses --      1.0473                 1.0654                 1.0900
 Frc consts  --      1.3673                 1.4344                 1.4938
 IR Inten    --      7.3531                16.4933                 0.8336

                     25                     26                     27
                      A                      A                      A
 Frequencies --   1740.3440              2958.8626              3016.5928
 Red. masses --      5.2210                 1.0651                 1.0963
 Frc consts  --      9.3170                 5.4941                 5.8777
 IR Inten    --      7.1842                63.5617                58.1675

                     28                     29                     30
                      A                      A                      A
 Frequencies --   3032.7975              3097.9924              3134.9843
 Red. masses --      1.0429                 1.0916                 1.1034
 Frc consts  --      5.6514                 6.1726                 6.3890
 IR Inten    --     28.2150                18.0686                17.0782

                     31                     32                     33
                      A                      A                      A
 Frequencies --   3151.4462              3234.0774              3824.9746
 Red. masses --      1.0607                 1.1159                 1.0666
 Frc consts  --      6.2068                 6.8765                 9.1943
 IR Inten    --      8.7184                18.8377                13.9091

 - Thermochemistry -
 -------------------
 Temperature   298.150 Kelvin.  Pressure   1.00000 Atm.
 Atom     1 has atomic number  6 and mass  12.00000

 Molecular mass:    72.05751 amu.
 Principal axes and moments of inertia in atomic units:
                           1         2         3
     Eigenvalues --   234.40841 457.61215 622.42907
           X            0.99932  -0.02743  -0.02482
           Y            0.02739   0.99962  -0.00185
           Z            0.02486   0.00117   0.99969
 This molecule is an asymmetric top.
 Rotational symmetry number  1.
 Rotational temperatures (Kelvin)      0.36950     0.18927     0.13915
 Rotational constants (GHZ):           7.69913     3.94382     2.89951
 Zero-point vibrational energy     297243.5 (Joules/Mol)
                                   71.04291 (Kcal/Mol)
 Warning -- explicit consideration of   7 degrees of freedom as
           vibrations may cause significant error
 Vibrational temperatures:    145.78   269.32   348.14   376.02   576.18
          (Kelvin)            611.62   801.50  1041.61  1182.14  1341.63
                             1397.46  1419.05  1519.28  1543.78  1572.41
                             1772.00  1808.32  1902.01  2042.93  2073.52
                             2121.23  2141.78  2174.95  2194.34  2503.96
                             4257.14  4340.20  4363.51  4457.31  4510.54
                             4534.22  4653.11  5503.28

 Zero-point correction=                           0.113214 (Hartree/Particle)
 Thermal correction to Energy=                    0.119568
 Thermal correction to Enthalpy=                  0.120512
 Thermal correction to Gibbs Free Energy=         0.083871
 Sum of electronic and zero-point Energies=           -232.330633
 Sum of electronic and thermal Energies=              -232.324280
 Sum of electronic and thermal Enthalpies=            -232.323335
 Sum of electronic and thermal Free Energies=         -232.359977

                     E (Thermal)             CV                S
                      KCal/Mol        Cal/Mol-Kelvin    Cal/Mol-Kelvin
 Total                   75.030             21.882             77.118
 Electronic               0.000              0.000              0.000
 Translational            0.889              2.981             38.741
 Rotational               0.889              2.981             25.704
 Vibrational             73.252             15.920             12.672
 Vibration     1          0.604              1.948              3.429
 Vibration     2          0.632              1.857              2.256
 Vibration     3          0.658              1.776              1.788
 Vibration     4          0.669              1.744              1.653
 Vibration     5          0.766              1.469              0.961
 Vibration     6          0.787              1.416              0.875
 Vibration     7          0.913              1.124              0.530

 Optimization completed.
    -- Stationary point found.
 Normal termination of Gaussian 09 at Sat Aug 21 01:35:50 2021.
