 Gaussian 09, Revision E.01,
 Gaussian 09:  ES64L-G09RevE.01 30-Nov-2015

 ----------------------------
 #P OPT Freq B3LYP/6-31G(d,p)
 ----------------------------

 --------
 Frag_997
 --------
 Symbolic Z-matrix:
 Charge =  0 Multiplicity = 1

 SCF Done:  E(RB3LYP) =  -327.117530293     A.U. after   14 cycles
 SCF Done:  E(RB3LYP) =  -327.117584686     A.U. after   11 cycles
 SCF Done:  E(RB3LYP) =  -327.117589354     A.U. after    8 cycles
 SCF Done:  E(RB3LYP) =  -327.117589625     A.U. after    8 cycles
 SCF Done:  E(RB3LYP) =  -327.117590195     A.U. after    8 cycles
 SCF Done:  E(RB3LYP) =  -327.117590219     A.U. after    9 cycles
 SCF Done:  E(RB3LYP) =  -327.117590999     A.U. after    8 cycles
 SCF Done:  E(RB3LYP) =  -327.117592050     A.U. after    9 cycles
 SCF Done:  E(RB3LYP) =  -327.117592335     A.U. after    7 cycles
 Optimization completed.
    -- Stationary point found.
 Normal termination of Gaussian 09 at Thu Sep  8 15:23:32 2022.

 ----------------------------------------------------------------------
 #P Geom=AllCheck Guess=TCheck SCRF=Check GenChk RB3LYP/6-31G(d,p) Freq
 ----------------------------------------------------------------------

 Structure from the checkpoint file:  "B3LYP6-31Gdp.Frag_997.chk"
 --------
 Frag_997
 --------
 Charge =  0 Multiplicity = 1

                         Standard orientation:
 ---------------------------------------------------------------------
 Center     Atomic      Atomic             Coordinates (Angstroms)
 Number     Number       Type             X           Y           Z
 ---------------------------------------------------------------------
      1          6           0        1.763337    1.106150   -0.022160
      2          6           0        0.968845    0.033343   -0.016651
      3          8           0        1.538983   -1.218830    0.020701
      4          6           0       -0.561200    0.072368    0.003513
      5          6           0       -1.137809   -0.879130   -1.079935
      6          6           0       -1.061867   -0.359433    1.397241
      7          7           0       -0.997619    1.457450   -0.217001
      8          1           0        1.341342    2.099199    0.024698
      9          1           0        2.840504    0.985822   -0.030341
     10          1           0        0.867610   -1.887195   -0.158545
     11          1           0       -0.760268   -0.614454   -2.072946
     12          1           0       -2.229375   -0.795461   -1.092670
     13          1           0       -0.916264   -1.940875   -0.907582
     14          1           0       -0.723277    0.357806    2.147819
     15          1           0       -0.682407   -1.349718    1.665342
     16          1           0       -2.157163   -0.401469    1.418566
     17          1           0       -0.723074    1.757512   -1.150527
     18          1           0       -2.013992    1.497538   -0.182470
 ---------------------------------------------------------------------

 SCF Done:  E(RB3LYP) =  -327.117592335     A.U. after    1 cycles

 The electronic state is 1-A.
 Alpha  occ. eigenvalues --  -19.16461 -14.31725 -10.23509 -10.23127 -10.19154
 Alpha  occ. eigenvalues --  -10.18069 -10.14916  -1.04423  -0.89809  -0.76335
 Alpha  occ. eigenvalues --   -0.73381  -0.69734  -0.60644  -0.56300  -0.51198
 Alpha  occ. eigenvalues --   -0.46976  -0.45826  -0.42825  -0.42686  -0.40572
 Alpha  occ. eigenvalues --   -0.39867  -0.38031  -0.37050  -0.36187  -0.34251
 Alpha  occ. eigenvalues --   -0.32222  -0.24236  -0.21321
 Alpha virt. eigenvalues --    0.04692   0.05147   0.09432   0.11936   0.13103
 Alpha virt. eigenvalues --    0.15205   0.15581   0.17351   0.18007   0.19039
 Alpha virt. eigenvalues --    0.19679   0.20140   0.22573   0.24594   0.25189

 Mulliken charges:
               1
     1  C   -0.320177
     2  C    0.392899
     3  O   -0.551416
     4  C    0.063507
     5  C   -0.323468
     6  C   -0.288263
     7  N   -0.584841
     8  H    0.111002
     9  H    0.091713
    10  H    0.312581
    11  H    0.115998
    12  H    0.104323
    13  H    0.082420
    14  H    0.132891
    15  H    0.096006
    16  H    0.093401
    17  H    0.238009
    18  H    0.233416
 Sum of Mulliken charges =  -0.00000

 Dipole moment (field-independent basis, Debye):
    X=             -2.7462    Y=             -1.0558    Z=             -1.1516  Tot=              3.1595
 Quadrupole moment (field-independent basis, Debye-Ang):
   XX=            -44.9520   YY=            -42.8413   ZZ=            -44.0311
   XY=              0.6254   XZ=              0.5836   YZ=             -1.5626

  Exact polarizability:  70.923   7.385  69.472  -0.281  -0.953  50.385
 Approx polarizability:  95.691  11.587 106.774  -0.836  -2.072  67.865

                      1                      2                      3
                      A                      A                      A
 Frequencies --     71.4493               168.7462               222.2328
 Red. masses --      2.9349                 1.4288                 1.2487
 Frc consts  --      0.0088                 0.0240                 0.0363
 IR Inten    --      2.1863                74.8141                 0.4485

                      4                      5                      6
                      A                      A                      A
 Frequencies --    245.0858               282.2894               303.9846
 Red. masses --      1.3811                 1.5162                 1.2410
 Frc consts  --      0.0489                 0.0712                 0.0676
 IR Inten    --     18.3681                 0.4398                14.8205

                      7                      8                      9
                      A                      A                      A
 Frequencies --    307.6049               347.4121               398.9256
 Red. masses --      1.5647                 2.3244                 2.7367
 Frc consts  --      0.0872                 0.1653                 0.2566
 IR Inten    --     21.6527                 1.9752                 8.7808

                     10                     11                     12
                      A                      A                      A
 Frequencies --    423.7448               498.7952               510.2640
 Red. masses --      2.5089                 2.7758                 2.7325
 Frc consts  --      0.2654                 0.4069                 0.4192
 IR Inten    --      5.3785                 3.8205                 3.4712

                     13                     14                     15
                      A                      A                      A
 Frequencies --    657.6419               696.8688               765.7707
 Red. masses --      3.4339                 3.3225                 1.0963
 Frc consts  --      0.8750                 0.9506                 0.3788
 IR Inten    --      5.5407                 4.9989                 5.0004

                     16                     17                     18
                      A                      A                      A
 Frequencies --    856.6994               862.8059               909.6768
 Red. masses --      1.6801                 1.6329                 1.4719
 Frc consts  --      0.7265                 0.7162                 0.7176
 IR Inten    --     85.9333                53.8815                47.6006

                     19                     20                     21
                      A                      A                      A
 Frequencies --    921.7013               973.3758               985.1625
 Red. masses --      1.6118                 1.8195                 1.8288
 Frc consts  --      0.8067                 1.0157                 1.0458
 IR Inten    --      0.2928                18.3670                22.3284

                     22                     23                     24
                      A                      A                      A
 Frequencies --   1026.5414              1091.5760              1184.1628
 Red. masses --      1.3160                 1.5234                 2.1650
 Frc consts  --      0.8171                 1.0695                 1.7887
 IR Inten    --      1.9169                12.3737                26.1200

                     25                     26                     27
                      A                      A                      A
 Frequencies --   1212.8699              1256.0072              1313.8352
 Red. masses --      1.9088                 2.1200                 1.8863
 Frc consts  --      1.6544                 1.9705                 1.9184
 IR Inten    --     14.7956               107.2415                84.1888

                     28                     29                     30
                      A                      A                      A
 Frequencies --   1361.3848              1406.4578              1429.5936
 Red. masses --      2.4703                 1.2309                 1.2380
 Frc consts  --      2.6975                 1.4346                 1.4907
 IR Inten    --     53.2550                 6.9225                 1.5849

                     31                     32                     33
                      A                      A                      A
 Frequencies --   1431.0985              1494.5851              1499.0522
 Red. masses --      1.2059                 1.0483                 1.0506
 Frc consts  --      1.4551                 1.3797                 1.3909
 IR Inten    --      9.1396                 0.4094                 0.5434

                     34                     35                     36
                      A                      A                      A
 Frequencies --   1518.9631              1520.7591              1654.5329
 Red. masses --      1.0512                 1.0788                 1.1085
 Frc consts  --      1.4290                 1.4700                 1.7879
 IR Inten    --      7.7722                10.0314                38.2880

                     37                     38                     39
                      A                      A                      A
 Frequencies --   1747.6564              3022.8145              3044.6285
 Red. masses --      5.2654                 1.0413                 1.0388
 Frc consts  --      9.4754                 5.6059                 5.6735
 IR Inten    --     67.9010                27.9910                26.1390

                     40                     41                     42
                      A                      A                      A
 Frequencies --   3088.3025              3115.2349              3121.0174
 Red. masses --      1.0936                 1.0991                 1.1037
 Frc consts  --      6.1452                 6.2846                 6.3343
 IR Inten    --     29.7882                29.2756                27.4296

                     43                     44                     45
                      A                      A                      A
 Frequencies --   3148.4821              3191.7868              3298.4609
 Red. masses --      1.1024                 1.0615                 1.1153
 Frc consts  --      6.4384                 6.3716                 7.1490
 IR Inten    --     14.8410                 3.8666                 2.0641

                     46                     47                     48
                      A                      A                      A
 Frequencies --   3481.2650              3570.1114              3845.9014
 Red. masses --      1.0491                 1.0929                 1.0656
 Frc consts  --      7.4911                 8.2074                 9.2862
 IR Inten    --      0.8246                 0.0845                40.9076

 - Thermochemistry -
 -------------------
 Temperature   298.150 Kelvin.  Pressure   1.00000 Atm.
 Atom     1 has atomic number  6 and mass  12.00000

 Molecular mass:   101.08406 amu.
 Principal axes and moments of inertia in atomic units:
                           1         2         3
     Eigenvalues --   554.56257 772.07283 931.47831
           X            0.99631   0.08583   0.00100
           Y           -0.08582   0.99631  -0.00245
           Z           -0.00121   0.00236   1.00000
 This molecule is an asymmetric top.
 Rotational symmetry number  1.
 Warning -- assumption of classical behavior for rotation
           may cause significant error
 Rotational temperatures (Kelvin)      0.15618     0.11218     0.09299
 Rotational constants (GHZ):           3.25435     2.33753     1.93750
 Zero-point vibrational energy     415626.5 (Joules/Mol)
                                   99.33711 (Kcal/Mol)
 Warning -- explicit consideration of  12 degrees of freedom as
           vibrations may cause significant error
 Vibrational temperatures:    102.80   242.79   319.74   352.62   406.15
          (Kelvin)            437.37   442.57   499.85   573.96   609.67
                              717.65   734.16   946.20  1002.64  1101.77
                             1232.60  1241.38  1308.82  1326.12  1400.47
                             1417.43  1476.96  1570.53  1703.74  1745.05
                             1807.11  1890.31  1958.73  2023.58  2056.86
                             2059.03  2150.37  2156.80  2185.45  2188.03
                             2380.50  2514.48  4349.15  4380.54  4443.37
                             4482.12  4490.44  4529.96  4592.26  4745.74
                             5008.76  5136.59  5533.39

 Zero-point correction=                           0.158304 (Hartree/Particle)
 Thermal correction to Energy=                    0.167040
 Thermal correction to Enthalpy=                  0.167985
 Thermal correction to Gibbs Free Energy=         0.126066
 Sum of electronic and zero-point Energies=           -326.959289
 Sum of electronic and thermal Energies=              -326.950552
 Sum of electronic and thermal Enthalpies=            -326.949608
 Sum of electronic and thermal Free Energies=         -326.991526

                     E (Thermal)             CV                S
                      KCal/Mol        Cal/Mol-Kelvin    Cal/Mol-Kelvin
 Total                  104.819             32.844             88.224
 Electronic               0.000              0.000              0.000
 Translational            0.889              2.981             39.750
 Rotational               0.889              2.981             27.480
 Vibrational            103.042             26.882             20.994
 Vibration     1          0.598              1.968              4.113
 Vibration     2          0.625              1.881              2.449
 Vibration     3          0.648              1.807              1.941
 Vibration     4          0.660              1.771              1.766
 Vibration     5          0.681              1.706              1.520
 Vibration     6          0.695              1.666              1.395
 Vibration     7          0.697              1.659              1.375
 Vibration     8          0.725              1.581              1.178
 Vibration     9          0.765              1.472              0.967
 Vibration    10          0.786              1.419              0.879
 Vibration    11          0.854              1.253              0.661
 Vibration    12          0.865              1.227              0.633

 Optimization completed.
    -- Stationary point found.
 Normal termination of Gaussian 09 at Thu Sep  8 15:23:49 2022.
