 Gaussian 09, Revision E.01,
 Gaussian 09:  ES64L-G09RevE.01 30-Nov-2015

 ----------------------------
 #P OPT Freq B3LYP/6-31G(d,p)
 ----------------------------

 --------
 Frag_967
 --------
 Symbolic Z-matrix:
 Charge =  0 Multiplicity = 1

 SCF Done:  E(RB3LYP) =  -230.178328004     A.U. after   13 cycles
 SCF Done:  E(RB3LYP) =  -230.178399976     A.U. after   11 cycles
 SCF Done:  E(RB3LYP) =  -230.178413014     A.U. after    9 cycles
 SCF Done:  E(RB3LYP) =  -230.178414464     A.U. after    8 cycles
 Optimization completed.
    -- Stationary point found.
 Normal termination of Gaussian 09 at Thu Sep  8 14:58:08 2022.

 ----------------------------------------------------------------------
 #P Geom=AllCheck Guess=TCheck SCRF=Check GenChk RB3LYP/6-31G(d,p) Freq
 ----------------------------------------------------------------------

 Structure from the checkpoint file:  "B3LYP6-31Gdp.Frag_967.chk"
 --------
 Frag_967
 --------
 Charge =  0 Multiplicity = 1

                         Standard orientation:
 ---------------------------------------------------------------------
 Center     Atomic      Atomic             Coordinates (Angstroms)
 Number     Number       Type             X           Y           Z
 ---------------------------------------------------------------------
      1          6           0       -1.498931   -0.508225   -0.090167
      2          6           0       -0.554008    0.624252    0.284486
      3          8           0        0.696568    0.567780   -0.400308
      4          8           0        1.395936   -0.616095    0.084856
      5          1           0       -2.456793   -0.390030    0.427705
      6          1           0       -1.069958   -1.472221    0.192830
      7          1           0       -1.684134   -0.512972   -1.168146
      8          1           0       -0.381378    0.658739    1.369401
      9          1           0       -0.954303    1.596238   -0.029720
     10          1           0        2.124163   -0.189389    0.565641
 ---------------------------------------------------------------------

 SCF Done:  E(RB3LYP) =  -230.178414464     A.U. after    1 cycles

 The electronic state is 1-A.
 Alpha  occ. eigenvalues --  -19.19853 -19.19623 -10.23542 -10.17508  -1.10683
 Alpha  occ. eigenvalues --   -0.90721  -0.73829  -0.61539  -0.51291  -0.47590
 Alpha  occ. eigenvalues --   -0.46338  -0.40234  -0.39471  -0.37712  -0.34057
 Alpha  occ. eigenvalues --   -0.29466  -0.25892
 Alpha virt. eigenvalues --    0.02985   0.08404   0.12011   0.14486   0.15534
 Alpha virt. eigenvalues --    0.16494   0.19323   0.20615   0.24256   0.51422
 Alpha virt. eigenvalues --    0.54222   0.56345   0.56752   0.64611   0.67082

 Mulliken charges:
               1
     1  C   -0.327128
     2  C    0.078526
     3  O   -0.301224
     4  O   -0.330671
     5  H    0.099997
     6  H    0.133167
     7  H    0.118042
     8  H    0.088349
     9  H    0.109397
    10  H    0.331544
 Sum of Mulliken charges =  -0.00000

 Dipole moment (field-independent basis, Debye):
    X=             -0.2975    Y=              0.6879    Z=              1.5330  Tot=              1.7064
 Quadrupole moment (field-independent basis, Debye-Ang):
   XX=            -20.7273   YY=            -25.4039   ZZ=            -24.6816
   XY=             -0.1007   XZ=              2.5899   YZ=              0.2849

  Exact polarizability:  37.259  -2.963  30.612   1.940  -0.388  27.366
 Approx polarizability:  45.794  -6.209  43.972   2.207  -2.750  37.769

                      1                      2                      3
                      A                      A                      A
 Frequencies --    156.0478               211.2093               238.8748
 Red. masses --      2.4129                 1.0913                 1.2742
 Frc consts  --      0.0346                 0.0287                 0.0428
 IR Inten    --      7.1714               106.4839                 7.9495

                      4                      5                      6
                      A                      A                      A
 Frequencies --    370.0784               502.9966               798.8094
 Red. masses --      2.5486                 2.9388                 1.2489
 Frc consts  --      0.2057                 0.4381                 0.4695
 IR Inten    --      5.6345                 5.8006                 3.0890

                      7                      8                      9
                      A                      A                      A
 Frequencies --    869.1817               919.1210              1057.2776
 Red. masses --      2.8097                 3.6614                 3.4975
 Frc consts  --      1.2506                 1.8224                 2.3035
 IR Inten    --     10.1089                 6.0780                23.6990

                     10                     11                     12
                      A                      A                      A
 Frequencies --   1113.7936              1195.7361              1319.7284
 Red. masses --      1.9351                 1.8099                 1.1163
 Frc consts  --      1.4144                 1.5246                 1.1455
 IR Inten    --      8.5386                 5.4382                 1.8008

                     13                     14                     15
                      A                      A                      A
 Frequencies --   1361.2921              1398.6528              1425.9205
 Red. masses --      1.1207                 1.2441                 1.3115
 Frc consts  --      1.2236                 1.4340                 1.5712
 IR Inten    --     37.6529                24.5489                30.7500

                     16                     17                     18
                      A                      A                      A
 Frequencies --   1484.7620              1498.8544              1521.2278
 Red. masses --      1.0919                 1.0427                 1.0543
 Frc consts  --      1.4182                 1.3802                 1.4375
 IR Inten    --      0.5607                 4.7460                 2.6536

                     19                     20                     21
                      A                      A                      A
 Frequencies --   3019.1073              3054.1378              3078.2148
 Red. masses --      1.0625                 1.0370                 1.1014
 Frc consts  --      5.7061                 5.6991                 6.1488
 IR Inten    --     50.3824                15.2692                20.2067

                     22                     23                     24
                      A                      A                      A
 Frequencies --   3125.8069              3148.0429              3752.0583
 Red. masses --      1.1013                 1.1030                 1.0687
 Frc consts  --      6.3397                 6.4401                 8.8646
 IR Inten    --     28.1769                20.3878                23.3199

 - Thermochemistry -
 -------------------
 Temperature   298.150 Kelvin.  Pressure   1.00000 Atm.
 Atom     1 has atomic number  6 and mass  12.00000

 Molecular mass:    62.03678 amu.
 Principal axes and moments of inertia in atomic units:
                           1         2         3
     Eigenvalues --   114.73020 330.24268 391.70198
           X            0.99966   0.01922   0.01772
           Y           -0.02013   0.99842   0.05244
           Z           -0.01668  -0.05278   0.99847
 This molecule is an asymmetric top.
 Rotational symmetry number  1.
 Rotational temperatures (Kelvin)      0.75493     0.26227     0.22112
 Rotational constants (GHZ):          15.73031     5.46489     4.60743
 Zero-point vibrational energy     219041.8 (Joules/Mol)
                                   52.35225 (Kcal/Mol)
 Warning -- explicit consideration of   5 degrees of freedom as
           vibrations may cause significant error
 Vibrational temperatures:    224.52   303.88   343.69   532.46   723.70
          (Kelvin)           1149.31  1250.56  1322.41  1521.18  1602.50
                             1720.40  1898.79  1958.59  2012.35  2051.58
                             2136.24  2156.51  2188.70  4343.82  4394.22
                             4428.86  4497.33  4529.33  5398.37

 Zero-point correction=                           0.083429 (Hartree/Particle)
 Thermal correction to Energy=                    0.088809
 Thermal correction to Enthalpy=                  0.089753
 Thermal correction to Gibbs Free Energy=         0.055799
 Sum of electronic and zero-point Energies=           -230.094986
 Sum of electronic and thermal Energies=              -230.089606
 Sum of electronic and thermal Enthalpies=            -230.088661
 Sum of electronic and thermal Free Energies=         -230.122616

                     E (Thermal)             CV                S
                      KCal/Mol        Cal/Mol-Kelvin    Cal/Mol-Kelvin
 Total                   55.728             17.392             71.463
 Electronic               0.000              0.000              0.000
 Translational            0.889              2.981             38.295
 Rotational               0.889              2.981             24.210
 Vibrational             53.951             11.430              8.958
 Vibration     1          0.620              1.896              2.597
 Vibration     2          0.643              1.824              2.033
 Vibration     3          0.657              1.781              1.811
 Vibration     4          0.742              1.534              1.079
 Vibration     5          0.858              1.243              0.651

 Normal termination of Gaussian 09 at Thu Sep  8 14:58:15 2022.
