 Gaussian 09, Revision E.01,
 Gaussian 09:  ES64L-G09RevE.01 30-Nov-2015

 ----------------------------
 #P OPT Freq B3LYP/6-31G(d,p)
 ----------------------------

 --------
 Frag_651
 --------
 Symbolic Z-matrix:
 Charge =  0 Multiplicity = 1

 SCF Done:  E(RB3LYP) =  -322.549026196     A.U. after   15 cycles
 SCF Done:  E(RB3LYP) =  -322.549181374     A.U. after    9 cycles
 SCF Done:  E(RB3LYP) =  -322.549188676     A.U. after   10 cycles
 SCF Done:  E(RB3LYP) =  -322.549165826     A.U. after   12 cycles
 SCF Done:  E(RB3LYP) =  -322.549190833     A.U. after   10 cycles
 Optimization completed.
    -- Stationary point found.
 Normal termination of Gaussian 09 at Thu Sep  8 15:23:47 2022.

 ----------------------------------------------------------------------
 #P Geom=AllCheck Guess=TCheck SCRF=Check GenChk RB3LYP/6-31G(d,p) Freq
 ----------------------------------------------------------------------

 Structure from the checkpoint file:  "B3LYP6-31Gdp.Frag_651.chk"
 --------
 Frag_651
 --------
 Charge =  0 Multiplicity = 1

                         Standard orientation:
 ---------------------------------------------------------------------
 Center     Atomic      Atomic             Coordinates (Angstroms)
 Number     Number       Type             X           Y           Z
 ---------------------------------------------------------------------
      1          6           0       -1.811801   -0.685299    0.000179
      2          6           0       -0.685514    0.310193   -0.000030
      3          8           0       -0.834066    1.518666   -0.000180
      4          6           0        0.742570   -0.290022   -0.000187
      5          7           0        1.701428    0.663521    0.000189
      6          8           0        0.927528   -1.499180   -0.000131
      7          1           0       -1.728772   -1.339001    0.874349
      8          1           0       -1.728958   -1.339158   -0.873893
      9          1           0       -2.768786   -0.163462    0.000233
     10          1           0        2.673156    0.397875    0.000357
     11          1           0        1.424125    1.633977    0.000348
 ---------------------------------------------------------------------

 SCF Done:  E(RB3LYP) =  -322.549190833     A.U. after    1 cycles

 The electronic state is 1-A.
 Alpha  occ. eigenvalues --  -19.16673 -19.12912 -14.36827 -10.29867 -10.29501
 Alpha  occ. eigenvalues --  -10.19619  -1.06819  -1.03875  -0.91617  -0.75948
 Alpha  occ. eigenvalues --   -0.65823  -0.56814  -0.54006  -0.48340  -0.46100
 Alpha  occ. eigenvalues --   -0.44676  -0.42681  -0.40638  -0.39679  -0.36761
 Alpha  occ. eigenvalues --   -0.31157  -0.27994  -0.24379
 Alpha virt. eigenvalues --   -0.06609   0.07216   0.08292   0.11481   0.13674
 Alpha virt. eigenvalues --    0.15329   0.17443   0.22214   0.26389   0.29676
 Alpha virt. eigenvalues --    0.32704   0.37066   0.51495   0.53252   0.56351

 Mulliken charges:
               1
     1  C   -0.375744
     2  C    0.378741
     3  O   -0.444143
     4  C    0.521496
     5  N   -0.598004
     6  O   -0.497219
     7  H    0.151998
     8  H    0.152007
     9  H    0.133021
    10  H    0.283044
    11  H    0.294803
 Sum of Mulliken charges =  -0.00000

 Dipole moment (field-independent basis, Debye):
    X=              0.6028    Y=              1.0181    Z=              0.0009  Tot=              1.1832
 Quadrupole moment (field-independent basis, Debye-Ang):
   XX=            -27.9761   YY=            -39.9932   ZZ=            -33.8664
   XY=              7.3093   XZ=              0.0012   YZ=              0.0009

  Exact polarizability:  47.738   3.365  51.024   0.002   0.001  24.679
 Approx polarizability:  57.797   2.499  93.390   0.003   0.000  35.710

                      1                      2                      3
                      A                      A                      A
 Frequencies --     65.4073               109.7135               258.0433
 Red. masses --      2.7141                 1.3389                 3.7113
 Frc consts  --      0.0068                 0.0095                 0.1456
 IR Inten    --      4.9453                 0.0016                24.7974

                      4                      5                      6
                      A                      A                      A
 Frequencies --    321.4218               387.7952               413.3885
 Red. masses --      1.2368                 3.5460                 3.0063
 Frc consts  --      0.0753                 0.3142                 0.3027
 IR Inten    --    153.9209                 2.2486               105.7622

                      7                      8                      9
                      A                      A                      A
 Frequencies --    520.6698               558.9072               636.3184
 Red. masses --      6.1433                 3.2563                 1.1772
 Frc consts  --      0.9812                 0.5993                 0.2808
 IR Inten    --      3.0476                29.0383                 0.3122

                     10                     11                     12
                      A                      A                      A
 Frequencies --    722.1331               729.5335               977.6582
 Red. masses --      3.3034                 2.5386                 1.9367
 Frc consts  --      1.0150                 0.7960                 1.0906
 IR Inten    --      0.0713                 2.7180                 9.1123

                     13                     14                     15
                      A                      A                      A
 Frequencies --   1030.6491              1096.7712              1197.2998
 Red. masses --      1.9252                 1.9412                 2.7581
 Frc consts  --      1.2049                 1.3758                 2.3296
 IR Inten    --      3.2147                 4.1175               109.1738

                     16                     17                     18
                      A                      A                      A
 Frequencies --   1372.2799              1405.5778              1465.7538
 Red. masses --      2.1573                 1.6583                 1.0550
 Frc consts  --      2.3936                 1.9303                 1.3354
 IR Inten    --     30.0337                21.4793                14.0678

                     19                     20                     21
                      A                      A                      A
 Frequencies --   1470.8537              1596.6025              1801.0292
 Red. masses --      1.0490                 1.3774                11.9067
 Frc consts  --      1.3371                 2.0687                22.7553
 IR Inten    --      8.8611               137.1446               357.8815

                     22                     23                     24
                      A                      A                      A
 Frequencies --   1817.9231              3061.4598              3123.7044
 Red. masses --      9.2300                 1.0359                 1.0981
 Frc consts  --     17.9722                 5.7204                 6.3127
 IR Inten    --     26.7435                 0.0830                 1.8903

                     25                     26                     27
                      A                      A                      A
 Frequencies --   3176.4805              3598.4374              3744.7016
 Red. masses --      1.1055                 1.0441                 1.1062
 Frc consts  --      6.5719                 7.9655                 9.1394
 IR Inten    --      7.6505                50.8934                73.3235

 - Thermochemistry -
 -------------------
 Temperature   298.150 Kelvin.  Pressure   1.00000 Atm.
 Atom     1 has atomic number  6 and mass  12.00000

 Molecular mass:    87.03203 amu.
 Principal axes and moments of inertia in atomic units:
                           1         2         3
     Eigenvalues --   333.39658 510.75048 833.14721
           X            0.98512   0.17189   0.00000
           Y           -0.17189   0.98512   0.00000
           Z           -0.00000  -0.00000   1.00000
 This molecule is an asymmetric top.
 Rotational symmetry number  1.
 Rotational temperatures (Kelvin)      0.25979     0.16958     0.10396
 Rotational constants (GHZ):           5.41320     3.53351     2.16617
 Zero-point vibrational energy     219278.6 (Joules/Mol)
                                   52.40884 (Kcal/Mol)
 Warning -- explicit consideration of   8 degrees of freedom as
           vibrations may cause significant error
 Vibrational temperatures:     94.11   157.85   371.27   462.45   557.95
          (Kelvin)            594.77   749.13   804.14   915.52  1038.99
                             1049.63  1406.63  1482.87  1578.01  1722.65
                             1974.40  2022.31  2108.89  2116.23  2297.15
                             2591.28  2615.58  4404.75  4494.31  4570.24
                             5177.34  5387.78

 Zero-point correction=                           0.083519 (Hartree/Particle)
 Thermal correction to Energy=                    0.090245
 Thermal correction to Enthalpy=                  0.091190
 Thermal correction to Gibbs Free Energy=         0.052862
 Sum of electronic and zero-point Energies=           -322.465672
 Sum of electronic and thermal Energies=              -322.458945
 Sum of electronic and thermal Enthalpies=            -322.458001
 Sum of electronic and thermal Free Energies=         -322.496329

                     E (Thermal)             CV                S
                      KCal/Mol        Cal/Mol-Kelvin    Cal/Mol-Kelvin
 Total                   56.630             22.761             80.668
 Electronic               0.000              0.000              0.000
 Translational            0.889              2.981             39.304
 Rotational               0.889              2.981             26.453
 Vibrational             54.852             16.799             14.910
 Vibration     1          0.597              1.971              4.287
 Vibration     2          0.606              1.941              3.274
 Vibration     3          0.667              1.749              1.675
 Vibration     4          0.707              1.633              1.303
 Vibration     5          0.756              1.496              1.009
 Vibration     6          0.777              1.441              0.915
 Vibration     7          0.876              1.204              0.608
 Vibration     8          0.914              1.120              0.526

 Optimization completed.
    -- Stationary point found.
 Normal termination of Gaussian 09 at Thu Sep  8 15:23:56 2022.
