 Gaussian 09, Revision E.01,
 Gaussian 09:  ES64L-G09RevE.01 30-Nov-2015

 --------------------------------
 #P OPT=calcfc Freq B3LYP/6-31G**
 --------------------------------

 --------
 Frag_326
 --------
 Symbolic Z-matrix:
 Charge =  0 Multiplicity = 1

 SCF Done:  E(RB3LYP) =  -228.580005667     A.U. after   13 cycles
 SCF Done:  E(RB3LYP) =  -228.588061880     A.U. after   13 cycles
 SCF Done:  E(RB3LYP) =  -228.588974453     A.U. after   13 cycles
 SCF Done:  E(RB3LYP) =  -228.590833167     A.U. after   14 cycles
 SCF Done:  E(RB3LYP) =  -228.544695859     A.U. after   14 cycles
 SCF Done:  E(RB3LYP) =  -228.590893501     A.U. after    9 cycles
 SCF Done:  E(RB3LYP) =  -228.591094160     A.U. after   11 cycles
 SCF Done:  E(RB3LYP) =  -228.591151993     A.U. after   11 cycles
 SCF Done:  E(RB3LYP) =  -228.591221564     A.U. after   11 cycles
 SCF Done:  E(RB3LYP) =  -228.591330635     A.U. after   11 cycles
 SCF Done:  E(RB3LYP) =  -228.591530061     A.U. after   11 cycles
 SCF Done:  E(RB3LYP) =  -228.591688034     A.U. after   11 cycles
 SCF Done:  E(RB3LYP) =  -228.591884033     A.U. after   11 cycles
 SCF Done:  E(RB3LYP) =  -228.592012041     A.U. after   11 cycles
 SCF Done:  E(RB3LYP) =  -228.592085779     A.U. after   11 cycles
 SCF Done:  E(RB3LYP) =  -228.592109980     A.U. after   10 cycles
 SCF Done:  E(RB3LYP) =  -228.592113640     A.U. after    8 cycles
 SCF Done:  E(RB3LYP) =  -228.592114298     A.U. after    8 cycles
 SCF Done:  E(RB3LYP) =  -228.592114356     A.U. after    6 cycles
 Optimization completed.
    -- Stationary point found.
 Normal termination of Gaussian 09 at Fri Sep 10 17:37:09 2021.

 ----------------------------------------------------------------------
 #P Geom=AllCheck Guess=TCheck SCRF=Check GenChk RB3LYP/6-31G(d,p) Freq
 ----------------------------------------------------------------------

 Structure from the checkpoint file:  "/public/home/users/caep010/.cache/gau_scr/Gau-90176.chk"
 --------
 Frag_326
 --------
 Charge =  0 Multiplicity = 1

                         Standard orientation:
 ---------------------------------------------------------------------
 Center     Atomic      Atomic             Coordinates (Angstroms)
 Number     Number       Type             X           Y           Z
 ---------------------------------------------------------------------
      1          6           0        1.884907   -0.196759   -0.081484
      2          7           0        0.740391   -0.755414    0.080683
      3          7           0       -0.384472   -0.014317    0.262107
      4          6           0       -1.591207   -0.742469   -0.101661
      5          6           0       -0.371290    1.409108   -0.028201
      6          1           0        2.066252    0.877893   -0.126528
      7          1           0        2.741995   -0.858241   -0.161452
      8          1           0       -1.784519   -0.735887   -1.186732
      9          1           0       -2.454083   -0.303010    0.407777
     10          1           0       -1.472469   -1.777209    0.221613
     11          1           0        0.318888    1.931046    0.642756
     12          1           0       -0.069514    1.623686   -1.067586
     13          1           0       -1.372441    1.810555    0.138699
 ---------------------------------------------------------------------

 SCF Done:  E(RB3LYP) =  -228.592114356     A.U. after    1 cycles

 The electronic state is 1-A.
 Alpha  occ. eigenvalues --  -14.37020 -14.35487 -10.21526 -10.20842 -10.19717
 Alpha  occ. eigenvalues --   -0.99882  -0.83079  -0.72381  -0.66766  -0.55667
 Alpha  occ. eigenvalues --   -0.50685  -0.48055  -0.46572  -0.41410  -0.40338
 Alpha  occ. eigenvalues --   -0.39388  -0.37924  -0.34104  -0.25986  -0.20782
 Alpha virt. eigenvalues --    0.01917   0.09443   0.12404   0.13884   0.14581
 Alpha virt. eigenvalues --    0.15775   0.17068   0.17881   0.18844   0.21567
 Alpha virt. eigenvalues --    0.23859   0.26786   0.35251   0.50038   0.51724

 Mulliken charges:
               1
     1  C   -0.094015
     2  N   -0.188654
     3  N   -0.261498
     4  C   -0.149669
     5  C   -0.176595
     6  H    0.080794
     7  H    0.103220
     8  H    0.099079
     9  H    0.106320
    10  H    0.135530
    11  H    0.124392
    12  H    0.106110
    13  H    0.114986
 Sum of Mulliken charges =   0.00000

 Dipole moment (field-independent basis, Debye):
    X=             -0.8635    Y=              1.6069    Z=             -0.4751  Tot=              1.8851
 Quadrupole moment (field-independent basis, Debye-Ang):
   XX=            -28.4041   YY=            -31.3476   ZZ=            -33.2900
   XY=              1.0532   XZ=             -0.1161   YZ=              0.2767

  Exact polarizability:  67.756  -0.441  46.086  -1.394  -0.162  32.364
 Approx polarizability:  97.958   1.621  62.756  -5.376  -0.910  46.395

                      1                      2                      3
                      A                      A                      A
 Frequencies --    172.8559               218.5812               247.9710
 Red. masses --      1.9313                 1.1659                 1.2823
 Frc consts  --      0.0340                 0.0328                 0.0465
 IR Inten    --      9.8705                 3.7157                 2.7887

                      4                      5                      6
                      A                      A                      A
 Frequencies --    294.3818               361.8592               430.0188
 Red. masses --      2.2807                 2.3080                 2.1348
 Frc consts  --      0.1164                 0.1781                 0.2326
 IR Inten    --      5.6161                 1.0211                 1.5863

                      7                      8                      9
                      A                      A                      A
 Frequencies --    596.6550               788.1395               802.7407
 Red. masses --      2.8460                 1.2778                 3.8127
 Frc consts  --      0.5969                 0.4676                 1.4476
 IR Inten    --     14.7754                 0.9691                13.2722

                     10                     11                     12
                      A                      A                      A
 Frequencies --    894.9631              1042.0871              1059.4007
 Red. masses --      1.3872                 2.1210                 1.5407
 Frc consts  --      0.6546                 1.3571                 1.0188
 IR Inten    --     35.9799                62.7144                16.4568

                     13                     14                     15
                      A                      A                      A
 Frequencies --   1122.2876              1163.8423              1202.9125
 Red. masses --      1.2488                 1.3811                 1.6101
 Frc consts  --      0.9267                 1.1022                 1.3727
 IR Inten    --      2.2706                24.8471                13.7871

                     16                     17                     18
                      A                      A                      A
 Frequencies --   1307.1622              1323.5860              1440.0570
 Red. masses --      2.7383                 3.3905                 1.1731
 Frc consts  --      2.7567                 3.4996                 1.4334
 IR Inten    --     22.2068                 9.9509                 1.2342

                     19                     20                     21
                      A                      A                      A
 Frequencies --   1458.8834              1491.2005              1494.9497
 Red. masses --      1.2015                 1.0838                 1.0641
 Frc consts  --      1.5067                 1.4199                 1.4011
 IR Inten    --      6.5746                 8.6551                 9.2759

                     22                     23                     24
                      A                      A                      A
 Frequencies --   1507.3556              1522.2803              1532.1561
 Red. masses --      1.1149                 1.0620                 1.0879
 Frc consts  --      1.4925                 1.4499                 1.5047
 IR Inten    --      6.4380                 7.9131                21.4335

                     25                     26                     27
                      A                      A                      A
 Frequencies --   1673.5317              2974.6503              2986.4397
 Red. masses --      4.7655                 1.0541                 1.0563
 Frc consts  --      7.8637                 5.4954                 5.5505
 IR Inten    --     38.3479                39.4920               102.5854

                     28                     29                     30
                      A                      A                      A
 Frequencies --   3078.8513              3089.2572              3108.3685
 Red. masses --      1.0825                 1.0825                 1.0577
 Frc consts  --      6.0459                 6.0867                 6.0210
 IR Inten    --     22.7298                37.4905                20.0423

                     31                     32                     33
                      A                      A                      A
 Frequencies --   3141.6317              3159.5485              3219.2993
 Red. masses --      1.0996                 1.1003                 1.1128
 Frc consts  --      6.3942                 6.4718                 6.7952
 IR Inten    --     15.8749                12.3015                21.0969

 - Thermochemistry -
 -------------------
 Temperature   298.150 Kelvin.  Pressure   1.00000 Atm.
 Atom     1 has atomic number  6 and mass  12.00000

 Molecular mass:    72.06875 amu.
 Principal axes and moments of inertia in atomic units:
                           1         2         3
     Eigenvalues --   208.21081 408.17386 584.16283
           X            0.99932   0.03691   0.00200
           Y           -0.03692   0.99932   0.00214
           Z           -0.00192  -0.00221   1.00000
 This molecule is an asymmetric top.
 Rotational symmetry number  1.
 Rotational temperatures (Kelvin)      0.41599     0.21220     0.14827
 Rotational constants (GHZ):           8.66786     4.42150     3.08945
 Zero-point vibrational energy     298515.6 (Joules/Mol)
                                   71.34693 (Kcal/Mol)
 Warning -- explicit consideration of   7 degrees of freedom as
           vibrations may cause significant error
 Vibrational temperatures:    248.70   314.49   356.77   423.55   520.63
          (Kelvin)            618.70   858.45  1133.96  1154.96  1287.65
                             1499.33  1524.24  1614.72  1674.51  1730.72
                             1880.71  1904.34  2071.92  2099.01  2145.50
                             2150.90  2168.75  2190.22  2204.43  2407.84
                             4279.85  4296.82  4429.77  4444.75  4472.24
                             4520.10  4545.88  4631.85

 Zero-point correction=                           0.113699 (Hartree/Particle)
 Thermal correction to Energy=                    0.119769
 Thermal correction to Enthalpy=                  0.120713
 Thermal correction to Gibbs Free Energy=         0.085005
 Sum of electronic and zero-point Energies=           -228.478416
 Sum of electronic and thermal Energies=              -228.472345
 Sum of electronic and thermal Enthalpies=            -228.471401
 Sum of electronic and thermal Free Energies=         -228.507109

                     E (Thermal)             CV                S
                      KCal/Mol        Cal/Mol-Kelvin    Cal/Mol-Kelvin
 Total                   75.156             21.127             75.154
 Electronic               0.000              0.000              0.000
 Translational            0.889              2.981             38.742
 Rotational               0.889              2.981             25.410
 Vibrational             73.379             15.166             11.002
 Vibration     1          0.626              1.876              2.404
 Vibration     2          0.646              1.813              1.971
 Vibration     3          0.662              1.766              1.745
 Vibration     4          0.689              1.684              1.449
 Vibration     5          0.736              1.551              1.114
 Vibration     6          0.791              1.405              0.859
 Vibration     7          0.954              1.039              0.455

 Optimization completed.
    -- Stationary point found.
 Normal termination of Gaussian 09 at Fri Sep 10 17:37:18 2021.
