 Gaussian 09, Revision E.01,
 Gaussian 09:  ES64L-G09RevE.01 30-Nov-2015

 -------------------------
 #P OPT Freq B3LYP/6-31G**
 -------------------------

 --------
 Frag_174
 --------
 Symbolic Z-matrix:
 Charge =  0 Multiplicity = 1

 SCF Done:  E(RB3LYP) =  -210.339068251     A.U. after   12 cycles
 SCF Done:  E(RB3LYP) =  -210.341911318     A.U. after   11 cycles
 SCF Done:  E(RB3LYP) =  -210.342318414     A.U. after    9 cycles
 SCF Done:  E(RB3LYP) =  -210.342360539     A.U. after    9 cycles
 SCF Done:  E(RB3LYP) =  -210.342363825     A.U. after    8 cycles
 Optimization completed.
    -- Stationary point found.
 Normal termination of Gaussian 09 at Sat Aug 21 01:37:50 2021.

 ----------------------------------------------------------------------
 #P Geom=AllCheck Guess=TCheck SCRF=Check GenChk RB3LYP/6-31G(d,p) Freq
 ----------------------------------------------------------------------

 Structure from the checkpoint file:  "/public/home/users/caep010/.cache/gau_scr/Gau-16037.chk"
 --------
 Frag_174
 --------
 Charge =  0 Multiplicity = 1

                         Standard orientation:
 ---------------------------------------------------------------------
 Center     Atomic      Atomic             Coordinates (Angstroms)
 Number     Number       Type             X           Y           Z
 ---------------------------------------------------------------------
      1          6           0        1.212112   -0.627325    0.078107
      2          7           0        0.000000   -0.000673   -0.423822
      3          6           0       -1.212110   -0.627329    0.078107
      4          8           0       -0.000002    1.366935   -0.017040
      5          1           0        1.263673   -0.634069    1.185359
      6          1           0        2.076911   -0.086450   -0.310575
      7          1           0        1.252515   -1.662715   -0.273309
      8          1           0       -1.252510   -1.662718   -0.273309
      9          1           0       -2.076910   -0.086455   -0.310573
     10          1           0       -1.263671   -0.634074    1.185359
     11          1           0       -0.000001    1.363646    0.962835
 ---------------------------------------------------------------------

 SCF Done:  E(RB3LYP) =  -210.342363825     A.U. after    1 cycles

 The electronic state is 1-A.
 Alpha  occ. eigenvalues --  -19.16773 -14.37662 -10.20902 -10.20901  -1.05896
 Alpha  occ. eigenvalues --   -0.84894  -0.71537  -0.62543  -0.51379  -0.46894
 Alpha  occ. eigenvalues --   -0.46560  -0.42165  -0.40223  -0.37469  -0.35664
 Alpha  occ. eigenvalues --   -0.28317  -0.23127
 Alpha virt. eigenvalues --    0.06457   0.10407   0.13299   0.14685   0.15494
 Alpha virt. eigenvalues --    0.16202   0.18238   0.18744   0.21264   0.24504
 Alpha virt. eigenvalues --    0.50260   0.54162   0.55107   0.57699   0.58814

 Mulliken charges:
               1
     1  C   -0.157520
     2  N   -0.170623
     3  C   -0.157520
     4  O   -0.427973
     5  H    0.068346
     6  H    0.132759
     7  H    0.113594
     8  H    0.113594
     9  H    0.132759
    10  H    0.068346
    11  H    0.284238
 Sum of Mulliken charges =  -0.00000

 Dipole moment (field-independent basis, Debye):
    X=              0.0000    Y=             -1.5414    Z=              1.9355  Tot=              2.4743
 Quadrupole moment (field-independent basis, Debye-Ang):
   XX=            -23.8978   YY=            -26.5344   ZZ=            -26.0285
   XY=              0.0000   XZ=             -0.0000   YZ=              2.4234

  Exact polarizability:  36.121  -0.000  37.123  -0.000   1.857  32.220
 Approx polarizability:  43.327  -0.000  51.797  -0.000   2.209  47.211

                      1                      2                      3
                      A                      A                      A
 Frequencies --    277.1965               297.6468               398.7886
 Red. masses --      1.0317                 1.0913                 2.1915
 Frc consts  --      0.0467                 0.0570                 0.2053
 IR Inten    --      0.1769                 1.9738                 5.4468

                      4                      5                      6
                      A                      A                      A
 Frequencies --    420.4004               439.7819               492.3336
 Red. masses --      1.2959                 2.3976                 2.2182
 Frc consts  --      0.1349                 0.2732                 0.3168
 IR Inten    --     35.7671                 3.3438                71.9388

                      7                      8                      9
                      A                      A                      A
 Frequencies --    819.6131              1003.4211              1020.7547
 Red. masses --      5.5549                 3.5514                 1.6122
 Frc consts  --      2.1986                 2.1068                 0.9897
 IR Inten    --     33.6994                 4.4360                 8.3925

                     10                     11                     12
                      A                      A                      A
 Frequencies --   1121.0493              1174.3282              1244.1074
 Red. masses --      1.2413                 1.4143                 1.8693
 Frc consts  --      0.9191                 1.1492                 1.7047
 IR Inten    --      2.2405                 7.1407                 9.1093

                     13                     14                     15
                      A                      A                      A
 Frequencies --   1267.5763              1406.7663              1441.6083
 Red. masses --      3.4569                 1.1899                 1.1845
 Frc consts  --      3.2725                 1.3874                 1.4504
 IR Inten    --      3.3744                30.3349                 0.8950

                     16                     17                     18
                      A                      A                      A
 Frequencies --   1465.9892              1488.8621              1501.9850
 Red. masses --      1.1782                 1.0545                 1.0467
 Frc consts  --      1.4919                 1.3772                 1.3913
 IR Inten    --      0.4069                13.0868                 0.0278

                     19                     20                     21
                      A                      A                      A
 Frequencies --   1503.8490              1524.5878              2917.0985
 Red. masses --      1.0572                 1.0697                 1.0612
 Frc consts  --      1.4087                 1.4650                 5.3204
 IR Inten    --     14.8323                20.5646                31.0473

                     22                     23                     24
                      A                      A                      A
 Frequencies --   2929.2259              3087.8008              3094.6882
 Red. masses --      1.0604                 1.0729                 1.0716
 Frc consts  --      5.3610                 6.0269                 6.0466
 IR Inten    --    127.9521                11.0179                39.7831

                     25                     26                     27
                      A                      A                      A
 Frequencies --   3147.3287              3149.6848              3565.4366
 Red. masses --      1.1023                 1.1038                 1.0671
 Frc consts  --      6.4333                 6.4518                 7.9927
 IR Inten    --     16.1107                18.1268                 9.5022

 - Thermochemistry -
 -------------------
 Temperature   298.150 Kelvin.  Pressure   1.00000 Atm.
 Atom     1 has atomic number  6 and mass  12.00000

 Molecular mass:    61.05276 amu.
 Principal axes and moments of inertia in atomic units:
                           1         2         3
     Eigenvalues --   193.26535 203.65200 349.12373
           X            1.00000   0.00000  -0.00000
           Y           -0.00000   0.99987   0.01590
           Z            0.00000  -0.01590   0.99987
 This molecule is an asymmetric top.
 Rotational symmetry number  1.
 Rotational temperatures (Kelvin)      0.44816     0.42530     0.24809
 Rotational constants (GHZ):           9.33815     8.86189     5.16935
 Zero-point vibrational energy     252423.5 (Joules/Mol)
                                   60.33066 (Kcal/Mol)
 Warning -- explicit consideration of   6 degrees of freedom as
           vibrations may cause significant error
 Vibrational temperatures:    398.82   428.25   573.77   604.86   632.75
          (Kelvin)            708.36  1179.24  1443.70  1468.64  1612.94
                             1689.59  1789.99  1823.76  2024.02  2074.15
                             2109.23  2142.14  2161.02  2163.70  2193.54
                             4197.05  4214.50  4442.65  4452.56  4528.30
                             4531.69  5129.86

 Zero-point correction=                           0.096143 (Hartree/Particle)
 Thermal correction to Energy=                    0.101201
 Thermal correction to Enthalpy=                  0.102145
 Thermal correction to Gibbs Free Energy=         0.069192
 Sum of electronic and zero-point Energies=           -210.246221
 Sum of electronic and thermal Energies=              -210.241163
 Sum of electronic and thermal Enthalpies=            -210.240218
 Sum of electronic and thermal Free Energies=         -210.273172

                     E (Thermal)             CV                S
                      KCal/Mol        Cal/Mol-Kelvin    Cal/Mol-Kelvin
 Total                   63.505             17.655             69.356
 Electronic               0.000              0.000              0.000
 Translational            0.889              2.981             38.247
 Rotational               0.889              2.981             24.134
 Vibrational             61.727             11.693              6.975
 Vibration     1          0.678              1.716              1.551
 Vibration     2          0.691              1.678              1.430
 Vibration     3          0.765              1.473              0.967
 Vibration     4          0.783              1.426              0.891
 Vibration     5          0.800              1.383              0.827
 Vibration     6          0.848              1.267              0.678

 Normal termination of Gaussian 09 at Sat Aug 21 01:37:57 2021.
