 Gaussian 09, Revision E.01,
 Gaussian 09:  ES64L-G09RevE.01 30-Nov-2015

 ----------------------------
 #P OPT Freq B3LYP/6-31G(d,p)
 ----------------------------

 --------
 Frag_787
 --------
 Symbolic Z-matrix:
 Charge =  0 Multiplicity = 1

 SCF Done:  E(RB3LYP) =  -400.180250349     A.U. after   13 cycles
 SCF Done:  E(RB3LYP) =  -400.180289163     A.U. after   10 cycles
 SCF Done:  E(RB3LYP) =  -400.180204692     A.U. after   10 cycles
 SCF Done:  E(RB3LYP) =  -400.180334076     A.U. after   10 cycles
 SCF Done:  E(RB3LYP) =  -400.180334685     A.U. after    7 cycles
 SCF Done:  E(RB3LYP) =  -400.180334838     A.U. after    6 cycles
 SCF Done:  E(RB3LYP) =  -400.180334868     A.U. after    6 cycles
 Optimization completed.
    -- Stationary point found.
 Normal termination of Gaussian 09 at Thu Sep  8 15:10:50 2022.

 ----------------------------------------------------------------------
 #P Geom=AllCheck Guess=TCheck SCRF=Check GenChk RB3LYP/6-31G(d,p) Freq
 ----------------------------------------------------------------------

 Structure from the checkpoint file:  "B3LYP6-31Gdp.Frag_787.chk"
 --------
 Frag_787
 --------
 Charge =  0 Multiplicity = 1

                         Standard orientation:
 ---------------------------------------------------------------------
 Center     Atomic      Atomic             Coordinates (Angstroms)
 Number     Number       Type             X           Y           Z
 ---------------------------------------------------------------------
      1          6           0       -1.619981   -1.215824   -0.028789
      2          6           0       -0.825457    0.017988   -0.457856
      3          7           0       -1.361197    1.313162    0.000807
      4          6           0        0.649078   -0.024976    0.003932
      5          8           0        1.363729   -1.092586   -0.561752
      6          8           0        1.298299    1.155741   -0.380833
      7          8           0        0.631290   -0.191305    1.393256
      8          1           0       -1.133232   -2.127696   -0.385790
      9          1           0       -2.634745   -1.182231   -0.439852
     10          1           0       -1.684058   -1.271729    1.061465
     11          1           0       -0.785006    0.063408   -1.552764
     12          1           0       -1.522426    1.267779    1.005360
     13          1           0       -2.256080    1.507973   -0.439739
     14          1           0        1.815589   -0.725467   -1.333950
     15          1           0        0.602242    1.838758   -0.304227
     16          1           0        1.557715   -0.200849    1.674759
 ---------------------------------------------------------------------

 SCF Done:  E(RB3LYP) =  -400.180334868     A.U. after    1 cycles

 The electronic state is 1-A.
 Alpha  occ. eigenvalues --  -19.14813 -19.14710 -19.14110 -14.32870 -10.32457
 Alpha  occ. eigenvalues --  -10.21719 -10.17148  -1.09188  -0.99678  -0.99025
 Alpha  occ. eigenvalues --   -0.89196  -0.74083  -0.65946  -0.59258  -0.55315
 Alpha  occ. eigenvalues --   -0.52804  -0.48813  -0.46035  -0.43828  -0.42164
 Alpha  occ. eigenvalues --   -0.39565  -0.38394  -0.36503  -0.34997  -0.33240
 Alpha  occ. eigenvalues --   -0.32117  -0.28323  -0.27596  -0.25254
 Alpha virt. eigenvalues --    0.06816   0.09732   0.11657   0.13111   0.14398
 Alpha virt. eigenvalues --    0.15927   0.16848   0.17963   0.18455   0.21769
 Alpha virt. eigenvalues --    0.23417   0.26092   0.28982   0.29920   0.31351

 Mulliken charges:
               1
     1  C   -0.315778
     2  C    0.018701
     3  N   -0.628922
     4  C    0.691497
     5  O   -0.551855
     6  O   -0.573804
     7  O   -0.528829
     8  H    0.125002
     9  H    0.088089
    10  H    0.120929
    11  H    0.098297
    12  H    0.258975
    13  H    0.246431
    14  H    0.316045
    15  H    0.325729
    16  H    0.309494
 Sum of Mulliken charges =  -0.00000

 Dipole moment (field-independent basis, Debye):
    X=             -1.4553    Y=              0.7017    Z=             -0.5862  Tot=              1.7187
 Quadrupole moment (field-independent basis, Debye-Ang):
   XX=            -37.1511   YY=            -45.0604   ZZ=            -39.1281
   XY=             -2.2371   XZ=              0.8448   YZ=              1.1421

  Exact polarizability:  53.700  -1.230  48.761  -0.257   0.245  46.998
 Approx polarizability:  68.922  -2.830  66.372  -1.856  -0.125  67.758

                      1                      2                      3
                      A                      A                      A
 Frequencies --    106.7391               232.9570               252.5922
 Red. masses --      3.5739                 1.8096                 1.5725
 Frc consts  --      0.0240                 0.0579                 0.0591
 IR Inten    --      4.9800                 3.3008                 5.4261

                      4                      5                      6
                      A                      A                      A
 Frequencies --    260.8443               275.4573               294.6034
 Red. masses --      2.0404                 1.0832                 1.4150
 Frc consts  --      0.0818                 0.0484                 0.0724
 IR Inten    --     32.3285                59.0218                68.9626

                      7                      8                      9
                      A                      A                      A
 Frequencies --    345.2409               352.7203               450.6873
 Red. masses --      1.4158                 2.8206                 3.0145
 Frc consts  --      0.0994                 0.2068                 0.3608
 IR Inten    --     19.9603                 5.9763                28.7760

                     10                     11                     12
                      A                      A                      A
 Frequencies --    473.3333               529.1004               589.4005
 Red. masses --      3.0301                 3.4079                 3.9620
 Frc consts  --      0.4000                 0.5621                 0.8109
 IR Inten    --     11.1667                 6.6690                 2.9888

                     13                     14                     15
                      A                      A                      A
 Frequencies --    624.6980               683.1863               778.3280
 Red. masses --      3.1251                 1.2456                 3.7094
 Frc consts  --      0.7185                 0.3425                 1.3240
 IR Inten    --     16.8627               120.7592                 3.3354

                     16                     17                     18
                      A                      A                      A
 Frequencies --    891.8051               936.8434              1003.4822
 Red. masses --      2.2074                 1.2836                 1.6269
 Frc consts  --      1.0344                 0.6638                 0.9652
 IR Inten    --     82.7203                63.7712                87.5774

                     19                     20                     21
                      A                      A                      A
 Frequencies --   1019.4014              1058.7130              1103.4644
 Red. masses --      2.6868                 1.6555                 3.0568
 Frc consts  --      1.6450                 1.0933                 2.1930
 IR Inten    --     62.7080                96.5725               146.8598

                     22                     23                     24
                      A                      A                      A
 Frequencies --   1140.5419              1185.3303              1246.3457
 Red. masses --      2.3705                 1.9212                 1.8377
 Frc consts  --      1.8168                 1.5904                 1.6819
 IR Inten    --     30.8129               113.5077                78.9154

                     25                     26                     27
                      A                      A                      A
 Frequencies --   1316.6946              1344.5581              1381.0928
 Red. masses --      1.3969                 1.5119                 1.5400
 Frc consts  --      1.4269                 1.6104                 1.7307
 IR Inten    --     38.7297                77.7903                63.9220

                     28                     29                     30
                      A                      A                      A
 Frequencies --   1410.8966              1420.6368              1480.7749
 Red. masses --      1.2727                 1.3085                 1.6989
 Frc consts  --      1.4926                 1.5560                 2.1948
 IR Inten    --     36.0949                 5.3764               185.5015

                     31                     32                     33
                      A                      A                      A
 Frequencies --   1501.7505              1521.8481              1654.3657
 Red. masses --      1.0576                 1.1093                 1.0967
 Frc consts  --      1.4053                 1.5136                 1.7685
 IR Inten    --      5.4023                20.0868                39.6976

                     34                     35                     36
                      A                      A                      A
 Frequencies --   3048.3992              3059.5524              3121.1992
 Red. masses --      1.0375                 1.0850                 1.1007
 Frc consts  --      5.6803                 5.9839                 6.3176
 IR Inten    --     24.4168                22.2188                25.2282

                     37                     38                     39
                      A                      A                      A
 Frequencies --   3139.1908              3493.9349              3584.1735
 Red. masses --      1.1025                 1.0495                 1.0931
 Frc consts  --      6.4015                 7.5485                 8.2732
 IR Inten    --     18.7405                 0.5434                 1.9320

                     40                     41                     42
                      A                      A                      A
 Frequencies --   3619.3697              3799.0510              3821.4244
 Red. masses --      1.0644                 1.0651                 1.0652
 Frc consts  --      8.2155                 9.0571                 9.1651
 IR Inten    --    135.3996                30.5204                43.1683

 - Thermochemistry -
 -------------------
 Temperature   298.150 Kelvin.  Pressure   1.00000 Atm.
 Atom     1 has atomic number  6 and mass  12.00000

 Molecular mass:   107.05824 amu.
 Principal axes and moments of inertia in atomic units:
                           1         2         3
     Eigenvalues --   532.61848 748.52336 918.57411
           X            0.99955   0.02968   0.00508
           Y           -0.02974   0.99948   0.01228
           Z           -0.00471  -0.01243   0.99991
 This molecule is an asymmetric top.
 Rotational symmetry number  1.
 Warning -- assumption of classical behavior for rotation
           may cause significant error
 Rotational temperatures (Kelvin)      0.16262     0.11571     0.09429
 Rotational constants (GHZ):           3.38843     2.41107     1.96472
 Zero-point vibrational energy     356216.4 (Joules/Mol)
                                   85.13776 (Kcal/Mol)
 Warning -- explicit consideration of  12 degrees of freedom as
           vibrations may cause significant error
 Vibrational temperatures:    153.57   335.17   363.42   375.30   396.32
          (Kelvin)            423.87   496.72   507.49   648.44   681.02
                              761.26   848.01   898.80   982.95  1119.84
                             1283.11  1347.91  1443.79  1466.69  1523.25
                             1587.64  1640.98  1705.42  1793.21  1894.43
                             1934.52  1987.08  2029.96  2043.98  2130.50
                             2160.68  2189.60  2380.26  4385.96  4402.01
                             4490.70  4516.59  5026.99  5156.82  5207.46
                             5465.98  5498.17

 Zero-point correction=                           0.135676 (Hartree/Particle)
 Thermal correction to Energy=                    0.143866
 Thermal correction to Enthalpy=                  0.144810
 Thermal correction to Gibbs Free Energy=         0.104133
 Sum of electronic and zero-point Energies=           -400.044659
 Sum of electronic and thermal Energies=              -400.036469
 Sum of electronic and thermal Enthalpies=            -400.035524
 Sum of electronic and thermal Free Energies=         -400.076202

                     E (Thermal)             CV                S
                      KCal/Mol        Cal/Mol-Kelvin    Cal/Mol-Kelvin
 Total                   90.277             30.968             85.613
 Electronic               0.000              0.000              0.000
 Translational            0.889              2.981             39.921
 Rotational               0.889              2.981             27.396
 Vibrational             88.500             25.006             18.296
 Vibration     1          0.606              1.944              3.327
 Vibration     2          0.654              1.791              1.856
 Vibration     3          0.664              1.758              1.712
 Vibration     4          0.669              1.744              1.656
 Vibration     5          0.677              1.719              1.562
 Vibration     6          0.689              1.684              1.447
 Vibration     7          0.724              1.585              1.188
 Vibration     8          0.729              1.570              1.154
 Vibration     9          0.809              1.359              0.794
 Vibration    10          0.830              1.309              0.728
 Vibration    11          0.884              1.186              0.589
 Vibration    12          0.947              1.054              0.468

 Optimization completed.
    -- Stationary point found.
 Normal termination of Gaussian 09 at Thu Sep  8 15:11:05 2022.
