 Gaussian 09, Revision E.01,
 Gaussian 09:  ES64L-G09RevE.01 30-Nov-2015

 ----------------------------
 #P OPT Freq B3LYP/6-31G(d,p)
 ----------------------------

 --------
 Frag_704
 --------
 Symbolic Z-matrix:
 Charge =  0 Multiplicity = 1

 SCF Done:  E(RB3LYP) =  -210.384911635     A.U. after   12 cycles
 SCF Done:  E(RB3LYP) =  -210.384942297     A.U. after    8 cycles
 SCF Done:  E(RB3LYP) =  -210.384944402     A.U. after    7 cycles
 SCF Done:  E(RB3LYP) =  -210.384944771     A.U. after    6 cycles
 SCF Done:  E(RB3LYP) =  -210.384944953     A.U. after    7 cycles
 SCF Done:  E(RB3LYP) =  -210.384945057     A.U. after    7 cycles
 SCF Done:  E(RB3LYP) =  -210.384945145     A.U. after    7 cycles
 Optimization completed.
    -- Stationary point found.
 Normal termination of Gaussian 09 at Thu Sep  8 15:19:39 2022.

 ----------------------------------------------------------------------
 #P Geom=AllCheck Guess=TCheck SCRF=Check GenChk RB3LYP/6-31G(d,p) Freq
 ----------------------------------------------------------------------

 Structure from the checkpoint file:  "B3LYP6-31Gdp.Frag_704.chk"
 --------
 Frag_704
 --------
 Charge =  0 Multiplicity = 1

                         Standard orientation:
 ---------------------------------------------------------------------
 Center     Atomic      Atomic             Coordinates (Angstroms)
 Number     Number       Type             X           Y           Z
 ---------------------------------------------------------------------
      1          6           0        1.819411    0.093424   -0.006675
      2          7           0        0.494297   -0.504654   -0.137367
      3          6           0       -0.575991    0.454596    0.094978
      4          8           0       -1.850438   -0.095110   -0.150863
      5          1           0        2.007002    0.599868    0.958441
      6          1           0        2.582008   -0.679156   -0.136900
      7          1           0        1.962019    0.836001   -0.799890
      8          1           0        0.405103   -1.270824    0.528156
      9          1           0       -0.536948    0.900451    1.111659
     10          1           0       -0.446984    1.272802   -0.622484
     11          1           0       -2.089300   -0.653809    0.599675
 ---------------------------------------------------------------------

 SCF Done:  E(RB3LYP) =  -210.384945145     A.U. after    1 cycles

 The electronic state is 1-A.
 Alpha  occ. eigenvalues --  -19.14511 -14.31778 -10.25326 -10.20533  -1.02450
 Alpha  occ. eigenvalues --   -0.89181  -0.68859  -0.63326  -0.51041  -0.49126
 Alpha  occ. eigenvalues --   -0.45391  -0.41415  -0.39797  -0.37645  -0.33125
 Alpha  occ. eigenvalues --   -0.28065  -0.22370
 Alpha virt. eigenvalues --    0.06748   0.09536   0.12518   0.15505   0.16640
 Alpha virt. eigenvalues --    0.17005   0.18597   0.21995   0.23585   0.27954
 Alpha virt. eigenvalues --    0.52518   0.54851   0.55522   0.57579   0.62821

 Mulliken charges:
               1
     1  C   -0.181456
     2  N   -0.483113
     3  C    0.190162
     4  O   -0.530339
     5  H    0.080190
     6  H    0.111722
     7  H    0.117830
     8  H    0.224365
     9  H    0.057927
    10  H    0.111084
    11  H    0.301629
 Sum of Mulliken charges =  -0.00000

 Dipole moment (field-independent basis, Debye):
    X=              0.9498    Y=             -0.2402    Z=              2.3257  Tot=              2.5237
 Quadrupole moment (field-independent basis, Debye-Ang):
   XX=            -26.0518   YY=            -24.1736   ZZ=            -25.8209
   XY=              1.4467   XZ=             -2.9123   YZ=             -2.8840

  Exact polarizability:  39.694   1.001  32.392  -0.983  -1.685  29.887
 Approx polarizability:  47.215   1.776  44.102  -0.362  -2.532  41.320

                      1                      2                      3
                      A                      A                      A
 Frequencies --     86.0317               220.9194               266.3010
 Red. masses --      2.3729                 1.1555                 1.1387
 Frc consts  --      0.0103                 0.0332                 0.0476
 IR Inten    --      4.3153                30.6131                69.0063

                      4                      5                      6
                      A                      A                      A
 Frequencies --    295.3829               501.6717               797.4218
 Red. masses --      2.5674                 4.9211                 1.2290
 Frc consts  --      0.1320                 0.7297                 0.4605
 IR Inten    --      1.1792                 2.3168               140.0364

                      7                      8                      9
                      A                      A                      A
 Frequencies --    975.9661              1016.7460              1097.2982
 Red. masses --      1.9747                 1.4219                 3.1448
 Frc consts  --      1.1082                 0.8661                 2.2310
 IR Inten    --     20.0536                30.4350                47.7386

                     10                     11                     12
                      A                      A                      A
 Frequencies --   1130.2990              1142.0448              1184.6313
 Red. masses --      3.2277                 1.3464                 1.7617
 Frc consts  --      2.4296                 1.0346                 1.4566
 IR Inten    --    162.0171                 0.8937                17.5005

                     13                     14                     15
                      A                      A                      A
 Frequencies --   1289.5562              1390.0514              1431.2240
 Red. masses --      1.3855                 1.2025                 1.1975
 Frc consts  --      1.3575                 1.3689                 1.4452
 IR Inten    --     25.8237                11.8838                47.5012

                     16                     17                     18
                      A                      A                      A
 Frequencies --   1471.8325              1493.7487              1506.6924
 Red. masses --      1.1672                 1.2076                 1.0919
 Frc consts  --      1.4897                 1.5876                 1.4605
 IR Inten    --      3.6473                25.8943                 3.4059

                     19                     20                     21
                      A                      A                      A
 Frequencies --   1528.8777              1541.2464              2880.2717
 Red. masses --      1.0518                 1.0960                 1.0735
 Frc consts  --      1.4486                 1.5340                 5.2469
 IR Inten    --      9.6328                 0.5235               126.4419

                     22                     23                     24
                      A                      A                      A
 Frequencies --   2943.9862              3068.3212              3074.2637
 Red. masses --      1.0611                 1.0751                 1.0874
 Frc consts  --      5.4184                 5.9635                 6.0549
 IR Inten    --    108.1612                25.6601                48.0621

                     25                     26                     27
                      A                      A                      A
 Frequencies --   3121.0715              3491.5832              3817.9865
 Red. masses --      1.1012                 1.0741                 1.0665
 Frc consts  --      6.3203                 7.7151                 9.1600
 IR Inten    --     28.9712                 2.1360                14.6697

 - Thermochemistry -
 -------------------
 Temperature   298.150 Kelvin.  Pressure   1.00000 Atm.
 Atom     1 has atomic number  6 and mass  12.00000

 Molecular mass:    61.05276 amu.
 Principal axes and moments of inertia in atomic units:
                           1         2         3
     Eigenvalues --    60.21154 449.41806 477.76584
           X            0.99991   0.00744  -0.01142
           Y           -0.00860   0.99439  -0.10542
           Z            0.01057   0.10551   0.99436
 This molecule is an asymmetric top.
 Rotational symmetry number  1.
 Rotational temperatures (Kelvin)      1.43849     0.19272     0.18129
 Rotational constants (GHZ):          29.97334     4.01573     3.77746
 Zero-point vibrational energy     255794.1 (Joules/Mol)
                                   61.13625 (Kcal/Mol)
 Warning -- explicit consideration of   5 degrees of freedom as
           vibrations may cause significant error
 Vibrational temperatures:    123.78   317.85   383.15   424.99   721.79
          (Kelvin)           1147.31  1404.20  1462.87  1578.77  1626.25
                             1643.15  1704.42  1855.38  1999.97  2059.21
                             2117.64  2149.17  2167.79  2199.71  2217.51
                             4144.06  4235.73  4414.62  4423.17  4490.52
                             5023.60  5493.22

 Zero-point correction=                           0.097427 (Hartree/Particle)
 Thermal correction to Energy=                    0.102953
 Thermal correction to Enthalpy=                  0.103897
 Thermal correction to Gibbs Free Energy=         0.069463
 Sum of electronic and zero-point Energies=           -210.287518
 Sum of electronic and thermal Energies=              -210.281992
 Sum of electronic and thermal Enthalpies=            -210.281048
 Sum of electronic and thermal Free Energies=         -210.315482

                     E (Thermal)             CV                S
                      KCal/Mol        Cal/Mol-Kelvin    Cal/Mol-Kelvin
 Total                   64.604             17.534             72.472
 Electronic               0.000              0.000              0.000
 Translational            0.889              2.981             38.247
 Rotational               0.889              2.981             24.073
 Vibrational             62.826             11.572             10.152
 Vibration     1          0.601              1.959              3.748
 Vibration     2          0.648              1.809              1.952
 Vibration     3          0.672              1.735              1.620
 Vibration     4          0.690              1.682              1.443
 Vibration     5          0.857              1.246              0.654

 Normal termination of Gaussian 09 at Thu Sep  8 15:19:46 2022.
