 Gaussian 09, Revision E.01,
 Gaussian 09:  ES64L-G09RevE.01 30-Nov-2015

 --------------------------------
 #P OPT=calcfc Freq B3LYP/6-31G**
 --------------------------------

 --------
 Frag_368
 --------
 Symbolic Z-matrix:
 Charge =  0 Multiplicity = 1

 SCF Done:  E(RB3LYP) =  -227.387381330     A.U. after   14 cycles
 SCF Done:  E(RB3LYP) =  -227.404291982     A.U. after   16 cycles
 SCF Done:  E(RB3LYP) =  -227.400272260     A.U. after   16 cycles
 SCF Done:  E(RB3LYP) =  -227.404328309     A.U. after   11 cycles
 SCF Done:  E(RB3LYP) =  -227.405949547     A.U. after   15 cycles
 SCF Done:  E(RB3LYP) =  -227.401468326     A.U. after   15 cycles
 SCF Done:  E(RB3LYP) =  -227.406220347     A.U. after   12 cycles
 SCF Done:  E(RB3LYP) =  -227.406431783     A.U. after   12 cycles
 SCF Done:  E(RB3LYP) =  -227.406456596     A.U. after   12 cycles
 SCF Done:  E(RB3LYP) =  -227.406459629     A.U. after   10 cycles
 SCF Done:  E(RB3LYP) =  -227.406459909     A.U. after    8 cycles
 Optimization completed.
    -- Stationary point found.
 Normal termination of Gaussian 09 at Fri Sep 10 15:28:50 2021.

 ----------------------------------------------------------------------
 #P Geom=AllCheck Guess=TCheck SCRF=Check GenChk RB3LYP/6-31G(d,p) Freq
 ----------------------------------------------------------------------

 Structure from the checkpoint file:  "/public/home/users/caep010/.cache/gau_scr/Gau-184777.chk"
 --------
 Frag_368
 --------
 Charge =  0 Multiplicity = 1

                         Standard orientation:
 ---------------------------------------------------------------------
 Center     Atomic      Atomic             Coordinates (Angstroms)
 Number     Number       Type             X           Y           Z
 ---------------------------------------------------------------------
      1          6           0        1.841248   -0.234556   -0.249114
      2          7           0        0.820945   -0.360375    0.496042
      3          6           0       -0.423965    0.172994    0.079682
      4          6           0       -1.488904   -0.870641   -0.127404
      5          7           0       -0.690777    1.417151   -0.028453
      6          1           0        2.803919   -0.615935    0.094985
      7          1           0        1.816759    0.245968   -1.236328
      8          1           0       -1.623740   -1.456642    0.787426
      9          1           0       -1.195689   -1.570215   -0.918221
     10          1           0       -2.426132   -0.383731   -0.397138
     11          1           0        0.143433    1.976337    0.177168
 ---------------------------------------------------------------------

 SCF Done:  E(RB3LYP) =  -227.406459909     A.U. after    1 cycles

 The electronic state is 1-A.
 Alpha  occ. eigenvalues --  -14.35744 -14.31175 -10.26128 -10.25308 -10.18693
 Alpha  occ. eigenvalues --   -0.96412  -0.87280  -0.73914  -0.65690  -0.54972
 Alpha  occ. eigenvalues --   -0.51807  -0.47690  -0.43268  -0.41200  -0.39515
 Alpha  occ. eigenvalues --   -0.33976  -0.32785  -0.27987  -0.25099
 Alpha virt. eigenvalues --   -0.03744   0.02257   0.10540   0.12120   0.13774
 Alpha virt. eigenvalues --    0.15556   0.17126   0.17893   0.22681   0.24559
 Alpha virt. eigenvalues --    0.35038   0.43050   0.50855   0.54839   0.55612

 Mulliken charges:
               1
     1  C   -0.027023
     2  N   -0.328286
     3  C    0.360089
     4  C   -0.343417
     5  N   -0.505588
     6  H    0.119956
     7  H    0.107316
     8  H    0.137616
     9  H    0.120310
    10  H    0.140689
    11  H    0.218339
 Sum of Mulliken charges =   0.00000

 Dipole moment (field-independent basis, Debye):
    X=              1.9335    Y=             -1.0971    Z=             -0.9286  Tot=              2.4093
 Quadrupole moment (field-independent basis, Debye-Ang):
   XX=            -27.2959   YY=            -31.5693   ZZ=            -31.1449
   XY=              4.0214   XZ=             -1.7597   YZ=              1.2569

  Exact polarizability:  56.163  -2.379  45.331  -2.758  -2.131  32.065
 Approx polarizability:  76.009  -7.284  71.105  -6.646  -5.814  49.066

                      1                      2                      3
                      A                      A                      A
 Frequencies --     96.9394               163.4915               276.3385
 Red. masses --      2.8580                 1.0613                 3.0636
 Frc consts  --      0.0158                 0.0167                 0.1378
 IR Inten    --      6.8332                 0.2338                 6.2840

                      4                      5                      6
                      A                      A                      A
 Frequencies --    380.9398               481.7253               607.0277
 Red. masses --      2.2092                 2.4109                 2.1250
 Frc consts  --      0.1889                 0.3296                 0.4614
 IR Inten    --      2.6019                23.2625                 9.1838

                      7                      8                      9
                      A                      A                      A
 Frequencies --    750.1479               823.0483               932.1474
 Red. masses --      1.7180                 2.7859                 1.3782
 Frc consts  --      0.5696                 1.1119                 0.7055
 IR Inten    --      8.9069                14.4970                61.7807

                     10                     11                     12
                      A                      A                      A
 Frequencies --   1009.3673              1075.7866              1082.5723
 Red. masses --      1.7716                 1.3567                 1.5064
 Frc consts  --      1.0635                 0.9251                 1.0402
 IR Inten    --     14.1585                16.7696                 0.5851

                     13                     14                     15
                      A                      A                      A
 Frequencies --   1122.1631              1223.7958              1348.8635
 Red. masses --      1.6840                 1.4877                 1.6664
 Frc consts  --      1.2494                 1.3127                 1.7863
 IR Inten    --     33.8045                16.2452               118.8513

                     16                     17                     18
                      A                      A                      A
 Frequencies --   1417.3347              1486.9789              1490.7889
 Red. masses --      1.4080                 1.0588                 1.0462
 Frc consts  --      1.6664                 1.3793                 1.3699
 IR Inten    --     27.2631                 8.2507                 8.5421

                     19                     20                     21
                      A                      A                      A
 Frequencies --   1516.6394              1713.6860              1740.9800
 Red. masses --      1.1804                 7.9627                 6.3639
 Frc consts  --      1.5997                13.7775                11.3648
 IR Inten    --     17.5567               109.4331                47.9190

                     22                     23                     24
                      A                      A                      A
 Frequencies --   3035.9191              3052.8192              3113.5898
 Red. masses --      1.0612                 1.0380                 1.0993
 Frc consts  --      5.7625                 5.6999                 6.2791
 IR Inten    --     33.9203                 9.4968                10.9486

                     25                     26                     27
                      A                      A                      A
 Frequencies --   3158.4670              3171.8171              3441.4851
 Red. masses --      1.1101                 1.1023                 1.0739
 Frc consts  --      6.5248                 6.5337                 7.4940
 IR Inten    --     27.9300                 5.8571                 4.4192

 - Thermochemistry -
 -------------------
 Temperature   298.150 Kelvin.  Pressure   1.00000 Atm.
 Atom     1 has atomic number  6 and mass  12.00000

 Molecular mass:    70.05310 amu.
 Principal axes and moments of inertia in atomic units:
                           1         2         3
     Eigenvalues --   201.78549 409.99042 557.22235
           X            0.99736   0.07174  -0.01120
           Y           -0.07163   0.99738   0.01019
           Z            0.01190  -0.00937   0.99989
 This molecule is an asymmetric top.
 Rotational symmetry number  1.
 Rotational temperatures (Kelvin)      0.42924     0.21126     0.15544
 Rotational constants (GHZ):           8.94386     4.40191     3.23882
 Zero-point vibrational energy     237547.6 (Joules/Mol)
                                   56.77524 (Kcal/Mol)
 Warning -- explicit consideration of   6 degrees of freedom as
           vibrations may cause significant error
 Vibrational temperatures:    139.47   235.23   397.59   548.09   693.09
          (Kelvin)            873.38  1079.29  1184.18  1341.15  1452.25
                             1547.82  1557.58  1614.54  1760.77  1940.71
                             2039.23  2139.43  2144.91  2182.10  2465.61
                             2504.88  4368.00  4392.32  4479.76  4544.32
                             4563.53  4951.52

 Zero-point correction=                           0.090477 (Hartree/Particle)
 Thermal correction to Energy=                    0.096220
 Thermal correction to Enthalpy=                  0.097164
 Thermal correction to Gibbs Free Energy=         0.061662
 Sum of electronic and zero-point Energies=           -227.315983
 Sum of electronic and thermal Energies=              -227.310240
 Sum of electronic and thermal Enthalpies=            -227.309296
 Sum of electronic and thermal Free Energies=         -227.344798

                     E (Thermal)             CV                S
                      KCal/Mol        Cal/Mol-Kelvin    Cal/Mol-Kelvin
 Total                   60.379             19.077             74.720
 Electronic               0.000              0.000              0.000
 Translational            0.889              2.981             38.657
 Rotational               0.889              2.981             25.336
 Vibrational             58.601             13.116             10.727
 Vibration     1          0.603              1.951              3.515
 Vibration     2          0.623              1.887              2.509
 Vibration     3          0.678              1.717              1.556
 Vibration     4          0.751              1.511              1.035
 Vibration     5          0.838              1.291              0.705
 Vibration     6          0.966              1.017              0.438

 Normal termination of Gaussian 09 at Fri Sep 10 15:28:57 2021.
