 Gaussian 09, Revision E.01,
 Gaussian 09:  ES64L-G09RevE.01 30-Nov-2015

 ----------------------------
 #P OPT Freq B3LYP/6-31G(d,p)
 ----------------------------

 --------
 Frag_435
 --------
 Symbolic Z-matrix:
 Charge =  0 Multiplicity = 1

 SCF Done:  E(RB3LYP) =  -308.900743272     A.U. after   12 cycles
 SCF Done:  E(RB3LYP) =  -308.900785891     A.U. after   10 cycles
 SCF Done:  E(RB3LYP) =  -308.900775509     A.U. after   10 cycles
 SCF Done:  E(RB3LYP) =  -308.900793637     A.U. after    9 cycles
 SCF Done:  E(RB3LYP) =  -308.900794051     A.U. after    7 cycles
 SCF Done:  E(RB3LYP) =  -308.900794208     A.U. after    7 cycles
 Optimization completed.
    -- Stationary point found.
 Normal termination of Gaussian 09 at Thu Sep  8 15:06:15 2022.

 ----------------------------------------------------------------------
 #P Geom=AllCheck Guess=TCheck SCRF=Check GenChk RB3LYP/6-31G(d,p) Freq
 ----------------------------------------------------------------------

 Structure from the checkpoint file:  "B3LYP6-31Gdp.Frag_435.chk"
 --------
 Frag_435
 --------
 Charge =  0 Multiplicity = 1

                         Standard orientation:
 ---------------------------------------------------------------------
 Center     Atomic      Atomic             Coordinates (Angstroms)
 Number     Number       Type             X           Y           Z
 ---------------------------------------------------------------------
      1          6           0        1.848533    0.659275   -0.351860
      2          6           0        0.703647   -0.347692   -0.350841
      3          8           0        0.752510   -1.208114    0.800284
      4          6           0       -0.709220    0.260224   -0.472096
      5          6           0       -1.054984    1.277424    0.621071
      6          8           0       -1.654306   -0.802885   -0.482113
      7          1           0        1.802430    1.322637    0.519944
      8          1           0        2.809591    0.138250   -0.330869
      9          1           0        1.817545    1.288083   -1.247937
     10          1           0        0.820075   -1.033236   -1.197533
     11          1           0        0.839542   -0.646453    1.583105
     12          1           0       -0.786997    0.750874   -1.451071
     13          1           0       -2.097810    1.583983    0.510229
     14          1           0       -0.425857    2.172302    0.571380
     15          1           0       -0.949540    0.834652    1.619004
     16          1           0       -1.342466   -1.418486    0.200737
 ---------------------------------------------------------------------

 SCF Done:  E(RB3LYP) =  -308.900794208     A.U. after    1 cycles

 The electronic state is 1-A.
 Alpha  occ. eigenvalues --  -19.15696 -19.12896 -10.23842 -10.23080 -10.18763
 Alpha  occ. eigenvalues --  -10.17812  -1.03320  -0.99913  -0.77673  -0.72560
 Alpha  occ. eigenvalues --   -0.65298  -0.58891  -0.51013  -0.47769  -0.45782
 Alpha  occ. eigenvalues --   -0.44627  -0.42445  -0.40170  -0.38537  -0.37319
 Alpha  occ. eigenvalues --   -0.36521  -0.33179  -0.31973  -0.28537  -0.25493
 Alpha virt. eigenvalues --    0.05836   0.10087   0.11926   0.12903   0.14110
 Alpha virt. eigenvalues --    0.15306   0.16226   0.17795   0.18679   0.18871
 Alpha virt. eigenvalues --    0.20948   0.23594   0.24769   0.26901   0.28354

 Mulliken charges:
               1
     1  C   -0.338476
     2  C    0.140006
     3  O   -0.552721
     4  C    0.179323
     5  C   -0.331341
     6  O   -0.552640
     7  H    0.099877
     8  H    0.121534
     9  H    0.111949
    10  H    0.112603
    11  H    0.305341
    12  H    0.088964
    13  H    0.125099
    14  H    0.098449
    15  H    0.083799
    16  H    0.308234
 Sum of Mulliken charges =  -0.00000

 Dipole moment (field-independent basis, Debye):
    X=              1.6368    Y=              1.7073    Z=              1.0172  Tot=              2.5746
 Quadrupole moment (field-independent basis, Debye-Ang):
   XX=            -41.1671   YY=            -39.5226   ZZ=            -35.4210
   XY=              0.1876   XZ=             -1.9054   YZ=             -0.6803

  Exact polarizability:  52.685   0.533  50.372  -0.714  -0.467  48.904
 Approx polarizability:  66.582   1.721  70.219   1.447  -2.133  70.327

                      1                      2                      3
                      A                      A                      A
 Frequencies --    106.2593               232.0561               247.4085
 Red. masses --      3.1090                 1.1415                 1.7074
 Frc consts  --      0.0207                 0.0362                 0.0616
 IR Inten    --      1.5871                 0.7553                 0.2411

                      4                      5                      6
                      A                      A                      A
 Frequencies --    275.8276               290.1437               333.5349
 Red. masses --      1.7016                 2.2174                 1.1430
 Frc consts  --      0.0763                 0.1100                 0.0749
 IR Inten    --      2.7553                 1.9405                44.4180

                      7                      8                      9
                      A                      A                      A
 Frequencies --    377.0796               429.2697               510.4432
 Red. masses --      2.7657                 2.6577                 1.8982
 Frc consts  --      0.2317                 0.2885                 0.2914
 IR Inten    --     22.1763                 2.6943                32.3091

                     10                     11                     12
                      A                      A                      A
 Frequencies --    529.3340               640.5107               763.6997
 Red. masses --      1.3782                 2.3668                 2.7373
 Frc consts  --      0.2275                 0.5721                 0.9406
 IR Inten    --    147.7885                 6.7300                10.7270

                     13                     14                     15
                      A                      A                      A
 Frequencies --    895.3742               936.9828               995.6920
 Red. masses --      2.2827                 1.7388                 1.4475
 Frc consts  --      1.0782                 0.8994                 0.8455
 IR Inten    --     15.6636                 5.6431                23.2502

                     16                     17                     18
                      A                      A                      A
 Frequencies --   1028.6416              1081.7725              1106.9837
 Red. masses --      1.8224                 1.5884                 2.6602
 Frc consts  --      1.1361                 1.0952                 1.9206
 IR Inten    --     34.9283                32.5200                21.0816

                     19                     20                     21
                      A                      A                      A
 Frequencies --   1127.3669              1182.3203              1276.6863
 Red. masses --      1.9094                 2.1226                 1.4618
 Frc consts  --      1.4298                 1.7482                 1.4038
 IR Inten    --    115.9923                25.4384                12.8703

                     22                     23                     24
                      A                      A                      A
 Frequencies --   1303.3206              1350.3179              1381.5696
 Red. masses --      1.4734                 1.4341                 1.3152
 Frc consts  --      1.4746                 1.5407                 1.4790
 IR Inten    --     12.6867                 8.5763                 4.3769

                     25                     26                     27
                      A                      A                      A
 Frequencies --   1419.0665              1423.6690              1434.2038
 Red. masses --      1.2374                 1.3004                 1.2564
 Frc consts  --      1.4681                 1.5529                 1.5226
 IR Inten    --     12.6976                12.5343                39.0703

                     28                     29                     30
                      A                      A                      A
 Frequencies --   1438.6084              1503.5550              1505.8683
 Red. masses --      1.2175                 1.0551                 1.0669
 Frc consts  --      1.4845                 1.4053                 1.4255
 IR Inten    --     72.5171                 4.0652                 5.7228

                     31                     32                     33
                      A                      A                      A
 Frequencies --   1513.4104              1520.0519              3037.4033
 Red. masses --      1.0510                 1.0504                 1.0451
 Frc consts  --      1.4183                 1.4300                 5.6810
 IR Inten    --      7.6223                 4.4675                 3.7300

                     34                     35                     36
                      A                      A                      A
 Frequencies --   3042.3337              3045.5576              3071.2735
 Red. masses --      1.0406                 1.0759                 1.0866
 Frc consts  --      5.6745                 5.8796                 6.0387
 IR Inten    --     23.7864                25.7908                18.3757

                     37                     38                     39
                      A                      A                      A
 Frequencies --   3107.6270              3111.4099              3129.7908
 Red. masses --      1.0994                 1.0996                 1.1023
 Frc consts  --      6.2555                 6.2719                 6.3619
 IR Inten    --     49.6037                30.1369                26.6980

                     40                     41                     42
                      A                      A                      A
 Frequencies --   3136.8868              3747.0852              3799.1258
 Red. masses --      1.1008                 1.0651                 1.0659
 Frc consts  --      6.3817                 8.8107                 9.0641
 IR Inten    --     16.8334                37.1796                 9.9622

 - Thermochemistry -
 -------------------
 Temperature   298.150 Kelvin.  Pressure   1.00000 Atm.
 Atom     1 has atomic number  6 and mass  12.00000

 Molecular mass:    90.06808 amu.
 Principal axes and moments of inertia in atomic units:
                           1         2         3
     Eigenvalues --   397.75531 637.49107 782.68459
           X            0.99936   0.00382  -0.03553
           Y           -0.00268   0.99949   0.03196
           Z            0.03563  -0.03184   0.99886
 This molecule is an asymmetric top.
 Rotational symmetry number  1.
 Rotational temperatures (Kelvin)      0.21776     0.13587     0.11066
 Rotational constants (GHZ):           4.53732     2.83101     2.30583
 Zero-point vibrational energy     373172.2 (Joules/Mol)
                                   89.19030 (Kcal/Mol)
 Warning -- explicit consideration of  10 degrees of freedom as
           vibrations may cause significant error
 Vibrational temperatures:    152.88   333.88   355.97   396.85   417.45
          (Kelvin)            479.88   542.53   617.62   734.41   761.59
                              921.55  1098.79  1288.24  1348.11  1432.58
                             1479.98  1556.43  1592.70  1622.03  1701.09
                             1836.86  1875.19  1942.80  1987.77  2041.72
                             2048.34  2063.50  2069.83  2163.28  2166.61
                             2177.46  2187.01  4370.14  4377.23  4381.87
                             4418.87  4471.18  4476.62  4503.07  4513.27
                             5391.21  5466.09

 Zero-point correction=                           0.142134 (Hartree/Particle)
 Thermal correction to Energy=                    0.149567
 Thermal correction to Enthalpy=                  0.150511
 Thermal correction to Gibbs Free Energy=         0.111527
 Sum of electronic and zero-point Energies=           -308.758660
 Sum of electronic and thermal Energies=              -308.751227
 Sum of electronic and thermal Enthalpies=            -308.750283
 Sum of electronic and thermal Free Energies=         -308.789267

                     E (Thermal)             CV                S
                      KCal/Mol        Cal/Mol-Kelvin    Cal/Mol-Kelvin
 Total                   93.855             27.429             82.050
 Electronic               0.000              0.000              0.000
 Translational            0.889              2.981             39.406
 Rotational               0.889              2.981             26.787
 Vibrational             92.077             21.467             15.857
 Vibration     1          0.605              1.944              3.336
 Vibration     2          0.653              1.792              1.863
 Vibration     3          0.661              1.767              1.749
 Vibration     4          0.677              1.718              1.559
 Vibration     5          0.686              1.692              1.473
 Vibration     6          0.715              1.609              1.243
 Vibration     7          0.748              1.519              1.051
 Vibration     8          0.791              1.407              0.861
 Vibration     9          0.866              1.227              0.633
 Vibration    10          0.884              1.185              0.589

 Normal termination of Gaussian 09 at Thu Sep  8 15:06:28 2022.
