 Gaussian 09, Revision E.01,
 Gaussian 09:  ES64L-G09RevE.01 30-Nov-2015

 ----------------------------
 #P OPT Freq B3LYP/6-31G(d,p)
 ----------------------------

  --------
 Frag_674
 --------
 Symbolic Z-matrix:
 Charge =  0 Multiplicity = 1

 SCF Done:  E(RB3LYP) =  -307.670638134     A.U. after   14 cycles
 SCF Done:  E(RB3LYP) =  -307.670706582     A.U. after    9 cycles
 SCF Done:  E(RB3LYP) =  -307.670708203     A.U. after    8 cycles
 SCF Done:  E(RB3LYP) =  -307.670706735     A.U. after    8 cycles
 SCF Done:  E(RB3LYP) =  -307.670706719     A.U. after    7 cycles
 SCF Done:  E(RB3LYP) =  -307.670707085     A.U. after    8 cycles
 SCF Done:  E(RB3LYP) =  -307.670707083     A.U. after    8 cycles
 SCF Done:  E(RB3LYP) =  -307.670707015     A.U. after    8 cycles
 SCF Done:  E(RB3LYP) =  -307.670707007     A.U. after    7 cycles
 Optimization completed.
    -- Stationary point found.
 Normal termination of Gaussian 09 at Thu Sep  8 15:09:21 2022.

 ----------------------------------------------------------------------
 #P Geom=AllCheck Guess=TCheck SCRF=Check GenChk RB3LYP/6-31G(d,p) Freq
 ----------------------------------------------------------------------

 Structure from the checkpoint file:  "B3LYP6-31Gdp.Frag_674.chk"
 --------
 Frag_674
 --------
 Charge =  0 Multiplicity = 1

                         Standard orientation:
 ---------------------------------------------------------------------
 Center     Atomic      Atomic             Coordinates (Angstroms)
 Number     Number       Type             X           Y           Z
 ---------------------------------------------------------------------
      1          6           0        2.146239    0.164999   -0.027641
      2          6           0        0.981831    0.072933   -0.668016
      3          6           0       -0.375124   -0.039082    0.004328
      4          6           0       -1.218005    1.219997   -0.172302
      5          8           0       -0.257462   -0.240222    1.400456
      6          8           0       -1.105487   -1.095178   -0.614604
      7          1           0        3.087512    0.228632   -0.564689
      8          1           0        2.189531    0.200830    1.056887
      9          1           0        0.947029    0.070407   -1.756642
     10          1           0       -2.209558    1.040594    0.250529
     11          1           0       -1.323021    1.460479   -1.232489
     12          1           0       -0.750340    2.058909    0.346431
     13          1           0        0.255216   -1.049069    1.539079
     14          1           0       -0.502427   -1.840661   -0.744131
 ---------------------------------------------------------------------

 SCF Done:  E(RB3LYP) =  -307.670707007     A.U. after    1 cycles

 The electronic state is 1-A.
 Alpha  occ. eigenvalues --  -19.14857 -19.14784 -10.29060 -10.19477 -10.19166
 Alpha  occ. eigenvalues --  -10.17202  -1.05739  -0.99087  -0.78390  -0.73424
 Alpha  occ. eigenvalues --   -0.62184  -0.57310  -0.53325  -0.49824  -0.44957
 Alpha  occ. eigenvalues --   -0.43527  -0.39188  -0.38522  -0.37210  -0.35866
 Alpha  occ. eigenvalues --   -0.34510  -0.29346  -0.27978  -0.26965
 Alpha virt. eigenvalues --    0.00020   0.07089   0.10905   0.12002   0.14632
 Alpha virt. eigenvalues --    0.15201   0.17867   0.18987   0.19603   0.22805
 Alpha virt. eigenvalues --    0.23770   0.26917   0.30953   0.35323   0.51603

 Mulliken charges:
               1
     1  C   -0.244166
     2  C   -0.078613
     3  C    0.437832
     4  C   -0.298840
     5  O   -0.530364
     6  O   -0.533703
     7  H    0.104095
     8  H    0.107822
     9  H    0.095894
    10  H    0.128209
    11  H    0.108084
    12  H    0.118119
    13  H    0.290478
    14  H    0.295154
 Sum of Mulliken charges =  -0.00000

 Dipole moment (field-independent basis, Debye):
    X=              2.0230    Y=             -0.9693    Z=             -0.6784  Tot=              2.3435
 Quadrupole moment (field-independent basis, Debye-Ang):
   XX=            -37.4440   YY=            -33.2011   ZZ=            -36.9815
   XY=             -2.6677   XZ=              0.4039   YZ=             -1.3354

  Exact polarizability:  60.872  -0.554  40.127   4.179   0.261  46.684
 Approx polarizability:  84.919   1.444  54.073  11.058   1.946  68.441

                      1                      2                      3
                      A                      A                      A
 Frequencies --     95.3510               199.8435               240.0168
 Red. masses --      2.3504                 1.1875                 1.0954
 Frc consts  --      0.0126                 0.0279                 0.0372
 IR Inten    --      3.8183                24.5427                11.8082

                      4                      5                      6
                      A                      A                      A
 Frequencies --    285.6003               326.5976               379.2360
 Red. masses --      3.1369                 1.8374                 2.5912
 Frc consts  --      0.1508                 0.1155                 0.2196
 IR Inten    --      1.9332                 1.0825                13.1673

                      7                      8                      9
                      A                      A                      A
 Frequencies --    415.2693               459.8098               509.1439
 Red. masses --      1.1534                 2.2062                 4.8316
 Frc consts  --      0.1172                 0.2748                 0.7379
 IR Inten    --    137.9024                14.3577                37.0953

                     10                     11                     12
                      A                      A                      A
 Frequencies --    587.2380               714.1033               760.2357
 Red. masses --      3.1465                 1.8505                 3.5712
 Frc consts  --      0.6393                 0.5560                 1.2161
 IR Inten    --     11.0682                16.1102                 1.2225

                     13                     14                     15
                      A                      A                      A
 Frequencies --    937.5991               952.5372               966.9033
 Red. masses --      2.2998                 1.8833                 1.3822
 Frc consts  --      1.1912                 1.0068                 0.7614
 IR Inten    --     65.2723                29.7400                27.6316

                     16                     17                     18
                      A                      A                      A
 Frequencies --   1040.4619              1047.1900              1051.6741
 Red. masses --      1.2559                 1.2199                 1.9556
 Frc consts  --      0.8011                 0.7881                 1.2743
 IR Inten    --     14.2442                30.4151                63.7163

                     19                     20                     21
                      A                      A                      A
 Frequencies --   1163.6296              1231.4152              1262.5287
 Red. masses --      2.1605                 1.6452                 1.9810
 Frc consts  --      1.7236                 1.4698                 1.8604
 IR Inten    --     35.5904               179.1549                73.3286

                     22                     23                     24
                      A                      A                      A
 Frequencies --   1315.8888              1397.4318              1440.4816
 Red. masses --      1.3017                 1.2653                 1.3511
 Frc consts  --      1.3280                 1.4558                 1.6518
 IR Inten    --      3.4417                20.3193                 8.3193

                     25                     26                     27
                      A                      A                      A
 Frequencies --   1456.9377              1498.3330              1501.8503
 Red. masses --      1.4968                 1.0752                 1.0497
 Frc consts  --      1.8720                 1.4221                 1.3950
 IR Inten    --     50.3601                 1.4255                 2.0137

                     28                     29                     30
                      A                      A                      A
 Frequencies --   1720.8487              3069.4678              3150.9611
 Red. masses --      4.8466                 1.0341                 1.1018
 Frc consts  --      8.4561                 5.7404                 6.4455
 IR Inten    --      0.7137                 9.7021                12.2504

                     31                     32                     33
                      A                      A                      A
 Frequencies --   3155.3238              3159.9692              3167.9957
 Red. masses --      1.0689                 1.1017                 1.0856
 Frc consts  --      6.2700                 6.4815                 6.4194
 IR Inten    --      8.1090                17.2348                 6.8224

                     34                     35                     36
                      A                      A                      A
 Frequencies --   3248.1746              3792.2731              3795.3285
 Red. masses --      1.1164                 1.0664                 1.0657
 Frc consts  --      6.9398                 9.0358                 9.0443
 IR Inten    --      9.4422                 8.6851                 7.8439

 - Thermochemistry -
 -------------------
 Temperature   298.150 Kelvin.  Pressure   1.00000 Atm.
 Atom     1 has atomic number  6 and mass  12.00000

 Molecular mass:    88.05243 amu.
 Principal axes and moments of inertia in atomic units:
                           1         2         3
     Eigenvalues --   366.42880 641.98709 653.00482
           X            0.99883  -0.01473  -0.04600
           Y            0.04800   0.40760   0.91190
           Z           -0.00532   0.91304  -0.40783
 This molecule is an asymmetric top.
 Rotational symmetry number  1.
 Rotational temperatures (Kelvin)      0.23637     0.13492     0.13264
 Rotational constants (GHZ):           4.92522     2.81118     2.76375
 Zero-point vibrational energy     308024.3 (Joules/Mol)
                                   73.61959 (Kcal/Mol)
 Warning -- explicit consideration of  10 degrees of freedom as
           vibrations may cause significant error
 Vibrational temperatures:    137.19   287.53   345.33   410.91   469.90
          (Kelvin)            545.64   597.48   661.56   732.54   844.90
                             1027.43  1093.81  1348.99  1370.49  1391.16
                             1496.99  1506.67  1513.12  1674.20  1771.73
                             1816.50  1893.27  2010.59  2072.53  2096.21
                             2155.76  2160.82  2475.91  4416.27  4533.52
                             4539.80  4546.49  4558.03  4673.39  5456.23
                             5460.62

 Zero-point correction=                           0.117320 (Hartree/Particle)
 Thermal correction to Energy=                    0.124562
 Thermal correction to Enthalpy=                  0.125506
 Thermal correction to Gibbs Free Energy=         0.086887
 Sum of electronic and zero-point Energies=           -307.553387
 Sum of electronic and thermal Energies=              -307.546145
 Sum of electronic and thermal Enthalpies=            -307.545201
 Sum of electronic and thermal Free Energies=         -307.583820

                     E (Thermal)             CV                S
                      KCal/Mol        Cal/Mol-Kelvin    Cal/Mol-Kelvin
 Total                   78.164             26.435             81.279
 Electronic               0.000              0.000              0.000
 Translational            0.889              2.981             39.339
 Rotational               0.889              2.981             26.532
 Vibrational             76.386             20.473             15.408
 Vibration     1          0.603              1.953              3.547
 Vibration     2          0.638              1.840              2.135
 Vibration     3          0.657              1.779              1.803
 Vibration     4          0.683              1.700              1.500
 Vibration     5          0.710              1.622              1.277
 Vibration     6          0.749              1.514              1.042
 Vibration     7          0.779              1.437              0.908
 Vibration     8          0.818              1.339              0.767
 Vibration     9          0.864              1.230              0.636
 Vibration    10          0.944              1.059              0.472

 Optimization completed.
    -- Stationary point found.
 Normal termination of Gaussian 09 at Thu Sep  8 15:09:34 2022.
