 Gaussian 09, Revision E.01,
 Gaussian 09:  ES64L-G09RevE.01 30-Nov-2015

 -------------------------
 #P OPT Freq B3LYP/6-31G**
 -------------------------

 --------
 Frag_262
 --------
 Symbolic Z-matrix:
 Charge =  0 Multiplicity = 1

 SCF Done:  E(RB3LYP) =  -116.577076690     A.U. after   12 cycles
 SCF Done:  E(RB3LYP) =  -116.618067077     A.U. after   12 cycles
 SCF Done:  E(RB3LYP) =  -116.624626335     A.U. after   11 cycles
 SCF Done:  E(RB3LYP) =  -116.625603563     A.U. after   10 cycles
 SCF Done:  E(RB3LYP) =  -116.625628740     A.U. after    8 cycles
 SCF Done:  E(RB3LYP) =  -116.625631951     A.U. after    7 cycles
 SCF Done:  E(RB3LYP) =  -116.625632797     A.U. after    6 cycles
 Optimization completed.
    -- Stationary point found.
 Normal termination of Gaussian 09 at Sat Aug 21 01:38:42 2021.

 ----------------------------------------------------------------------
 #P Geom=AllCheck Guess=TCheck SCRF=Check GenChk RB3LYP/6-31G(d,p) Freq
 ----------------------------------------------------------------------

 Structure from the checkpoint file:  "/public/home/users/caep010/.cache/gau_scr/Gau-130752.chk"
 --------
 Frag_262
 --------
 Charge =  0 Multiplicity = 1

                         Standard orientation:
 ---------------------------------------------------------------------
 Center     Atomic      Atomic             Coordinates (Angstroms)
 Number     Number       Type             X           Y           Z
 ---------------------------------------------------------------------
      1          6           0       -0.501244   -0.647479   -0.000000
      2          6           0       -0.501243    0.647480   -0.000000
      3          6           0        0.861669   -0.000001    0.000000
      4          1           0       -1.042263   -1.580628    0.000004
      5          1           0       -1.042258    1.580631   -0.000002
      6          1           0        1.464715   -0.000007   -0.912593
      7          1           0        1.464715    0.000004    0.912593
 ---------------------------------------------------------------------

 SCF Done:  E(RB3LYP) =  -116.625632797     A.U. after    1 cycles

 The electronic state is 1-A.
 Alpha  occ. eigenvalues --  -10.20041 -10.19921 -10.19517  -0.86328  -0.59498
 Alpha  occ. eigenvalues --   -0.56094  -0.49987  -0.42869  -0.34286  -0.29048
 Alpha  occ. eigenvalues --   -0.24773
 Alpha virt. eigenvalues --    0.01594   0.12425   0.12792   0.14754   0.18319
 Alpha virt. eigenvalues --    0.19200   0.23807   0.33981   0.49316   0.53053
 Alpha virt. eigenvalues --    0.54767   0.57757   0.60950   0.62905   0.69288

 Mulliken charges:
               1
     1  C   -0.075511
     2  C   -0.075510
     3  C   -0.233684
     4  H    0.099778
     5  H    0.099778
     6  H    0.092575
     7  H    0.092575
 Sum of Mulliken charges =  -0.00000

 Dipole moment (field-independent basis, Debye):
    X=             -0.5155    Y=              0.0000    Z=              0.0000  Tot=              0.5155
 Quadrupole moment (field-independent basis, Debye-Ang):
   XX=            -18.1571   YY=            -16.6441   ZZ=            -18.9717
   XY=              0.0000   XZ=             -0.0000   YZ=              0.0000

  Exact polarizability:  32.188   0.000  31.629  -0.000   0.000  18.667
 Approx polarizability:  43.123   0.000  53.402   0.000   0.000  25.316

                      1                      2                      3
                      A                      A                      A
 Frequencies --    604.8868               796.9830               862.9913
 Red. masses --      1.1239                 2.4799                 1.4451
 Frc consts  --      0.2423                 0.9281                 0.6341
 IR Inten    --     61.4470                10.4251                 0.0000

                      4                      5                      6
                      A                      A                      A
 Frequencies --    935.9430              1020.5007              1044.1703
 Red. masses --      1.1466                 1.0768                 1.6002
 Frc consts  --      0.5918                 0.6607                 1.0279
 IR Inten    --      2.7202                 0.0000                28.5474

                      7                      8                      9
                      A                      A                      A
 Frequencies --   1081.3103              1118.4788              1174.0239
 Red. masses --      1.3708                 1.2880                 4.2718
 Frc consts  --      0.9443                 0.9493                 3.4691
 IR Inten    --     30.9828                 1.6989                 1.0209

                     10                     11                     12
                      A                      A                      A
 Frequencies --   1540.0792              1751.7630              3046.0425
 Red. masses --      1.1220                 4.5649                 1.0477
 Frc consts  --      1.5679                 8.2534                 5.7273
 IR Inten    --      5.0140                11.9830                70.9603

                     13                     14                     15
                      A                      A                      A
 Frequencies --   3108.6224              3265.6326              3311.3396
 Red. masses --      1.1168                 1.0839                 1.1455
 Frc consts  --      6.3588                 6.8107                 7.4002
 IR Inten    --     60.7437                 0.1482                 0.0469

 - Thermochemistry -
 -------------------
 Temperature   298.150 Kelvin.  Pressure   1.00000 Atm.
 Atom     1 has atomic number  6 and mass  12.00000

 Molecular mass:    40.03130 amu.
 Principal axes and moments of inertia in atomic units:
                           1         2         3
     Eigenvalues --    59.90849  82.54400 130.46311
           X            1.00000   0.00000  -0.00000
           Y           -0.00000   1.00000   0.00000
           Z            0.00000  -0.00000   1.00000
 This molecule is an asymmetric top.
 Rotational symmetry number  1.
 Rotational temperatures (Kelvin)      1.44577     1.04930     0.66390
 Rotational constants (GHZ):          30.12497    21.86399    13.83335
 Zero-point vibrational energy     147516.1 (Joules/Mol)
                                   35.25720 (Kcal/Mol)
 Warning -- explicit consideration of   1 degrees of freedom as
           vibrations may cause significant error
 Vibrational temperatures:    870.30  1146.68  1241.65  1346.61  1468.27
          (Kelvin)           1502.33  1555.76  1609.24  1689.16  2215.83
                             2520.39  4382.57  4472.61  4698.51  4764.27

 Zero-point correction=                           0.056186 (Hartree/Particle)
 Thermal correction to Energy=                    0.059504
 Thermal correction to Enthalpy=                  0.060448
 Thermal correction to Gibbs Free Energy=         0.032241
 Sum of electronic and zero-point Energies=           -116.569447
 Sum of electronic and thermal Energies=              -116.566129
 Sum of electronic and thermal Enthalpies=            -116.565185
 Sum of electronic and thermal Free Energies=         -116.593392

                     E (Thermal)             CV                S
                      KCal/Mol        Cal/Mol-Kelvin    Cal/Mol-Kelvin
 Total                   37.339             10.210             59.367
 Electronic               0.000              0.000              0.000
 Translational            0.889              2.981             36.989
 Rotational               0.889              2.981             21.095
 Vibrational             35.562              4.248              1.283
 Vibration     1          0.963              1.021              0.441

 Optimization completed.
    -- Stationary point found.
 Normal termination of Gaussian 09 at Sat Aug 21 01:38:47 2021.
