 Gaussian 09, Revision E.01,
 Gaussian 09:  ES64L-G09RevE.01 30-Nov-2015

 --------------------------------
 #P OPT=calcfc Freq B3LYP/6-31G**
 --------------------------------

 --------
 Frag_188
 --------
 Symbolic Z-matrix:
 Charge =  0 Multiplicity = 1

 SCF Done:  E(RB3LYP) =  -263.263842091     A.U. after   15 cycles
 SCF Done:  E(RB3LYP) =  -263.277862904     A.U. after   16 cycles
 SCF Done:  E(RB3LYP) =  -263.277702469     A.U. after   16 cycles
 SCF Done:  E(RB3LYP) =  -263.278035836     A.U. after   12 cycles
 SCF Done:  E(RB3LYP) =  -263.279663111     A.U. after   16 cycles
 SCF Done:  E(RB3LYP) =  -263.281330663     A.U. after   16 cycles
 SCF Done:  E(RB3LYP) =  -263.283782321     A.U. after   17 cycles
 SCF Done:  E(RB3LYP) =  -263.286675702     A.U. after   14 cycles
 SCF Done:  E(RB3LYP) =  -263.289843021     A.U. after   16 cycles
 SCF Done:  E(RB3LYP) =  -263.290939300     A.U. after   15 cycles
 SCF Done:  E(RB3LYP) =  -263.291097584     A.U. after   13 cycles
 SCF Done:  E(RB3LYP) =  -263.291136703     A.U. after   13 cycles
 SCF Done:  E(RB3LYP) =  -263.291155681     A.U. after   13 cycles
 SCF Done:  E(RB3LYP) =  -263.291156957     A.U. after   10 cycles
 SCF Done:  E(RB3LYP) =  -263.291157728     A.U. after   10 cycles
 SCF Done:  E(RB3LYP) =  -263.291157850     A.U. after    9 cycles
 Optimization completed.
    -- Stationary point found.
 Normal termination of Gaussian 09 at Sat Aug 21 02:20:06 2021.

 ----------------------------------------------------------------------
 #P Geom=AllCheck Guess=TCheck SCRF=Check GenChk RB3LYP/6-31G(d,p) Freq
 ----------------------------------------------------------------------

 Structure from the checkpoint file:  "/public/home/users/caep010/.cache/gau_scr/Gau-4786.chk"
 --------
 Frag_188
 --------
 Charge =  0 Multiplicity = 1

                         Standard orientation:
 ---------------------------------------------------------------------
 Center     Atomic      Atomic             Coordinates (Angstroms)
 Number     Number       Type             X           Y           Z
 ---------------------------------------------------------------------
      1          6           0        1.715897    0.518646   -0.000129
      2          6           0        0.393354   -0.175304    0.000084
      3          8           0        0.196702   -1.365192    0.000107
      4          7           0       -0.769329    0.807361    0.000282
      5          7           0       -1.881497    0.263967   -0.000166
      6          1           0        1.778406    1.173353    0.876145
      7          1           0        2.534164   -0.200791   -0.000167
      8          1           0        1.778465    1.173186   -0.876541
      9          1           0       -1.764378   -0.783554   -0.000837
 ---------------------------------------------------------------------

 SCF Done:  E(RB3LYP) =  -263.291157850     A.U. after    1 cycles

 The electronic state is 1-A.
 Alpha  occ. eigenvalues --  -19.18613 -14.40167 -14.40021 -10.32195 -10.21633
 Alpha  occ. eigenvalues --   -1.09900  -1.03151  -0.78934  -0.68750  -0.59015
 Alpha  occ. eigenvalues --   -0.52158  -0.47864  -0.47328  -0.43219  -0.41238
 Alpha  occ. eigenvalues --   -0.37581  -0.37450  -0.32103  -0.24875
 Alpha virt. eigenvalues --   -0.09857   0.00828   0.09847   0.11934   0.13445
 Alpha virt. eigenvalues --    0.15637   0.19525   0.25235   0.30770   0.35735
 Alpha virt. eigenvalues --    0.50719   0.52841   0.55555   0.56991   0.57642

 Mulliken charges:
               1
     1  C   -0.376069
     2  C    0.493059
     3  O   -0.404156
     4  N   -0.225210
     5  N   -0.194161
     6  H    0.158206
     7  H    0.146780
     8  H    0.158200
     9  H    0.243350
 Sum of Mulliken charges =  -0.00000

 Dipole moment (field-independent basis, Debye):
    X=              2.3346    Y=              0.0986    Z=             -0.0014  Tot=              2.3367
 Quadrupole moment (field-independent basis, Debye-Ang):
   XX=            -29.0523   YY=            -33.1255   ZZ=            -27.3832
   XY=              4.5760   XZ=              0.0012   YZ=             -0.0002

  Exact polarizability:  47.011   3.612  37.632   0.002   0.003  22.441
 Approx polarizability:  66.257   7.092  64.242   0.005   0.006  32.618

                      1                      2                      3
                      A                      A                      A
 Frequencies --    101.5841               135.3628               321.6360
 Red. masses --      2.0861                 1.3909                 3.3955
 Frc consts  --      0.0127                 0.0150                 0.2070
 IR Inten    --      7.3290                 8.0286                10.7967

                      4                      5                      6
                      A                      A                      A
 Frequencies --    447.9395               485.2754               650.9260
 Red. masses --      5.0581                 2.5283                 4.2521
 Frc consts  --      0.5980                 0.3508                 1.0615
 IR Inten    --     11.3770                33.4710                26.9637

                      7                      8                      9
                      A                      A                      A
 Frequencies --    722.7662               924.0558              1003.5773
 Red. masses --      4.8312                 1.2684                 2.0901
 Frc consts  --      1.4870                 0.6381                 1.2403
 IR Inten    --     14.7627                59.0490                 9.8086

                     10                     11                     12
                      A                      A                      A
 Frequencies --   1112.8732              1185.3600              1403.2230
 Red. masses --      1.7691                 2.8505                 1.3178
 Frc consts  --      1.2909                 2.3598                 1.5288
 IR Inten    --      5.9207                94.7742                33.4338

                     13                     14                     15
                      A                      A                      A
 Frequencies --   1468.0803              1473.9736              1505.7133
 Red. masses --      1.0557                 1.0481                 1.2653
 Frc consts  --      1.3406                 1.3416                 1.6902
 IR Inten    --     19.7746                10.5487                96.5712

                     16                     17                     18
                      A                      A                      A
 Frequencies --   1664.0582              1859.3681              3034.7942
 Red. masses --     10.2384                11.5406                 1.0679
 Frc consts  --     16.7040                23.5077                 5.7950
 IR Inten    --      4.9180               126.2712                32.9231

                     19                     20                     21
                      A                      A                      A
 Frequencies --   3055.4960              3115.6526              3181.1332
 Red. masses --      1.0373                 1.0982                 1.1041
 Frc consts  --      5.7060                 6.2812                 6.5833
 IR Inten    --      0.1778                 1.2269                 5.9977

 - Thermochemistry -
 -------------------
 Temperature   298.150 Kelvin.  Pressure   1.00000 Atm.
 Atom     1 has atomic number  6 and mass  12.00000

 Molecular mass:    72.03236 amu.
 Principal axes and moments of inertia in atomic units:
                           1         2         3
     Eigenvalues --   171.65510 404.75028 565.34955
           X            0.99694   0.07821   0.00000
           Y           -0.07821   0.99694   0.00001
           Z           -0.00000  -0.00001   1.00000
 This molecule is an asymmetric top.
 Rotational symmetry number  1.
 Rotational temperatures (Kelvin)      0.50458     0.21399     0.15320
 Rotational constants (GHZ):          10.51376     4.45890     3.19226
 Zero-point vibrational energy     172578.4 (Joules/Mol)
                                   41.24722 (Kcal/Mol)
 Warning -- explicit consideration of   5 degrees of freedom as
           vibrations may cause significant error
 Vibrational temperatures:    146.16   194.76   462.76   644.48   698.20
          (Kelvin)            936.54  1039.90  1329.51  1443.92  1601.17
                             1705.47  2018.92  2112.24  2120.72  2166.38
                             2394.21  2675.21  4366.39  4396.17  4482.72
                             4576.94

 Zero-point correction=                           0.065732 (Hartree/Particle)
 Thermal correction to Energy=                    0.071251
 Thermal correction to Enthalpy=                  0.072195
 Thermal correction to Gibbs Free Energy=         0.037014
 Sum of electronic and zero-point Energies=           -263.225426
 Sum of electronic and thermal Energies=              -263.219907
 Sum of electronic and thermal Enthalpies=            -263.218962
 Sum of electronic and thermal Free Energies=         -263.254144

                     E (Thermal)             CV                S
                      KCal/Mol        Cal/Mol-Kelvin    Cal/Mol-Kelvin
 Total                   44.711             17.552             74.046
 Electronic               0.000              0.000              0.000
 Translational            0.889              2.981             38.740
 Rotational               0.889              2.981             25.177
 Vibrational             42.933             11.590             10.128
 Vibration     1          0.604              1.948              3.424
 Vibration     2          0.613              1.918              2.868
 Vibration     3          0.707              1.632              1.302
 Vibration     4          0.807              1.365              0.802
 Vibration     5          0.841              1.283              0.696

 Optimization completed.
    -- Stationary point found.
 Normal termination of Gaussian 09 at Sat Aug 21 02:20:13 2021.
