 Gaussian 09, Revision E.01,
 Gaussian 09:  ES64L-G09RevE.01 30-Nov-2015

 ----------------------------
 #P OPT Freq B3LYP/6-31G(d,p)
 ----------------------------

 --------
 Frag_528
 --------
 Symbolic Z-matrix:
 Charge =  0 Multiplicity = 1

 SCF Done:  E(RB3LYP) =  -116.659335569     A.U. after   12 cycles
 SCF Done:  E(RB3LYP) =  -116.659425662     A.U. after    8 cycles
 SCF Done:  E(RB3LYP) =  -116.659418932     A.U. after    8 cycles
 SCF Done:  E(RB3LYP) =  -116.659427088     A.U. after    8 cycles
 SCF Done:  E(RB3LYP) =  -116.659426576     A.U. after    7 cycles
 SCF Done:  E(RB3LYP) =  -116.659427016     A.U. after    7 cycles
 Optimization completed.
    -- Stationary point found.
 Normal termination of Gaussian 09 at Thu Sep  8 15:18:58 2022.

 ----------------------------------------------------------------------
 #P Geom=AllCheck Guess=TCheck SCRF=Check GenChk RB3LYP/6-31G(d,p) Freq
 ----------------------------------------------------------------------

 Structure from the checkpoint file:  "B3LYP6-31Gdp.Frag_528.chk"
 --------
 Frag_528
 --------
 Charge =  0 Multiplicity = 1

                         Standard orientation:
 ---------------------------------------------------------------------
 Center     Atomic      Atomic             Coordinates (Angstroms)
 Number     Number       Type             X           Y           Z
 ---------------------------------------------------------------------
      1          6           0       -1.425661    0.000017    0.000001
      2          6           0       -0.218282   -0.000085   -0.000024
      3          6           0        1.240966    0.000022    0.000008
      4          1           0       -2.490777    0.000094    0.000052
      5          1           0        1.636285   -0.568463   -0.848828
      6          1           0        1.636260   -0.450804    0.916782
      7          1           0        1.636094    1.019443   -0.067917
 ---------------------------------------------------------------------

 SCF Done:  E(RB3LYP) =  -116.659427016     A.U. after    1 cycles

 The electronic state is 1-A.
 Alpha  occ. eigenvalues --  -10.20714 -10.18431 -10.17133  -0.77394  -0.69438
 Alpha  occ. eigenvalues --   -0.52302  -0.44899  -0.42867  -0.42867  -0.25941
 Alpha  occ. eigenvalues --   -0.25941
 Alpha virt. eigenvalues --    0.06134   0.06134   0.10970   0.13363   0.18263
 Alpha virt. eigenvalues --    0.18263   0.23849   0.40164   0.46298   0.52744
 Alpha virt. eigenvalues --    0.52745   0.62338   0.62339   0.71580   0.71581

 Mulliken charges:
               1
     1  C   -0.399100
     2  C    0.250094
     3  C   -0.425950
     4  H    0.147986
     5  H    0.142320
     6  H    0.142321
     7  H    0.142329
 Sum of Mulliken charges =  -0.00000

 Dipole moment (field-independent basis, Debye):
    X=              0.7158    Y=              0.0002    Z=              0.0001  Tot=              0.7158
 Quadrupole moment (field-independent basis, Debye-Ang):
   XX=            -13.7231   YY=            -19.0365   ZZ=            -19.0366
   XY=             -0.0003   XZ=             -0.0001   YZ=             -0.0000

  Exact polarizability:  45.299  -0.001  18.096  -0.000  -0.000  18.096
 Approx polarizability:  72.993  -0.004  23.474  -0.001  -0.000  23.473

                      1                      2                      3
                      A                      A                      A
 Frequencies --    348.6568               348.8042               613.7208
 Red. masses --      3.3608                 3.3612                 1.2003
 Frc consts  --      0.2407                 0.2409                 0.2664
 IR Inten    --      3.4436                 3.4417                48.8144

                      4                      5                      6
                      A                      A                      A
 Frequencies --    613.7291               949.8456              1061.0279
 Red. masses --      1.2003                 4.0539                 1.4057
 Frc consts  --      0.2664                 2.1549                 0.9324
 IR Inten    --     48.8161                 0.7463                 1.6482

                      7                      8                      9
                      A                      A                      A
 Frequencies --   1061.1203              1426.6169              1490.7946
 Red. masses --      1.4058                 1.2352                 1.0396
 Frc consts  --      0.9326                 1.4812                 1.3613
 IR Inten    --      1.6512                 0.5608                 6.1118

                     10                     11                     12
                      A                      A                      A
 Frequencies --   1490.9936              2247.3549              3039.2141
 Red. masses --      1.0396                 5.9627                 1.0348
 Frc consts  --      1.3616                17.7433                 5.6317
 IR Inten    --      6.1109                 3.0343                19.5101

                     13                     14                     15
                      A                      A                      A
 Frequencies --   3104.7256              3104.8324              3491.7959
 Red. masses --      1.1016                 1.1017                 1.1607
 Frc consts  --      6.2566                 6.2571                 8.3383
 IR Inten    --     11.1873                11.1807                56.7046

 - Thermochemistry -
 -------------------
 Temperature   298.150 Kelvin.  Pressure   1.00000 Atm.
 Atom     1 has atomic number  6 and mass  12.00000

 Molecular mass:    40.03130 amu.
 Principal axes and moments of inertia in atomic units:
                           1         2         3
     Eigenvalues --    11.26939 211.48881 211.48891
           X            1.00000  -0.00000  -0.00000
           Y            0.00000   1.00000  -0.00044
           Z            0.00000   0.00044   1.00000
 This molecule is an asymmetric top.
 Rotational symmetry number  1.
 Rotational temperatures (Kelvin)      7.68576     0.40954     0.40954
 Rotational constants (GHZ):         160.14539     8.53351     8.53350
 Zero-point vibrational energy     145903.9 (Joules/Mol)
                                   34.87188 (Kcal/Mol)
 Warning -- explicit consideration of   4 degrees of freedom as
           vibrations may cause significant error
 Vibrational temperatures:    501.64   501.85   883.01   883.02  1366.61
          (Kelvin)           1526.58  1526.71  2052.58  2144.92  2145.20
                             3233.44  4372.75  4467.00  4467.16  5023.91

 Zero-point correction=                           0.055572 (Hartree/Particle)
 Thermal correction to Energy=                    0.059555
 Thermal correction to Enthalpy=                  0.060499
 Thermal correction to Gibbs Free Energy=         0.031356
 Sum of electronic and zero-point Energies=           -116.603855
 Sum of electronic and thermal Energies=              -116.599872
 Sum of electronic and thermal Enthalpies=            -116.598928
 Sum of electronic and thermal Free Energies=         -116.628071

                     E (Thermal)             CV                S
                      KCal/Mol        Cal/Mol-Kelvin    Cal/Mol-Kelvin
 Total                   37.371             12.445             61.337
 Electronic               0.000              0.000              0.000
 Translational            0.889              2.981             36.989
 Rotational               0.889              2.981             20.849
 Vibrational             35.594              6.483              3.499
 Vibration     1          0.726              1.578              1.172
 Vibration     2          0.726              1.578              1.172
 Vibration     3          0.973              1.003              0.427
 Vibration     4          0.973              1.003              0.427

 Optimization completed.
    -- Stationary point found.
 Normal termination of Gaussian 09 at Thu Sep  8 15:19:04 2022.
