 Gaussian 09, Revision E.01,
 Gaussian 09:  ES64L-G09RevE.01 30-Nov-2015

 ----------------------------
 #P OPT Freq B3LYP/6-31G(d,p)
 ----------------------------

 --------
 Frag_721
 --------
 Symbolic Z-matrix:
 Charge =  0 Multiplicity = 1

 SCF Done:  E(RB3LYP) =  -359.146793803     A.U. after   14 cycles
 SCF Done:  E(RB3LYP) =  -359.146866821     A.U. after   10 cycles
 SCF Done:  E(RB3LYP) =  -359.146776766     A.U. after   12 cycles
 SCF Done:  E(RB3LYP) =  -359.146887876     A.U. after   11 cycles
 SCF Done:  E(RB3LYP) =  -359.146887714     A.U. after    8 cycles
 SCF Done:  E(RB3LYP) =  -359.146886998     A.U. after    9 cycles
 Optimization completed.
    -- Stationary point found.
 Normal termination of Gaussian 09 at Thu Sep  8 15:05:10 2022.

 ----------------------------------------------------------------------
 #P Geom=AllCheck Guess=TCheck SCRF=Check GenChk RB3LYP/6-31G(d,p) Freq
 ----------------------------------------------------------------------

 Structure from the checkpoint file:  "B3LYP6-31Gdp.Frag_721.chk"
 --------
 Frag_721
 --------
 Charge =  0 Multiplicity = 1

                         Standard orientation:
 ---------------------------------------------------------------------
 Center     Atomic      Atomic             Coordinates (Angstroms)
 Number     Number       Type             X           Y           Z
 ---------------------------------------------------------------------
      1          6           0       -1.148948   -1.097737   -0.838252
      2          6           0       -0.576958    0.056591   -0.016413
      3          6           0       -0.923724   -0.074635    1.479307
      4          7           0       -0.955774    1.316060   -0.629631
      5          7           0        0.957707   -0.042335   -0.063875
      6          7           0        1.588325    1.055910   -0.110340
      7          8           0        1.451053   -1.186796    0.030757
      8          1           0       -0.845820   -0.999437   -1.882517
      9          1           0       -0.810501   -2.057752   -0.450483
     10          1           0       -2.241709   -1.058261   -0.790297
     11          1           0       -0.530906   -1.006963    1.893204
     12          1           0       -0.507135    0.766645    2.040956
     13          1           0       -2.011318   -0.069387    1.598658
     14          1           0       -1.963807    1.424973   -0.556649
     15          1           0       -0.512218    2.091601   -0.145377
     16          1           0        2.580963    0.790181   -0.074480
 ---------------------------------------------------------------------

 SCF Done:  E(RB3LYP) =  -359.146886998     A.U. after    1 cycles

 The electronic state is 1-A.
 Alpha  occ. eigenvalues --  -19.15111 -14.51656 -14.35945 -14.32514 -10.27697
 Alpha  occ. eigenvalues --  -10.19347 -10.18521  -1.15582  -0.95493  -0.90836
 Alpha  occ. eigenvalues --   -0.78202  -0.70664  -0.69220  -0.56191  -0.52281
 Alpha  occ. eigenvalues --   -0.51804  -0.49691  -0.46748  -0.45202  -0.42058
 Alpha  occ. eigenvalues --   -0.40594  -0.39562  -0.37950  -0.36187  -0.32119
 Alpha  occ. eigenvalues --   -0.26899  -0.26554  -0.24714
 Alpha virt. eigenvalues --   -0.03800   0.07047   0.09542   0.12409   0.13255
 Alpha virt. eigenvalues --    0.14852   0.15391   0.16698   0.17667   0.19159
 Alpha virt. eigenvalues --    0.20060   0.20514   0.23351   0.25995   0.28580

 Mulliken charges:
               1
     1  C   -0.297018
     2  C    0.218569
     3  C   -0.301219
     4  N   -0.572511
     5  N    0.235887
     6  N   -0.326181
     7  O   -0.447496
     8  H    0.133184
     9  H    0.139270
    10  H    0.100776
    11  H    0.133009
    12  H    0.117319
    13  H    0.109727
    14  H    0.241922
    15  H    0.262332
    16  H    0.252429
 Sum of Mulliken charges =  -0.00000

 Dipole moment (field-independent basis, Debye):
    X=             -2.2180    Y=              0.7752    Z=              1.2529  Tot=              2.6627
 Quadrupole moment (field-independent basis, Debye-Ang):
   XX=            -38.1464   YY=            -45.1157   ZZ=            -43.8157
   XY=              1.3086   XZ=             -0.5268   YZ=              2.2490

  Exact polarizability:  63.636   2.931  62.855   0.343  -0.761  45.487
 Approx polarizability:  85.612   4.038 117.406   0.843  -4.371  61.265

                      1                      2                      3
                      A                      A                      A
 Frequencies --     50.3246               182.1216               235.0967
 Red. masses --      6.3255                 1.0525                 1.0911
 Frc consts  --      0.0094                 0.0206                 0.0355
 IR Inten    --      0.3359                20.5457                28.3172

                      4                      5                      6
                      A                      A                      A
 Frequencies --    267.2520               273.0983               313.4503
 Red. masses --      1.0938                 2.3450                 2.7599
 Frc consts  --      0.0460                 0.1030                 0.1598
 IR Inten    --      5.5913                 0.5791                10.4546

                      7                      8                      9
                      A                      A                      A
 Frequencies --    362.0726               404.5358               433.2975
 Red. masses --      3.0074                 3.6150                 2.7642
 Frc consts  --      0.2323                 0.3486                 0.3058
 IR Inten    --      0.6356                 3.7778                 3.8691

                     10                     11                     12
                      A                      A                      A
 Frequencies --    531.4813               578.1869               694.8173
 Red. masses --      4.4511                 2.9251                 3.2757
 Frc consts  --      0.7408                 0.5761                 0.9317
 IR Inten    --      5.6350                27.6711                 3.3468

                     13                     14                     15
                      A                      A                      A
 Frequencies --    770.1151               820.9984               885.4202
 Red. masses --      3.6841                 2.3218                 1.4666
 Frc consts  --      1.2873                 0.9220                 0.6774
 IR Inten    --     27.7832                79.2505                95.3032

                     16                     17                     18
                      A                      A                      A
 Frequencies --    920.1109               943.7714               995.7607
 Red. masses --      1.4244                 1.5018                 1.6551
 Frc consts  --      0.7105                 0.7881                 0.9669
 IR Inten    --     59.8346                 4.2287                 3.1171

                     19                     20                     21
                      A                      A                      A
 Frequencies --   1030.2199              1105.7387              1208.0972
 Red. masses --      1.3564                 1.4187                 2.7191
 Frc consts  --      0.8482                 1.0220                 2.3382
 IR Inten    --      4.3561                 6.9945                43.5145

                     22                     23                     24
                      A                      A                      A
 Frequencies --   1265.8302              1288.4511              1346.8008
 Red. masses --      3.1925                 3.0272                 1.8546
 Frc consts  --      3.0139                 2.9610                 1.9821
 IR Inten    --     21.8248                58.9665                15.9874

                     25                     26                     27
                      A                      A                      A
 Frequencies --   1407.3788              1424.3872              1488.2360
 Red. masses --      1.2712                 1.2522                 1.0479
 Frc consts  --      1.4834                 1.4968                 1.3674
 IR Inten    --     13.0533                26.4277                 0.4579

                     28                     29                     30
                      A                      A                      A
 Frequencies --   1499.2396              1507.3812              1513.8786
 Red. masses --      1.0540                 1.1652                 1.3514
 Frc consts  --      1.3958                 1.5599                 1.8248
 IR Inten    --      3.6448                 1.0171                16.4099

                     31                     32                     33
                      A                      A                      A
 Frequencies --   1528.3179              1607.1238              1644.0702
 Red. masses --      1.2159                 5.8072                 1.2266
 Frc consts  --      1.6733                 8.8372                 1.9534
 IR Inten    --      7.0700               240.3075                26.6023

                     34                     35                     36
                      A                      A                      A
 Frequencies --   3052.5069              3067.3826              3131.3539
 Red. masses --      1.0342                 1.0395                 1.1033
 Frc consts  --      5.6779                 5.7627                 6.3742
 IR Inten    --     11.7479                13.8068                15.9889

                     37                     38                     39
                      A                      A                      A
 Frequencies --   3140.5905              3143.2263              3181.3564
 Red. masses --      1.1021                 1.1008                 1.1029
 Frc consts  --      6.4044                 6.4078                 6.5769
 IR Inten    --      8.8868                18.1467                 6.2882

                     40                     41                     42
                      A                      A                      A
 Frequencies --   3413.3875              3506.8942              3602.3075
 Red. masses --      1.0715                 1.0489                 1.0937
 Frc consts  --      7.3558                 7.6000                 8.3618
 IR Inten    --      1.1614                 2.4334                 3.3017

 - Thermochemistry -
 -------------------
 Temperature   298.150 Kelvin.  Pressure   1.00000 Atm.
 Atom     1 has atomic number  6 and mass  12.00000

 Molecular mass:   103.07456 amu.
 Principal axes and moments of inertia in atomic units:
                           1         2         3
     Eigenvalues --   526.65343 720.96341 851.36616
           X            0.99809   0.06157  -0.00521
           Y           -0.06120   0.99663   0.05464
           Z            0.00856  -0.05422   0.99849
 This molecule is an asymmetric top.
 Rotational symmetry number  1.
 Warning -- assumption of classical behavior for rotation
           may cause significant error
 Rotational temperatures (Kelvin)      0.16446     0.12014     0.10174
 Rotational constants (GHZ):           3.42681     2.50324     2.11982
 Zero-point vibrational energy     357480.5 (Joules/Mol)
                                   85.43988 (Kcal/Mol)
 Warning -- explicit consideration of  11 degrees of freedom as
           vibrations may cause significant error
 Vibrational temperatures:     72.41   262.03   338.25   384.52   392.93
          (Kelvin)            450.98   520.94   582.04   623.42   764.68
                              831.88   999.69  1108.02  1181.23  1273.92
                             1323.83  1357.87  1432.68  1482.25  1590.91
                             1738.18  1821.24  1853.79  1937.74  2024.90
                             2049.37  2141.24  2157.07  2168.78  2178.13
                             2198.91  2312.29  2365.45  4391.87  4413.27
                             4505.31  4518.60  4522.40  4577.26  4911.10
                             5045.63  5182.91

 Zero-point correction=                           0.136157 (Hartree/Particle)
 Thermal correction to Energy=                    0.144164
 Thermal correction to Enthalpy=                  0.145108
 Thermal correction to Gibbs Free Energy=         0.104179
 Sum of electronic and zero-point Energies=           -359.010730
 Sum of electronic and thermal Energies=              -359.002723
 Sum of electronic and thermal Enthalpies=            -359.001779
 Sum of electronic and thermal Free Energies=         -359.042708

                     E (Thermal)             CV                S
                      KCal/Mol        Cal/Mol-Kelvin    Cal/Mol-Kelvin
 Total                   90.464             29.266             86.141
 Electronic               0.000              0.000              0.000
 Translational            0.889              2.981             39.808
 Rotational               0.889              2.981             27.272
 Vibrational             88.687             23.305             19.062
 Vibration     1          0.595              1.977              4.805
 Vibration     2          0.630              1.864              2.307
 Vibration     3          0.655              1.787              1.840
 Vibration     4          0.672              1.733              1.614
 Vibration     5          0.676              1.723              1.577
 Vibration     6          0.701              1.648              1.344
 Vibration     7          0.736              1.550              1.113
 Vibration     8          0.770              1.460              0.946
 Vibration     9          0.794              1.398              0.848
 Vibration    10          0.886              1.180              0.584
 Vibration    11          0.935              1.078              0.489

 Optimization completed.
    -- Stationary point found.
 Normal termination of Gaussian 09 at Thu Sep  8 15:05:25 2022.
