 Gaussian 09, Revision E.01,
 Gaussian 09:  ES64L-G09RevE.01 30-Nov-2015

 ----------------------------
 #P OPT Freq B3LYP/6-31G(d,p)
 ----------------------------

 ---------
 Frag_1018
 ---------
 Symbolic Z-matrix:
 Charge =  0 Multiplicity = 1

 SCF Done:  E(RB3LYP) =  -360.859648858     A.U. after   12 cycles
 SCF Done:  E(RB3LYP) =  -360.859712195     A.U. after    9 cycles
 SCF Done:  E(RB3LYP) =  -360.859689827     A.U. after   10 cycles
 SCF Done:  E(RB3LYP) =  -360.859723390     A.U. after    9 cycles
 Optimization completed.
    -- Stationary point found.
 Normal termination of Gaussian 09 at Thu Sep  8 14:52:00 2022.

 ----------------------------------------------------------------------
 #P Geom=AllCheck Guess=TCheck SCRF=Check GenChk RB3LYP/6-31G(d,p) Freq
 ----------------------------------------------------------------------

 Structure from the checkpoint file:  "B3LYP6-31Gdp.Frag_1018.chk"
 ---------
 Frag_1018
 ---------
 Charge =  0 Multiplicity = 1

                         Standard orientation:
 ---------------------------------------------------------------------
 Center     Atomic      Atomic             Coordinates (Angstroms)
 Number     Number       Type             X           Y           Z
 ---------------------------------------------------------------------
      1          7           0        1.974735    0.000965    0.124137
      2          6           0        0.849467   -0.462171   -0.697113
      3          6           0       -0.448378    0.004171   -0.022469
      4          8           0       -0.510497    1.388897   -0.217714
      5          8           0       -1.590536   -0.578161   -0.588986
      6          8           0       -0.432246   -0.340701    1.336448
      7          1           0        2.841756   -0.447886   -0.155113
      8          1           0        2.092985    1.003213   -0.002443
      9          1           0        0.851257   -0.111186   -1.737558
     10          1           0        0.847246   -1.555854   -0.703432
     11          1           0       -1.302576    1.691649    0.250785
     12          1           0       -1.803544   -1.338039   -0.029519
     13          1           0        0.509435   -0.260930    1.587829
 ---------------------------------------------------------------------

 SCF Done:  E(RB3LYP) =  -360.859723390     A.U. after    1 cycles

 The electronic state is 1-A.
 Alpha  occ. eigenvalues --  -19.14752 -19.14636 -19.14290 -14.33208 -10.32590
 Alpha  occ. eigenvalues --  -10.21222  -1.09182  -0.99630  -0.99094  -0.89044
 Alpha  occ. eigenvalues --   -0.70858  -0.60522  -0.55128  -0.52922  -0.48774
 Alpha  occ. eigenvalues --   -0.47209  -0.45364  -0.40453  -0.38177  -0.36350
 Alpha  occ. eigenvalues --   -0.33985  -0.32180  -0.28573  -0.27731  -0.25454
 Alpha virt. eigenvalues --    0.07049   0.09413   0.11897   0.13500   0.15149
 Alpha virt. eigenvalues --    0.15573   0.18355   0.20660   0.25108   0.27171
 Alpha virt. eigenvalues --    0.29206   0.29791   0.54600   0.56625   0.58453

 Mulliken charges:
               1
     1  N   -0.633381
     2  C   -0.080682
     3  C    0.674319
     4  O   -0.526058
     5  O   -0.549137
     6  O   -0.567208
     7  H    0.250075
     8  H    0.264556
     9  H    0.111188
    10  H    0.107147
    11  H    0.308429
    12  H    0.315289
    13  H    0.325463
 Sum of Mulliken charges =  -0.00000

 Dipole moment (field-independent basis, Debye):
    X=              1.7999    Y=             -0.6195    Z=              0.0561  Tot=              1.9044
 Quadrupole moment (field-independent basis, Debye-Ang):
   XX=            -30.0274   YY=            -32.4792   ZZ=            -38.5215
   XY=             -0.2514   XZ=             -3.1245   YZ=              1.5599

  Exact polarizability:  44.101   0.363  38.493  -0.198   0.164  35.385
 Approx polarizability:  55.856   1.469  53.221   0.694  -1.428  49.800

                      1                      2                      3
                      A                      A                      A
 Frequencies --    137.2520               244.1600               280.9319
 Red. masses --      2.8830                 2.5209                 1.2404
 Frc consts  --      0.0320                 0.0885                 0.0577
 IR Inten    --     12.5151                 9.3583                71.8146

                      4                      5                      6
                      A                      A                      A
 Frequencies --    300.1422               329.0582               399.9941
 Red. masses --      1.3492                 1.2384                 2.8725
 Frc consts  --      0.0716                 0.0790                 0.2708
 IR Inten    --     73.4311                36.3968                 5.7565

                      7                      8                      9
                      A                      A                      A
 Frequencies --    448.6107               528.3546               540.1231
 Red. masses --      2.8420                 3.4421                 3.2309
 Frc consts  --      0.3370                 0.5661                 0.5553
 IR Inten    --     23.8117                 8.9833                 5.9588

                     10                     11                     12
                      A                      A                      A
 Frequencies --    634.1797               668.8680               815.1979
 Red. masses --      3.8138                 1.2380                 3.9477
 Frc consts  --      0.9037                 0.3263                 1.5457
 IR Inten    --     21.1660               128.6580                 3.3224

                     13                     14                     15
                      A                      A                      A
 Frequencies --    886.4808               952.8861              1042.2282
 Red. masses --      1.3126                 2.1423                 2.6517
 Frc consts  --      0.6077                 1.1461                 1.6971
 IR Inten    --     96.1416               105.4302                95.3680

                     16                     17                     18
                      A                      A                      A
 Frequencies --   1067.0410              1084.4058              1129.0509
 Red. masses --      1.8139                 2.2768                 2.1704
 Frc consts  --      1.2168                 1.5775                 1.6301
 IR Inten    --    117.3954                47.3507                96.2866

                     19                     20                     21
                      A                      A                      A
 Frequencies --   1212.7001              1305.0934              1336.2244
 Red. masses --      1.6119                 1.2920                 1.4545
 Frc consts  --      1.3967                 1.2965                 1.5301
 IR Inten    --    186.4887                29.0025                 8.3781

                     22                     23                     24
                      A                      A                      A
 Frequencies --   1387.4626              1402.9032              1488.9892
 Red. masses --      1.6849                 1.3586                 1.8226
 Frc consts  --      1.9111                 1.5754                 2.3808
 IR Inten    --    130.3504                58.0338               160.4919

                     25                     26                     27
                      A                      A                      A
 Frequencies --   1509.2452              1654.7959              3035.7526
 Red. masses --      1.1215                 1.0940                 1.0659
 Frc consts  --      1.5052                 1.7651                 5.7879
 IR Inten    --     22.9680                41.6696                42.3190

                     28                     29                     30
                      A                      A                      A
 Frequencies --   3109.6867              3508.0940              3597.5665
 Red. masses --      1.0998                 1.0495                 1.0938
 Frc consts  --      6.2662                 7.6099                 8.3409
 IR Inten    --     25.3126                 1.2870                 3.3315

                     31                     32                     33
                      A                      A                      A
 Frequencies --   3627.8488              3793.1592              3816.5735
 Red. masses --      1.0645                 1.0650                 1.0652
 Frc consts  --      8.2545                 9.0281                 9.1417
 IR Inten    --    129.2546                27.1102                39.9395

 - Thermochemistry -
 -------------------
 Temperature   298.150 Kelvin.  Pressure   1.00000 Atm.
 Atom     1 has atomic number  7 and mass  14.00307

 Molecular mass:    93.04259 amu.
 Principal axes and moments of inertia in atomic units:
                           1         2         3
     Eigenvalues --   343.10452 638.32156 650.65133
           X            0.99971   0.00529  -0.02356
           Y            0.00616   0.88753   0.46071
           Z            0.02335  -0.46072   0.88724
 This molecule is an asymmetric top.
 Rotational symmetry number  1.
 Rotational temperatures (Kelvin)      0.25244     0.13569     0.13312
 Rotational constants (GHZ):           5.26003     2.82732     2.77375
 Zero-point vibrational energy     282767.7 (Joules/Mol)
                                   67.58309 (Kcal/Mol)
 Warning -- explicit consideration of   9 degrees of freedom as
           vibrations may cause significant error
 Vibrational temperatures:    197.47   351.29   404.20   431.84   473.44
          (Kelvin)            575.50   645.45   760.18   777.12   912.44
                              962.35  1172.89  1275.45  1370.99  1499.53
                             1535.23  1560.22  1624.45  1744.80  1877.74
                             1922.53  1996.25  2018.46  2142.32  2171.46
                             2380.88  4367.77  4474.14  5047.36  5176.09
                             5219.66  5457.50  5491.19

 Zero-point correction=                           0.107701 (Hartree/Particle)
 Thermal correction to Energy=                    0.114533
 Thermal correction to Enthalpy=                  0.115477
 Thermal correction to Gibbs Free Energy=         0.077787
 Sum of electronic and zero-point Energies=           -360.752023
 Sum of electronic and thermal Energies=              -360.745190
 Sum of electronic and thermal Enthalpies=            -360.744246
 Sum of electronic and thermal Free Energies=         -360.781936

                     E (Thermal)             CV                S
                      KCal/Mol        Cal/Mol-Kelvin    Cal/Mol-Kelvin
 Total                   71.871             25.334             79.326
 Electronic               0.000              0.000              0.000
 Translational            0.889              2.981             39.503
 Rotational               0.889              2.981             26.458
 Vibrational             70.093             19.373             13.365
 Vibration     1          0.614              1.916              2.842
 Vibration     2          0.659              1.772              1.772
 Vibration     3          0.681              1.709              1.528
 Vibration     4          0.693              1.673              1.416
 Vibration     5          0.712              1.617              1.265
 Vibration     6          0.766              1.470              0.963
 Vibration     7          0.808              1.364              0.800
 Vibration     8          0.883              1.187              0.591
 Vibration     9          0.895              1.161              0.565

 Normal termination of Gaussian 09 at Thu Sep  8 14:52:11 2022.
