 Gaussian 09, Revision E.01,
 Gaussian 09:  ES64L-G09RevE.01 30-Nov-2015

 ----------------------------
 #P OPT Freq B3LYP/6-31G(d,p)
 ----------------------------

 --------
 Frag_468
 --------
 Symbolic Z-matrix:
 Charge =  0 Multiplicity = 1

 SCF Done:  E(RB3LYP) =  -189.243844940     A.U. after   13 cycles
 SCF Done:  E(RB3LYP) =  -189.243912491     A.U. after   10 cycles
 SCF Done:  E(RB3LYP) =  -189.243915000     A.U. after    8 cycles
 SCF Done:  E(RB3LYP) =  -189.243915260     A.U. after    8 cycles
 Optimization completed.
    -- Stationary point found.
 Normal termination of Gaussian 09 at Thu Sep  8 15:23:08 2022.

 ----------------------------------------------------------------------
 #P Geom=AllCheck Guess=TCheck SCRF=Check GenChk RB3LYP/6-31G(d,p) Freq
 ----------------------------------------------------------------------

 Structure from the checkpoint file:  "B3LYP6-31Gdp.Frag_468.chk"
 --------
 Frag_468
 --------
 Charge =  0 Multiplicity = 1

                         Standard orientation:
 ---------------------------------------------------------------------
 Center     Atomic      Atomic             Coordinates (Angstroms)
 Number     Number       Type             X           Y           Z
 ---------------------------------------------------------------------
      1          6           0        1.192679   -0.707554   -0.000003
      2          7           0        0.128087    0.073601    0.000000
      3          6           0       -1.201340   -0.583372    0.000001
      4          7           0        0.185253    1.386909    0.000004
      5          1           0        2.162320   -0.233491    0.000001
      6          1           0        1.063937   -1.776834    0.000005
      7          1           0       -1.102536   -1.667873   -0.000072
      8          1           0       -1.740548   -0.256804   -0.891689
      9          1           0       -1.740496   -0.256914    0.891764
     10          1           0       -0.784094    1.713908   -0.000027
 ---------------------------------------------------------------------

 SCF Done:  E(RB3LYP) =  -189.243915260     A.U. after    1 cycles

 The electronic state is 1-A.
 Alpha  occ. eigenvalues --  -14.44990 -14.30080 -10.24151 -10.19628  -1.02692
 Alpha  occ. eigenvalues --   -0.79760  -0.74409  -0.58094  -0.52502  -0.48087
 Alpha  occ. eigenvalues --   -0.47874  -0.43755  -0.39364  -0.36913  -0.26171
 Alpha  occ. eigenvalues --   -0.17923
 Alpha virt. eigenvalues --   -0.00402   0.07364   0.11621   0.12928   0.15220
 Alpha virt. eigenvalues --    0.16525   0.17011   0.19170   0.29518   0.33505
 Alpha virt. eigenvalues --    0.49070   0.49671   0.54444   0.59393   0.61556

 Mulliken charges:
               1
     1  C   -0.132418
     2  N   -0.093689
     3  C   -0.202033
     4  N   -0.440618
     5  H    0.125053
     6  H    0.104175
     7  H    0.130994
     8  H    0.148243
     9  H    0.148247
    10  H    0.212046
 Sum of Mulliken charges =   0.00000

 Dipole moment (field-independent basis, Debye):
    X=             -2.4735    Y=             -2.5348    Z=             -0.0000  Tot=              3.5417
 Quadrupole moment (field-independent basis, Debye-Ang):
   XX=            -22.2862   YY=            -26.9055   ZZ=            -26.5452
   XY=             -2.3225   XZ=              0.0000   YZ=             -0.0001

  Exact polarizability:  45.090  -9.688  50.488   0.000   0.000  21.003
 Approx polarizability:  66.195 -29.189 100.284  -0.000   0.000  28.903

                      1                      2                      3
                      A                      A                      A
 Frequencies --    150.1906               369.9828               493.2117
 Red. masses --      1.0660                 1.1923                 2.5062
 Frc consts  --      0.0142                 0.0962                 0.3592
 IR Inten    --      0.2250                10.0379                 0.3025

                      4                      5                      6
                      A                      A                      A
 Frequencies --    508.8333               540.8373               638.8473
 Red. masses --      2.2883                 2.7185                 1.1384
 Frc consts  --      0.3491                 0.4685                 0.2737
 IR Inten    --      3.7822                 8.2363               137.5619

                      7                      8                      9
                      A                      A                      A
 Frequencies --    766.4683               877.6124              1091.0623
 Red. masses --      1.3224                 3.6868                 1.5973
 Frc consts  --      0.4577                 1.6730                 1.1203
 IR Inten    --      0.3117                 2.9823                17.5675

                     10                     11                     12
                      A                      A                      A
 Frequencies --   1122.3985              1146.6702              1317.3742
 Red. masses --      1.5684                 1.3878                 1.9545
 Frc consts  --      1.1641                 1.0751                 1.9985
 IR Inten    --     57.1632                 0.0053                13.9804

                     13                     14                     15
                      A                      A                      A
 Frequencies --   1408.7703              1440.7155              1485.7715
 Red. masses --      2.0098                 1.2079                 1.1495
 Frc consts  --      2.3500                 1.4771                 1.4951
 IR Inten    --    175.0239                30.6907                 1.3635

                     16                     17                     18
                      A                      A                      A
 Frequencies --   1488.9467              1516.5744              1687.5309
 Red. masses --      1.0426                 1.0906                 3.1625
 Frc consts  --      1.3618                 1.4779                 5.3062
 IR Inten    --     10.2155                 2.7998                65.5678

                     19                     20                     21
                      A                      A                      A
 Frequencies --   3072.3609              3154.0298              3180.5005
 Red. masses --      1.0316                 1.1058                 1.1061
 Frc consts  --      5.7370                 6.4814                 6.5924
 IR Inten    --     14.4927                 9.2268                 8.7557

                     22                     23                     24
                      A                      A                      A
 Frequencies --   3221.7585              3348.7274              3440.6756
 Red. masses --      1.0506                 1.1255                 1.0752
 Frc consts  --      6.4253                 7.4363                 7.4995
 IR Inten    --      1.9157                 1.2031                 2.5266

 - Thermochemistry -
 -------------------
 Temperature   298.150 Kelvin.  Pressure   1.00000 Atm.
 Atom     1 has atomic number  6 and mass  12.00000

 Molecular mass:    58.05310 amu.
 Principal axes and moments of inertia in atomic units:
                           1         2         3
     Eigenvalues --   169.47029 181.07350 339.09641
           X            0.95626  -0.29253   0.00000
           Y            0.29253   0.95626  -0.00000
           Z           -0.00000   0.00000   1.00000
 This molecule is an asymmetric top.
 Rotational symmetry number  1.
 Rotational temperatures (Kelvin)      0.51109     0.47834     0.25543
 Rotational constants (GHZ):          10.64931     9.96690     5.32221
 Zero-point vibrational energy     224119.5 (Joules/Mol)
                                   53.56584 (Kcal/Mol)
 Warning -- explicit consideration of   5 degrees of freedom as
           vibrations may cause significant error
 Vibrational temperatures:    216.09   532.32   709.62   732.10   778.14
          (Kelvin)            919.16  1102.78  1262.69  1569.79  1614.88
                             1649.80  1895.41  2026.90  2072.87  2137.69
                             2142.26  2182.01  2427.98  4420.44  4537.94
                             4576.03  4635.39  4818.07  4950.36

 Zero-point correction=                           0.085363 (Hartree/Particle)
 Thermal correction to Energy=                    0.090218
 Thermal correction to Enthalpy=                  0.091162
 Thermal correction to Gibbs Free Energy=         0.058555
 Sum of electronic and zero-point Energies=           -189.158553
 Sum of electronic and thermal Energies=              -189.153697
 Sum of electronic and thermal Enthalpies=            -189.152753
 Sum of electronic and thermal Free Energies=         -189.185360

                     E (Thermal)             CV                S
                      KCal/Mol        Cal/Mol-Kelvin    Cal/Mol-Kelvin
 Total                   56.613             16.635             68.628
 Electronic               0.000              0.000              0.000
 Translational            0.889              2.981             38.097
 Rotational               0.889              2.981             23.857
 Vibrational             54.835             10.673              6.673
 Vibration     1          0.618              1.902              2.670
 Vibration     2          0.742              1.534              1.080
 Vibration     3          0.849              1.265              0.675
 Vibration     4          0.864              1.230              0.636
 Vibration     5          0.896              1.160              0.563

 Optimization completed.
    -- Stationary point found.
 Normal termination of Gaussian 09 at Thu Sep  8 15:23:15 2022.
