 Gaussian 09, Revision E.01,
 Gaussian 09:  ES64L-G09RevE.01 30-Nov-2015

 ----------------------------
 #P OPT Freq B3LYP/6-31G(d,p)
 ----------------------------

 ---------
 Frag_1141
 ---------
 Symbolic Z-matrix:
 Charge =  0 Multiplicity = 1

 SCF Done:  E(RB3LYP) =  -228.566482630     A.U. after   15 cycles
 SCF Done:  E(RB3LYP) =  -228.566536932     A.U. after    9 cycles
 SCF Done:  E(RB3LYP) =  -228.566538317     A.U. after    8 cycles
 Optimization completed.
    -- Stationary point found.
 Normal termination of Gaussian 09 at Thu Sep  8 14:47:30 2022.

 ----------------------------------------------------------------------
 #P Geom=AllCheck Guess=TCheck SCRF=Check GenChk RB3LYP/6-31G(d,p) Freq
 ----------------------------------------------------------------------

 Structure from the checkpoint file:  "B3LYP6-31Gdp.Frag_1141.chk"
 ---------
 Frag_1141
 ---------
 Charge =  0 Multiplicity = 1

                         Standard orientation:
 ---------------------------------------------------------------------
 Center     Atomic      Atomic             Coordinates (Angstroms)
 Number     Number       Type             X           Y           Z
 ---------------------------------------------------------------------
      1          6           0       -1.946014   -0.024600    0.000000
      2          6           0       -0.632837   -0.742643   -0.000001
      3          7           0        0.546577   -0.135089    0.000001
      4          6           0        0.576385    1.342892   -0.000001
      5          7           0        1.762264   -0.650275   -0.000000
      6          1           0       -2.100001    0.612749    0.883121
      7          1           0       -2.750466   -0.764242    0.000000
      8          1           0       -2.100002    0.612750   -0.883119
      9          1           0       -0.595888   -1.825989   -0.000001
     10          1           0        0.071911    1.724008   -0.890295
     11          1           0        0.071955    1.724005    0.890320
     12          1           0        1.623844    1.630626   -0.000025
     13          1           0        1.631557   -1.670252   -0.000000
 ---------------------------------------------------------------------

 SCF Done:  E(RB3LYP) =  -228.566538317     A.U. after    1 cycles

 The electronic state is 1-A.
 Alpha  occ. eigenvalues --  -14.44162 -14.29936 -10.22510 -10.20293 -10.19489
 Alpha  occ. eigenvalues --   -1.02056  -0.80273  -0.74857  -0.69332  -0.57598
 Alpha  occ. eigenvalues --   -0.51181  -0.47543  -0.46210  -0.41007  -0.40864
 Alpha  occ. eigenvalues --   -0.40568  -0.37319  -0.35917  -0.26452  -0.17177
 Alpha virt. eigenvalues --    0.00009   0.08612   0.10393   0.12714   0.13090
 Alpha virt. eigenvalues --    0.14442   0.16663   0.17903   0.20714   0.22635
 Alpha virt. eigenvalues --    0.23472   0.31129   0.37942   0.49065   0.50670

 Mulliken charges:
               1
     1  C   -0.358676
     2  C    0.023982
     3  N   -0.133741
     4  C   -0.169679
     5  N   -0.448980
     6  H    0.115605
     7  H    0.120653
     8  H    0.115605
     9  H    0.096103
    10  H    0.134845
    11  H    0.134846
    12  H    0.160646
    13  H    0.208791
 Sum of Mulliken charges =  -0.00000

 Dipole moment (field-independent basis, Debye):
    X=             -2.6145    Y=              0.8433    Z=              0.0000  Tot=              2.7472
 Quadrupole moment (field-independent basis, Debye-Ang):
   XX=            -36.9759   YY=            -26.8562   ZZ=            -32.8504
   XY=              0.9958   XZ=             -0.0000   YZ=             -0.0000

  Exact polarizability:  73.574  -1.816  48.865   0.000   0.000  30.345
 Approx polarizability: 141.621  -1.467  65.024   0.000   0.000  43.242

                      1                      2                      3
                      A                      A                      A
 Frequencies --     88.9489               141.8495               207.8871
 Red. masses --      1.0407                 1.2733                 1.9611
 Frc consts  --      0.0049                 0.0151                 0.0499
 IR Inten    --      0.2109                 0.3683                 0.2904

                      4                      5                      6
                      A                      A                      A
 Frequencies --    300.8147               517.7411               531.6876
 Red. masses --      2.6426                 2.0364                 3.0580
 Frc consts  --      0.1409                 0.3216                 0.5093
 IR Inten    --      1.8027                11.1230                16.6544

                      7                      8                      9
                      A                      A                      A
 Frequencies --    566.7907               639.8705               748.4683
 Red. masses --      3.3197                 1.1447                 1.5954
 Frc consts  --      0.6283                 0.2761                 0.5266
 IR Inten    --      4.7377                 2.2655                98.0043

                     10                     11                     12
                      A                      A                      A
 Frequencies --    844.6858              1008.0196              1043.0018
 Red. masses --      3.3658                 1.6233                 1.3247
 Frc consts  --      1.4149                 0.9718                 0.8490
 IR Inten    --      8.5720                 6.1676                 0.2802

                     13                     14                     15
                      A                      A                      A
 Frequencies --   1105.7665              1146.6520              1149.0721
 Red. masses --      1.7540                 1.3782                 2.0307
 Frc consts  --      1.2636                 1.0677                 1.5798
 IR Inten    --     85.0590                 0.4419                 2.0546

                     16                     17                     18
                      A                      A                      A
 Frequencies --   1291.3782              1351.2662              1430.4388
 Red. masses --      2.5623                 1.3855                 1.2447
 Frc consts  --      2.5176                 1.4905                 1.5005
 IR Inten    --     42.9001                44.3116                 3.8832

                     19                     20                     21
                      A                      A                      A
 Frequencies --   1445.7623              1489.9017              1490.0140
 Red. masses --      1.2003                 1.1172                 1.0429
 Frc consts  --      1.4782                 1.4612                 1.3642
 IR Inten    --      5.6082                17.3850                 0.0463

                     22                     23                     24
                      A                      A                      A
 Frequencies --   1507.4939              1512.1270              1525.1049
 Red. masses --      1.0565                 1.0429                 1.5286
 Frc consts  --      1.4145                 1.4050                 2.0948
 IR Inten    --      2.0061                19.3350                23.9126

                     25                     26                     27
                      A                      A                      A
 Frequencies --   1614.5771              2998.2981              3033.4416
 Red. masses --      4.7900                 1.0423                 1.1011
 Frc consts  --      7.3570                 5.5207                 5.9698
 IR Inten    --    175.8970                53.7585                34.9035

                     28                     29                     30
                      A                      A                      A
 Frequencies --   3077.8766              3125.1889              3153.1367
 Red. masses --      1.0345                 1.0934                 1.1054
 Frc consts  --      5.7740                 6.2917                 6.4751
 IR Inten    --     12.4866                15.8548                11.6101

                     31                     32                     33
                      A                      A                      A
 Frequencies --   3212.4160              3214.8699              3385.3457
 Red. masses --      1.0908                 1.1018                 1.0727
 Frc consts  --      6.6320                 6.7091                 7.2435
 IR Inten    --     13.0693                 3.4350                24.9050

 - Thermochemistry -
 -------------------
 Temperature   298.150 Kelvin.  Pressure   1.00000 Atm.
 Atom     1 has atomic number  6 and mass  12.00000

 Molecular mass:    72.06875 amu.
 Principal axes and moments of inertia in atomic units:
                           1         2         3
     Eigenvalues --   191.89847 453.77180 623.03181
           X            0.99996   0.00912  -0.00000
           Y           -0.00912   0.99996   0.00000
           Z            0.00000  -0.00000   1.00000
 This molecule is an asymmetric top.
 Rotational symmetry number  1.
 Rotational temperatures (Kelvin)      0.45135     0.19088     0.13902
 Rotational constants (GHZ):           9.40467     3.97720     2.89671
 Zero-point vibrational energy     298467.6 (Joules/Mol)
                                   71.33548 (Kcal/Mol)
 Warning -- explicit consideration of   7 degrees of freedom as
           vibrations may cause significant error
 Vibrational temperatures:    127.98   204.09   299.10   432.80   744.91
          (Kelvin)            764.98   815.48   920.63  1076.88  1215.31
                             1450.31  1500.65  1590.95  1649.77  1653.26
                             1858.00  1944.17  2058.08  2080.13  2143.63
                             2143.80  2168.94  2175.61  2194.28  2323.01
                             4313.88  4364.44  4428.37  4496.44  4536.65
                             4621.94  4625.47  4870.75

 Zero-point correction=                           0.113680 (Hartree/Particle)
 Thermal correction to Energy=                    0.119980
 Thermal correction to Enthalpy=                  0.120924
 Thermal correction to Gibbs Free Energy=         0.084255
 Sum of electronic and zero-point Energies=           -228.452858
 Sum of electronic and thermal Energies=              -228.446559
 Sum of electronic and thermal Enthalpies=            -228.445614
 Sum of electronic and thermal Free Energies=         -228.482284

                     E (Thermal)             CV                S
                      KCal/Mol        Cal/Mol-Kelvin    Cal/Mol-Kelvin
 Total                   75.288             21.434             77.177
 Electronic               0.000              0.000              0.000
 Translational            0.889              2.981             38.742
 Rotational               0.889              2.981             25.498
 Vibrational             73.511             15.472             12.937
 Vibration     1          0.602              1.957              3.683
 Vibration     2          0.615              1.911              2.779
 Vibration     3          0.641              1.829              2.062
 Vibration     4          0.693              1.672              1.412
 Vibration     5          0.873              1.211              0.615
 Vibration     6          0.887              1.180              0.583
 Vibration     7          0.923              1.103              0.510

 Optimization completed.
    -- Stationary point found.
 Normal termination of Gaussian 09 at Thu Sep  8 14:47:39 2022.
