 Gaussian 09, Revision E.01,
 Gaussian 09:  ES64L-G09RevE.01 30-Nov-2015

 ----------------------------
 #P OPT Freq B3LYP/6-31G(d,p)
 ----------------------------

 --------
 Frag_989
 --------
 Symbolic Z-matrix:
 Charge =  0 Multiplicity = 1

 SCF Done:  E(RB3LYP) =  -265.695195297     A.U. after   13 cycles
 SCF Done:  E(RB3LYP) =  -265.695242019     A.U. after    8 cycles
 SCF Done:  E(RB3LYP) =  -265.695247808     A.U. after    8 cycles
 SCF Done:  E(RB3LYP) =  -265.695248680     A.U. after    7 cycles
 Optimization completed.
    -- Stationary point found.
 Normal termination of Gaussian 09 at Thu Sep  8 15:13:18 2022.

 ----------------------------------------------------------------------
 #P Geom=AllCheck Guess=TCheck SCRF=Check GenChk RB3LYP/6-31G(d,p) Freq
 ----------------------------------------------------------------------

 Structure from the checkpoint file:  "B3LYP6-31Gdp.Frag_989.chk"
 --------
 Frag_989
 --------
 Charge =  0 Multiplicity = 1

                         Standard orientation:
 ---------------------------------------------------------------------
 Center     Atomic      Atomic             Coordinates (Angstroms)
 Number     Number       Type             X           Y           Z
 ---------------------------------------------------------------------
      1          6           0       -0.739775    1.336775    0.095749
      2          7           0       -0.435470   -0.017262   -0.358040
      3          8           0       -1.547325   -0.847377    0.063774
      4          6           0        0.741940   -0.579787    0.314335
      5          7           0        1.923540    0.123936   -0.159529
      6          1           0       -0.971155    1.371210    1.172239
      7          1           0       -1.597927    1.717800   -0.463216
      8          1           0        0.133983    1.959089   -0.106321
      9          1           0       -1.884643   -1.183311   -0.778246
     10          1           0        0.718318   -1.658404    0.100332
     11          1           0        0.682535   -0.457899    1.409680
     12          1           0        2.722923   -0.094851    0.426782
     13          1           0        2.145094   -0.163263   -1.108958
 ---------------------------------------------------------------------

 SCF Done:  E(RB3LYP) =  -265.695248680     A.U. after    1 cycles

 The electronic state is 1-A.
 Alpha  occ. eigenvalues --  -19.16080 -14.36491 -14.31735 -10.22879 -10.18864
 Alpha  occ. eigenvalues --   -1.04550  -0.89572  -0.81815  -0.68307  -0.59301
 Alpha  occ. eigenvalues --   -0.51789  -0.48814  -0.45593  -0.44040  -0.41098
 Alpha  occ. eigenvalues --   -0.38946  -0.37267  -0.36364  -0.27937  -0.24187
 Alpha  occ. eigenvalues --   -0.22312
 Alpha virt. eigenvalues --    0.07576   0.08886   0.12436   0.14345   0.15755
 Alpha virt. eigenvalues --    0.16724   0.17377   0.18976   0.20155   0.21099
 Alpha virt. eigenvalues --    0.26236   0.27071   0.52575   0.54764   0.57125

 Mulliken charges:
               1
     1  C   -0.139248
     2  N   -0.239829
     3  O   -0.445574
     4  C    0.118052
     5  N   -0.603866
     6  H    0.089909
     7  H    0.103354
     8  H    0.132833
     9  H    0.323762
    10  H    0.085710
    11  H    0.086721
    12  H    0.242590
    13  H    0.245586
 Sum of Mulliken charges =  -0.00000

 Dipole moment (field-independent basis, Debye):
    X=              1.0729    Y=             -0.8942    Z=             -0.6851  Tot=              1.5556
 Quadrupole moment (field-independent basis, Debye-Ang):
   XX=            -27.2263   YY=            -30.9281   ZZ=            -30.3538
   XY=             -2.2005   XZ=              2.5953   YZ=              1.9967

  Exact polarizability:  47.862   1.146  40.559   1.514   0.681  37.094
 Approx polarizability:  60.318   4.814  52.870   1.495   0.494  53.224

                      1                      2                      3
                      A                      A                      A
 Frequencies --    142.4863               238.0140               262.7700
 Red. masses --      2.2930                 1.1578                 1.0709
 Frc consts  --      0.0274                 0.0386                 0.0436
 IR Inten    --      1.3332                26.1090                15.8214

                      4                      5                      6
                      A                      A                      A
 Frequencies --    296.0068               305.6432               414.1087
 Red. masses --      1.1737                 2.6383                 2.3720
 Frc consts  --      0.0606                 0.1452                 0.2397
 IR Inten    --     84.4988                28.3421                 9.3697

                      7                      8                      9
                      A                      A                      A
 Frequencies --    441.2577               521.0548               800.1720
 Red. masses --      3.0901                 4.2242                 1.8339
 Frc consts  --      0.3545                 0.6757                 0.6918
 IR Inten    --      3.9332                 2.0296               125.4196

                     10                     11                     12
                      A                      A                      A
 Frequencies --    858.1373               961.1955               996.2667
 Red. masses --      2.0485                 2.3558                 1.8941
 Frc consts  --      0.8888                 1.2824                 1.1077
 IR Inten    --     39.8156                26.1627                21.2501

                     13                     14                     15
                      A                      A                      A
 Frequencies --   1098.3159              1144.0645              1149.9366
 Red. masses --      2.6902                 1.6537                 1.5136
 Frc consts  --      1.9120                 1.2753                 1.1792
 IR Inten    --     18.5482                23.5947                 8.0388

                     16                     17                     18
                      A                      A                      A
 Frequencies --   1232.4520              1251.4099              1335.2224
 Red. masses --      1.7250                 1.7047                 1.3043
 Frc consts  --      1.5438                 1.5729                 1.3701
 IR Inten    --     27.7865                15.3555                 2.7286

                     19                     20                     21
                      A                      A                      A
 Frequencies --   1364.7653              1422.2313              1451.9778
 Red. masses --      1.2657                 1.2489                 1.2538
 Frc consts  --      1.3890                 1.4884                 1.5573
 IR Inten    --     40.7387                11.1441                13.6526

                     22                     23                     24
                      A                      A                      A
 Frequencies --   1501.0364              1513.0061              1537.3659
 Red. masses --      1.0523                 1.0567                 1.0856
 Frc consts  --      1.3970                 1.4252                 1.5118
 IR Inten    --      9.2033                 5.1802                 0.4089

                     25                     26                     27
                      A                      A                      A
 Frequencies --   1654.4144              2968.2573              2994.0462
 Red. masses --      1.1016                 1.0611                 1.0520
 Frc consts  --      1.7765                 5.5080                 5.5565
 IR Inten    --     28.3189                66.4942                58.2567

                     28                     29                     30
                      A                      A                      A
 Frequencies --   3016.7810              3105.6628              3156.5982
 Red. masses --      1.1019                 1.0827                 1.1029
 Frc consts  --      5.9085                 6.1527                 6.4746
 IR Inten    --     70.4581                32.9863                10.7437

                     31                     32                     33
                      A                      A                      A
 Frequencies --   3510.0296              3604.2061              3798.1599
 Red. masses --      1.0495                 1.0935                 1.0682
 Frc consts  --      7.6182                 8.3692                 9.0794
 IR Inten    --      0.1540                 0.7007                31.5606

 - Thermochemistry -
 -------------------
 Temperature   298.150 Kelvin.  Pressure   1.00000 Atm.
 Atom     1 has atomic number  6 and mass  12.00000

 Molecular mass:    76.06366 amu.
 Principal axes and moments of inertia in atomic units:
                           1         2         3
     Eigenvalues --   211.78466 483.62803 630.11922
           X            0.99883  -0.04789   0.00691
           Y            0.04774   0.99865   0.02024
           Z           -0.00787  -0.01989   0.99977
 This molecule is an asymmetric top.
 Rotational symmetry number  1.
 Rotational temperatures (Kelvin)      0.40897     0.17909     0.13746
 Rotational constants (GHZ):           8.52159     3.73167     2.86413
 Zero-point vibrational energy     299347.8 (Joules/Mol)
                                   71.54585 (Kcal/Mol)
 Warning -- explicit consideration of   8 degrees of freedom as
           vibrations may cause significant error
 Vibrational temperatures:    205.01   342.45   378.07   425.89   439.75
          (Kelvin)            595.81   634.87   749.68  1151.27  1234.67
                             1382.94  1433.40  1580.23  1646.05  1654.50
                             1773.22  1800.50  1921.08  1963.59  2046.27
                             2089.07  2159.65  2176.88  2211.92  2380.33
                             4270.65  4307.76  4340.47  4468.35  4541.64
                             5050.14  5185.64  5464.70

 Zero-point correction=                           0.114016 (Hartree/Particle)
 Thermal correction to Energy=                    0.120455
 Thermal correction to Enthalpy=                  0.121400
 Thermal correction to Gibbs Free Energy=         0.084863
 Sum of electronic and zero-point Energies=           -265.581233
 Sum of electronic and thermal Energies=              -265.574793
 Sum of electronic and thermal Enthalpies=            -265.573849
 Sum of electronic and thermal Free Energies=         -265.610386

                     E (Thermal)             CV                S
                      KCal/Mol        Cal/Mol-Kelvin    Cal/Mol-Kelvin
 Total                   75.587             22.594             76.898
 Electronic               0.000              0.000              0.000
 Translational            0.889              2.981             38.903
 Rotational               0.889              2.981             25.671
 Vibrational             73.809             16.632             12.325
 Vibration     1          0.616              1.911              2.770
 Vibration     2          0.656              1.782              1.818
 Vibration     3          0.670              1.741              1.643
 Vibration     4          0.690              1.681              1.439
 Vibration     5          0.696              1.663              1.386
 Vibration     6          0.778              1.440              0.912
 Vibration     7          0.801              1.380              0.823
 Vibration     8          0.876              1.203              0.608

 Normal termination of Gaussian 09 at Thu Sep  8 15:13:28 2022.
