 Gaussian 09, Revision E.01,
 Gaussian 09:  ES64L-G09RevE.01 30-Nov-2015

 ----------------------------
 #P OPT Freq B3LYP/6-31G(d,p)
 ----------------------------

 --------
 Frag_711
 --------
 Symbolic Z-matrix:
 Charge =  0 Multiplicity = 1

 SCF Done:  E(RB3LYP) =  -209.111489142     A.U. after   13 cycles
 SCF Done:  E(RB3LYP) =  -209.111549308     A.U. after    9 cycles
 SCF Done:  E(RB3LYP) =  -209.111555595     A.U. after    8 cycles
 SCF Done:  E(RB3LYP) =  -209.111556823     A.U. after    8 cycles
 Optimization completed.
    -- Stationary point found.
 Normal termination of Gaussian 09 at Thu Sep  8 15:21:52 2022.

 ----------------------------------------------------------------------
 #P Geom=AllCheck Guess=TCheck SCRF=Check GenChk RB3LYP/6-31G(d,p) Freq
 ----------------------------------------------------------------------

 Structure from the checkpoint file:  "B3LYP6-31Gdp.Frag_711.chk"
 --------
 Frag_711
 --------
 Charge =  0 Multiplicity = 1

                         Standard orientation:
 ---------------------------------------------------------------------
 Center     Atomic      Atomic             Coordinates (Angstroms)
 Number     Number       Type             X           Y           Z
 ---------------------------------------------------------------------
      1          6           0       -1.864990   -0.075087    0.000006
      2          6           0       -0.608738    0.366461   -0.000004
      3          8           0        0.456423   -0.498267   -0.000013
      4          7           0        1.702054    0.231678    0.000018
      5          1           0       -2.681021    0.636171    0.000014
      6          1           0       -2.099814   -1.133479    0.000006
      7          1           0       -0.323961    1.414277   -0.000002
      8          1           0        2.190740   -0.150458    0.811996
      9          1           0        2.190662   -0.150365   -0.812052
 ---------------------------------------------------------------------

 SCF Done:  E(RB3LYP) =  -209.111556823     A.U. after    1 cycles

 The electronic state is 1-A.
 Alpha  occ. eigenvalues --  -19.19540 -14.38522 -10.22989 -10.16077  -1.08159
 Alpha  occ. eigenvalues --   -0.84394  -0.72271  -0.56641  -0.52034  -0.51585
 Alpha  occ. eigenvalues --   -0.44776  -0.40176  -0.36246  -0.35913  -0.27417
 Alpha  occ. eigenvalues --   -0.21912
 Alpha virt. eigenvalues --    0.04494   0.06670   0.08796   0.14182   0.15246
 Alpha virt. eigenvalues --    0.16279   0.18963   0.28871   0.35328   0.52759
 Alpha virt. eigenvalues --    0.54378   0.60732   0.61052   0.61273   0.64669

 Mulliken charges:
               1
     1  C   -0.302888
     2  C    0.231457
     3  O   -0.414137
     4  N   -0.355298
     5  H    0.099198
     6  H    0.098461
     7  H    0.106151
     8  H    0.268529
     9  H    0.268529
 Sum of Mulliken charges =  -0.00000

 Dipole moment (field-independent basis, Debye):
    X=              1.6479    Y=             -0.1288    Z=             -0.0001  Tot=              1.6529
 Quadrupole moment (field-independent basis, Debye-Ang):
   XX=            -18.3968   YY=            -24.7496   ZZ=            -24.3184
   XY=             -2.2216   XZ=             -0.0001   YZ=             -0.0002

  Exact polarizability:  53.942   2.347  27.176  -0.000  -0.000  18.718
 Approx polarizability:  72.861   5.602  37.586  -0.000  -0.000  25.382

                      1                      2                      3
                      A                      A                      A
 Frequencies --     45.5126               223.3770               342.5120
 Red. masses --      2.5751                 1.1627                 2.7408
 Frc consts  --      0.0031                 0.0342                 0.1894
 IR Inten    --      6.8246                54.4995                 4.3756

                      4                      5                      6
                      A                      A                      A
 Frequencies --    549.0817               693.2644               831.1012
 Red. masses --      3.6032                 1.4506                 1.4244
 Frc consts  --      0.6401                 0.4108                 0.5797
 IR Inten    --      4.5265                 2.8636                54.2638

                      7                      8                      9
                      A                      A                      A
 Frequencies --    869.8516               998.2722               999.1561
 Red. masses --      2.4749                 3.3804                 1.1099
 Frc consts  --      1.1033                 1.9848                 0.6528
 IR Inten    --      5.9245                41.3620                17.6054

                     10                     11                     12
                      A                      A                      A
 Frequencies --   1149.7215              1286.6528              1318.6613
 Red. masses --      1.7509                 1.9193                 1.1901
 Frc consts  --      1.3636                 1.8721                 1.2193
 IR Inten    --     70.1122               139.7187                 2.5741

                     13                     14                     15
                      A                      A                      A
 Frequencies --   1327.5642              1431.3910              1663.6656
 Red. masses --      1.1040                 1.2004                 1.0695
 Frc consts  --      1.1464                 1.4491                 1.7441
 IR Inten    --      0.8635                10.2348                15.9041

                     16                     17                     18
                      A                      A                      A
 Frequencies --   1721.8114              3182.5430              3206.2379
 Red. masses --      4.7572                 1.0573                 1.0972
 Frc consts  --      8.3094                 6.3093                 6.6457
 IR Inten    --    137.6745                 1.9593                 6.3210

                     19                     20                     21
                      A                      A                      A
 Frequencies --   3278.3599              3430.5419              3519.5448
 Red. masses --      1.1171                 1.0480                 1.0956
 Frc consts  --      7.0736                 7.2666                 7.9960
 IR Inten    --      7.3486                 1.1304                 0.0092

 - Thermochemistry -
 -------------------
 Temperature   298.150 Kelvin.  Pressure   1.00000 Atm.
 Atom     1 has atomic number  6 and mass  12.00000

 Molecular mass:    59.03711 amu.
 Principal axes and moments of inertia in atomic units:
                           1         2         3
     Eigenvalues --    41.02021 403.07746 434.60517
           X            0.99999  -0.00443  -0.00000
           Y            0.00443   0.99999  -0.00001
           Z            0.00000   0.00001   1.00000
 This molecule is an asymmetric top.
 Rotational symmetry number  1.
 Rotational temperatures (Kelvin)      2.11149     0.21488     0.19929
 Rotational constants (GHZ):          43.99639     4.47741     4.15260
 Zero-point vibrational energy     191814.2 (Joules/Mol)
                                   45.84469 (Kcal/Mol)
 Warning -- explicit consideration of   4 degrees of freedom as
           vibrations may cause significant error
 Vibrational temperatures:     65.48   321.39   492.80   790.01   997.45
          (Kelvin)           1195.77  1251.52  1436.29  1437.56  1654.19
                             1851.20  1897.26  1910.07  2059.45  2393.64
                             2477.30  4578.96  4613.06  4716.82  4935.78
                             5063.83

 Zero-point correction=                           0.073058 (Hartree/Particle)
 Thermal correction to Energy=                    0.078203
 Thermal correction to Enthalpy=                  0.079148
 Thermal correction to Gibbs Free Energy=         0.045263
 Sum of electronic and zero-point Energies=           -209.038499
 Sum of electronic and thermal Energies=              -209.033353
 Sum of electronic and thermal Enthalpies=            -209.032409
 Sum of electronic and thermal Free Energies=         -209.066294

                     E (Thermal)             CV                S
                      KCal/Mol        Cal/Mol-Kelvin    Cal/Mol-Kelvin
 Total                   49.073             16.061             71.317
 Electronic               0.000              0.000              0.000
 Translational            0.889              2.981             38.147
 Rotational               0.889              2.981             23.490
 Vibrational             47.296             10.100              9.680
 Vibration     1          0.595              1.979              5.003
 Vibration     2          0.649              1.805              1.932
 Vibration     3          0.722              1.590              1.200
 Vibration     4          0.904              1.142              0.546

 Optimization completed.
    -- Stationary point found.
 Normal termination of Gaussian 09 at Thu Sep  8 15:21:58 2022.
