 Gaussian 09, Revision E.01,
 Gaussian 09:  ES64L-G09RevE.01 30-Nov-2015

 -------------------------
 #P OPT Freq B3LYP/6-31G**
 -------------------------

 --------
 Frag_227
 --------
 Symbolic Z-matrix:
 Charge =  0 Multiplicity = 1

 SCF Done:  E(RB3LYP) =  -361.394013123     A.U. after   14 cycles
 SCF Done:  E(RB3LYP) =  -361.412503476     A.U. after   12 cycles
 SCF Done:  E(RB3LYP) =  -361.414446651     A.U. after   12 cycles
 SCF Done:  E(RB3LYP) =  -361.415200789     A.U. after   12 cycles
 SCF Done:  E(RB3LYP) =  -361.416197570     A.U. after   12 cycles
 SCF Done:  E(RB3LYP) =  -361.416680306     A.U. after   12 cycles
 SCF Done:  E(RB3LYP) =  -361.416945935     A.U. after   12 cycles
 SCF Done:  E(RB3LYP) =  -361.417054265     A.U. after   11 cycles
 SCF Done:  E(RB3LYP) =  -361.417112033     A.U. after   11 cycles
 SCF Done:  E(RB3LYP) =  -361.417182451     A.U. after   11 cycles
 SCF Done:  E(RB3LYP) =  -361.417216743     A.U. after   11 cycles
 SCF Done:  E(RB3LYP) =  -361.417230869     A.U. after   11 cycles
 SCF Done:  E(RB3LYP) =  -361.417235370     A.U. after    8 cycles
 SCF Done:  E(RB3LYP) =  -361.417236222     A.U. after    8 cycles
 SCF Done:  E(RB3LYP) =  -361.417236313     A.U. after    6 cycles
 SCF Done:  E(RB3LYP) =  -361.417236424     A.U. after    7 cycles
 Optimization completed.
    -- Stationary point found.
 Normal termination of Gaussian 09 at Sat Aug 21 01:39:46 2021.

 ----------------------------------------------------------------------
 #P Geom=AllCheck Guess=TCheck SCRF=Check GenChk RB3LYP/6-31G(d,p) Freq
 ----------------------------------------------------------------------

 Structure from the checkpoint file:  "/public/home/users/caep010/.cache/gau_scr/Gau-205925.chk"
 --------
 Frag_227
 --------
 Charge =  0 Multiplicity = 1

                         Standard orientation:
 ---------------------------------------------------------------------
 Center     Atomic      Atomic             Coordinates (Angstroms)
 Number     Number       Type             X           Y           Z
 ---------------------------------------------------------------------
      1          7           0       -2.573186    0.042380   -0.307187
      2          6           0       -1.319194   -0.064043   -0.030820
      3          7           0       -0.513386   -1.178574   -0.238436
      4          6           0        0.697518   -1.390143    0.552318
      5          6           0        1.905118   -0.638341   -0.041876
      6          6           0        1.490857    0.689874   -0.691585
      7          6           0        0.611563    1.591897    0.178235
      8          7           0       -0.680153    1.009730    0.590874
      9          1           0       -2.961962   -0.860086   -0.586519
     10          1           0       -1.012756   -1.999766   -0.543090
     11          1           0        0.524642   -1.056786    1.582734
     12          1           0        0.897606   -2.465163    0.587647
     13          1           0        2.398230   -1.255985   -0.801884
     14          1           0        2.642355   -0.465438    0.752200
     15          1           0        2.387992    1.261127   -0.957183
     16          1           0        0.965204    0.480549   -1.628547
     17          1           0        0.428773    2.520419   -0.381328
     18          1           0        1.163545    1.875100    1.085329
     19          1           0       -1.381734    1.715813    0.776260
 ---------------------------------------------------------------------

 SCF Done:  E(RB3LYP) =  -361.417236424     A.U. after    1 cycles

 The electronic state is 1-A.
 Alpha  occ. eigenvalues --  -14.34123 -14.33011 -14.26729 -10.26565 -10.21942
 Alpha  occ. eigenvalues --  -10.21892 -10.18779 -10.18639  -0.96688  -0.88315
 Alpha  occ. eigenvalues --   -0.84191  -0.77787  -0.71300  -0.65620  -0.58841
 Alpha  occ. eigenvalues --   -0.57237  -0.50955  -0.48094  -0.46831  -0.46242
 Alpha  occ. eigenvalues --   -0.44054  -0.42317  -0.40433  -0.38561  -0.35695
 Alpha  occ. eigenvalues --   -0.34502  -0.33632  -0.32577  -0.24571  -0.23530
 Alpha  occ. eigenvalues --   -0.20533
 Alpha virt. eigenvalues --    0.06068   0.07283   0.09623   0.12382   0.12514
 Alpha virt. eigenvalues --    0.14034   0.15077   0.15537   0.16859   0.17333
 Alpha virt. eigenvalues --    0.18292   0.19540   0.20433   0.22015   0.23354

 Mulliken charges:
               1
     1  N   -0.617074
     2  C    0.596784
     3  N   -0.532623
     4  C   -0.056009
     5  C   -0.167119
     6  C   -0.200316
     7  C   -0.038195
     8  N   -0.529531
     9  H    0.194424
    10  H    0.247748
    11  H    0.124330
    12  H    0.098758
    13  H    0.096250
    14  H    0.093007
    15  H    0.098084
    16  H    0.122913
    17  H    0.102211
    18  H    0.101358
    19  H    0.264998
 Sum of Mulliken charges =   0.00000

 Dipole moment (field-independent basis, Debye):
    X=              2.7732    Y=             -1.3439    Z=              0.0796  Tot=              3.0827
 Quadrupole moment (field-independent basis, Debye-Ang):
   XX=            -55.6436   YY=            -41.6092   ZZ=            -50.3482
   XY=              4.0973   XZ=             -0.0730   YZ=              1.5252

  Exact polarizability:  87.019   1.199  73.245   5.016   3.175  53.473
 Approx polarizability: 120.921  -0.364  99.860  10.373   7.797  80.489

                      1                      2                      3
                      A                      A                      A
 Frequencies --     71.3238               114.7794               270.0024
 Red. masses --      2.3382                 4.1727                 1.7493
 Frc consts  --      0.0070                 0.0324                 0.0751
 IR Inten    --      2.4914                 6.0034                 1.0927

                      4                      5                      6
                      A                      A                      A
 Frequencies --    287.9146               306.0887               367.8159
 Red. masses --      2.5326                 1.8912                 3.0744
 Frc consts  --      0.1237                 0.1044                 0.2451
 IR Inten    --      2.3643                35.4576                 6.8839

                      7                      8                      9
                      A                      A                      A
 Frequencies --    417.7070               486.9243               572.1107
 Red. masses --      1.8710                 3.1787                 1.8446
 Frc consts  --      0.1923                 0.4440                 0.3557
 IR Inten    --      4.9465                13.0793                34.8673

                     10                     11                     12
                      A                      A                      A
 Frequencies --    625.7736               703.8907               746.2189
 Red. masses --      1.8229                 1.8355                 3.6197
 Frc consts  --      0.4206                 0.5358                 1.1876
 IR Inten    --     50.6067                34.6642                82.8882

                     13                     14                     15
                      A                      A                      A
 Frequencies --    775.9019               783.8089               839.6948
 Red. masses --      1.3878                 2.4047                 2.1359
 Frc consts  --      0.4923                 0.8704                 0.8873
 IR Inten    --     17.5758                 7.4070                 0.9600

                     16                     17                     18
                      A                      A                      A
 Frequencies --    890.4806               909.5645               948.0275
 Red. masses --      2.0205                 2.3721                 1.8095
 Frc consts  --      0.9440                 1.1563                 0.9582
 IR Inten    --      0.6652                 3.8859                 6.8254

                     19                     20                     21
                      A                      A                      A
 Frequencies --   1014.7845              1065.2293              1078.4027
 Red. masses --      1.8489                 1.8238                 1.9823
 Frc consts  --      1.1218                 1.2193                 1.3583
 IR Inten    --      5.0975                11.8477                62.5251

                     22                     23                     24
                      A                      A                      A
 Frequencies --   1141.4019              1169.5201              1184.1136
 Red. masses --      1.9847                 2.2484                 1.8706
 Frc consts  --      1.5234                 1.8119                 1.5453
 IR Inten    --      1.1410                 7.5289               119.1082

                     25                     26                     27
                      A                      A                      A
 Frequencies --   1229.2512              1261.1239              1302.5385
 Red. masses --      1.2360                 1.3659                 1.3036
 Frc consts  --      1.1004                 1.2799                 1.3031
 IR Inten    --     15.2275                 1.1225                20.7542

                     28                     29                     30
                      A                      A                      A
 Frequencies --   1306.8988              1362.9543              1387.6821
 Red. masses --      1.1450                 1.3900                 1.3939
 Frc consts  --      1.1522                 1.5214                 1.5815
 IR Inten    --      2.6046                39.9193                30.3236

                     31                     32                     33
                      A                      A                      A
 Frequencies --   1397.8829              1419.5769              1441.2210
 Red. masses --      1.3098                 1.3537                 1.5162
 Frc consts  --      1.5080                 1.6072                 1.8555
 IR Inten    --     10.1262                31.8956                26.2460

                     34                     35                     36
                      A                      A                      A
 Frequencies --   1461.1014              1484.9367              1494.9346
 Red. masses --      1.4009                 1.3831                 1.1732
 Frc consts  --      1.7621                 1.7969                 1.5448
 IR Inten    --      9.0711                41.9499                18.3614

                     37                     38                     39
                      A                      A                      A
 Frequencies --   1506.1012              1518.0945              1542.8498
 Red. masses --      1.1336                 1.3016                 1.1931
 Frc consts  --      1.5150                 1.7674                 1.6734
 IR Inten    --     13.4254                46.8658                35.1614

                     40                     41                     42
                      A                      A                      A
 Frequencies --   1726.2292              3004.8095              3030.9138
 Red. masses --      4.6424                 1.0593                 1.1018
 Frc consts  --      8.1507                 5.6350                 5.9636
 IR Inten    --    387.9138                70.3129                21.6223

                     43                     44                     45
                      A                      A                      A
 Frequencies --   3036.0629              3042.4574              3059.0789
 Red. masses --      1.0614                 1.0669                 1.0655
 Frc consts  --      5.7646                 5.8185                 5.8747
 IR Inten    --     21.4300                58.5875                33.0437

                     46                     47                     48
                      A                      A                      A
 Frequencies --   3075.1084              3100.6055              3105.4160
 Red. masses --      1.1010                 1.1024                 1.1031
 Frc consts  --      6.1345                 6.2441                 6.2678
 IR Inten    --     26.9848                25.4551                54.1666

                     49                     50                     51
                      A                      A                      A
 Frequencies --   3476.5095              3598.2824              3648.4845
 Red. masses --      1.0749                 1.0747                 1.0773
 Frc consts  --      7.6546                 8.1982                 8.4494
 IR Inten    --      9.3414                20.0222                15.5715

 - Thermochemistry -
 -------------------
 Temperature   298.150 Kelvin.  Pressure   1.00000 Atm.
 Atom     1 has atomic number  7 and mass  14.00307

 Molecular mass:   113.09530 amu.
 Principal axes and moments of inertia in atomic units:
                           1         2         3
     Eigenvalues --   548.67367 946.628561301.82123
           X            0.99985   0.01707  -0.00065
           Y           -0.01708   0.99984  -0.00460
           Z            0.00057   0.00461   0.99999
 This molecule is an asymmetric top.
 Rotational symmetry number  1.
 Warning -- assumption of classical behavior for rotation
           may cause significant error
 Rotational temperatures (Kelvin)      0.15786     0.09150     0.06653
 Rotational constants (GHZ):           3.28928     1.90649     1.38632
 Zero-point vibrational energy     447359.0 (Joules/Mol)
                                  106.92137 (Kcal/Mol)
 Warning -- explicit consideration of   9 degrees of freedom as
           vibrations may cause significant error
 Vibrational temperatures:    102.62   165.14   388.47   414.24   440.39
          (Kelvin)            529.20   600.99   700.57   823.14   900.35
                             1012.74  1073.64  1116.35  1127.72  1208.13
                             1281.20  1308.66  1364.00  1460.05  1532.63
                             1551.58  1642.22  1682.68  1703.67  1768.62
                             1814.47  1874.06  1880.33  1960.98  1996.56
                             2011.24  2042.45  2073.59  2102.20  2136.49
                             2150.87  2166.94  2184.20  2219.81  2483.66
                             4323.25  4360.80  4368.21  4377.41  4401.33
                             4424.39  4461.07  4468.00  5001.92  5177.12
                             5249.35

 Zero-point correction=                           0.170390 (Hartree/Particle)
 Thermal correction to Energy=                    0.178081
 Thermal correction to Enthalpy=                  0.179025
 Thermal correction to Gibbs Free Energy=         0.138315
 Sum of electronic and zero-point Energies=           -361.246846
 Sum of electronic and thermal Energies=              -361.239155
 Sum of electronic and thermal Enthalpies=            -361.238211
 Sum of electronic and thermal Free Energies=         -361.278922

                     E (Thermal)             CV                S
                      KCal/Mol        Cal/Mol-Kelvin    Cal/Mol-Kelvin
 Total                  111.748             29.548             85.683
 Electronic               0.000              0.000              0.000
 Translational            0.889              2.981             40.085
 Rotational               0.889              2.981             28.005
 Vibrational            109.970             23.586             17.594
 Vibration     1          0.598              1.968              4.116
 Vibration     2          0.608              1.937              3.186
 Vibration     3          0.674              1.728              1.596
 Vibration     4          0.685              1.696              1.486
 Vibration     5          0.696              1.662              1.383
 Vibration     6          0.740              1.538              1.089
 Vibration     7          0.781              1.432              0.900
 Vibration     8          0.843              1.279              0.692
 Vibration     9          0.928              1.092              0.500

 Normal termination of Gaussian 09 at Sat Aug 21 01:40:07 2021.
