 Gaussian 09, Revision E.01,
 Gaussian 09:  ES64L-G09RevE.01 30-Nov-2015

 ----------------------------
 #P OPT Freq B3LYP/6-31G(d,p)
 ----------------------------

 ---------
 Frag_1051
 ---------
 Symbolic Z-matrix:
 Charge =  0 Multiplicity = 1

 SCF Done:  E(RB3LYP) =  -324.462252122     A.U. after   14 cycles
 SCF Done:  E(RB3LYP) =  -324.462284691     A.U. after    8 cycles
 SCF Done:  E(RB3LYP) =  -324.462290003     A.U. after    7 cycles
 SCF Done:  E(RB3LYP) =  -324.462290592     A.U. after    7 cycles
 Optimization completed.
    -- Stationary point found.
 Normal termination of Gaussian 09 at Thu Sep  8 14:46:49 2022.

 ----------------------------------------------------------------------
 #P Geom=AllCheck Guess=TCheck SCRF=Check GenChk RB3LYP/6-31G(d,p) Freq
 ----------------------------------------------------------------------

 Structure from the checkpoint file:  "B3LYP6-31Gdp.Frag_1051.chk"
 ---------
 Frag_1051
 ---------
 Charge =  0 Multiplicity = 1

                         Standard orientation:
 ---------------------------------------------------------------------
 Center     Atomic      Atomic             Coordinates (Angstroms)
 Number     Number       Type             X           Y           Z
 ---------------------------------------------------------------------
      1          6           0       -0.723990    0.000255    1.540485
      2          6           0       -0.614193    0.000009    0.001403
      3          6           0       -1.291908   -1.251812   -0.577325
      4          6           0       -1.292142    1.251509   -0.577755
      5          7           0        0.809338    0.000020   -0.464628
      6          7           0        1.477969    1.195980   -0.064110
      7          7           0        1.477943   -1.195943   -0.064087
      8          1           0       -1.774575    0.000223    1.847422
      9          1           0       -0.258166   -0.890911    1.974523
     10          1           0       -0.258308    0.891639    1.974231
     11          1           0       -2.361094   -1.236564   -0.341841
     12          1           0       -0.852952   -2.165107   -0.173579
     13          1           0       -1.178188   -1.272176   -1.665472
     14          1           0       -2.361337    1.236104   -0.342323
     15          1           0       -0.853404    2.165024   -0.174278
     16          1           0       -1.178373    1.271555   -1.665903
     17          1           0        1.855020    1.099405    0.886057
     18          1           0        2.271537    1.320080   -0.688010
     19          1           0        1.854989   -1.099361    0.886082
     20          1           0        2.271511   -1.320071   -0.687981
 ---------------------------------------------------------------------

 SCF Done:  E(RB3LYP) =  -324.462290592     A.U. after    1 cycles

 The electronic state is 1-A.
 Alpha  occ. eigenvalues --  -14.36751 -14.33994 -14.33993 -10.21134 -10.16687
 Alpha  occ. eigenvalues --  -10.15534 -10.15533  -0.99674  -0.84804  -0.80456
 Alpha  occ. eigenvalues --   -0.69244  -0.67503  -0.66736  -0.53751  -0.50751
 Alpha  occ. eigenvalues --   -0.50048  -0.46354  -0.45700  -0.42031  -0.41220
 Alpha  occ. eigenvalues --   -0.37980  -0.36592  -0.35531  -0.35029  -0.32254
 Alpha  occ. eigenvalues --   -0.31501  -0.28819  -0.22999  -0.22473
 Alpha virt. eigenvalues --    0.05991   0.11156   0.11266   0.12732   0.13591
 Alpha virt. eigenvalues --    0.15813   0.17005   0.17652   0.18358   0.18853
 Alpha virt. eigenvalues --    0.19388   0.20840   0.21304   0.23221   0.24204

 Mulliken charges:
               1
     1  C   -0.331773
     2  C    0.198421
     3  C   -0.290003
     4  C   -0.290013
     5  N   -0.254170
     6  N   -0.434198
     7  N   -0.434199
     8  H    0.105457
     9  H    0.099164
    10  H    0.099181
    11  H    0.086848
    12  H    0.118233
    13  H    0.101658
    14  H    0.086857
    15  H    0.118225
    16  H    0.101662
    17  H    0.211883
    18  H    0.247443
    19  H    0.211881
    20  H    0.247443
 Sum of Mulliken charges =   0.00000

 Dipole moment (field-independent basis, Debye):
    X=              2.0297    Y=             -0.0000    Z=              1.0275  Tot=              2.2750
 Quadrupole moment (field-independent basis, Debye-Ang):
   XX=            -37.1939   YY=            -49.5153   ZZ=            -44.9417
   XY=             -0.0002   XZ=              0.2972   YZ=              0.0001

  Exact polarizability:  71.515   0.000  64.809   0.600   0.000  61.957
 Approx polarizability:  92.874   0.000  89.734   0.455  -0.000  88.520

                      1                      2                      3
                      A                      A                      A
 Frequencies --     84.8603               198.3287               248.1252
 Red. masses --      2.9209                 1.1135                 1.2009
 Frc consts  --      0.0124                 0.0258                 0.0436
 IR Inten    --      0.5143                 0.0000                 3.1487

                      4                      5                      6
                      A                      A                      A
 Frequencies --    250.1096               274.4756               291.5888
 Red. masses --      1.0246                 1.7507                 2.5107
 Frc consts  --      0.0378                 0.0777                 0.1258
 IR Inten    --      0.3338                 8.8963                 0.4913

                      7                      8                      9
                      A                      A                      A
 Frequencies --    325.4657               352.0533               358.8307
 Red. masses --      1.0541                 1.5497                 2.5182
 Frc consts  --      0.0658                 0.1132                 0.1910
 IR Inten    --      5.2467                39.8717                 3.3311

                     10                     11                     12
                      A                      A                      A
 Frequencies --    390.9231               416.1794               506.7377
 Red. masses --      2.3731                 1.7711                 2.3349
 Frc consts  --      0.2137                 0.1807                 0.3533
 IR Inten    --     10.2265                22.6263                 9.3921

                     13                     14                     15
                      A                      A                      A
 Frequencies --    512.3702               550.6525               697.6556
 Red. masses --      3.2800                 2.5958                 3.9301
 Frc consts  --      0.5073                 0.4637                 1.1270
 IR Inten    --     15.0999                 0.4466                 4.2600

                     16                     17                     18
                      A                      A                      A
 Frequencies --    820.6658               854.7788               898.3727
 Red. masses --      3.0512                 1.7445                 2.1044
 Frc consts  --      1.2107                 0.7510                 1.0007
 IR Inten    --      5.1092               210.3059                 4.4319

                     19                     20                     21
                      A                      A                      A
 Frequencies --    923.2056               931.9979               963.0149
 Red. masses --      1.6776                 1.5918                 1.2113
 Frc consts  --      0.8424                 0.8146                 0.6619
 IR Inten    --      1.1231                 0.9328                 0.0246

                     22                     23                     24
                      A                      A                      A
 Frequencies --   1044.1633              1045.9843              1113.4940
 Red. masses --      1.4114                 1.4013                 2.6599
 Frc consts  --      0.9066                 0.9033                 1.9431
 IR Inten    --      0.7447                 6.6697                 4.9057

                     25                     26                     27
                      A                      A                      A
 Frequencies --   1190.2295              1252.6921              1254.4432
 Red. masses --      2.0701                 2.4639                 1.3510
 Frc consts  --      1.7279                 2.2780                 1.2526
 IR Inten    --     29.0323                 8.5296                 6.6015

                     28                     29                     30
                      A                      A                      A
 Frequencies --   1268.7571              1289.9969              1354.0786
 Red. masses --      2.8054                 1.9832                 1.3467
 Frc consts  --      2.6607                 1.9444                 1.4548
 IR Inten    --     24.4463                 0.2482                12.9560

                     31                     32                     33
                      A                      A                      A
 Frequencies --   1400.2608              1407.1639              1433.4778
 Red. masses --      1.2809                 1.2841                 1.2369
 Frc consts  --      1.4797                 1.4981                 1.4976
 IR Inten    --     13.8568                 7.2570                10.7232

                     34                     35                     36
                      A                      A                      A
 Frequencies --   1483.3500              1501.2165              1506.9732
 Red. masses --      1.0499                 1.0490                 1.0434
 Frc consts  --      1.3610                 1.3928                 1.3961
 IR Inten    --      0.2427                 1.5944                 0.1910

                     37                     38                     39
                      A                      A                      A
 Frequencies --   1509.5988              1516.2352              1537.8711
 Red. masses --      1.0536                 1.0580                 1.0563
 Frc consts  --      1.4146                 1.4331                 1.4720
 IR Inten    --      0.6687                 4.4757                 7.0248

                     40                     41                     42
                      A                      A                      A
 Frequencies --   1651.8917              1694.9034              3041.4059
 Red. masses --      1.0715                 1.0878                 1.0352
 Frc consts  --      1.7227                 1.8411                 5.6417
 IR Inten    --      0.7166                25.3519                24.5402

                     43                     44                     45
                      A                      A                      A
 Frequencies --   3049.2862              3056.7705              3112.9101
 Red. masses --      1.0374                 1.0380                 1.1027
 Frc consts  --      5.6833                 5.7146                 6.2957
 IR Inten    --     11.8423                28.0298                24.1056

                     46                     47                     48
                      A                      A                      A
 Frequencies --   3114.8335              3117.0504              3125.1907
 Red. masses --      1.1010                 1.1026                 1.1016
 Frc consts  --      6.2935                 6.3117                 6.3394
 IR Inten    --     15.0868                 1.9782                65.8960

                     49                     50                     51
                      A                      A                      A
 Frequencies --   3154.3376              3155.1966              3353.1492
 Red. masses --      1.1003                 1.1002                 1.0550
 Frc consts  --      6.4501                 6.4529                 6.9891
 IR Inten    --     18.5598                19.1637                43.2740

                     52                     53                     54
                      A                      A                      A
 Frequencies --   3364.2172              3533.6064              3540.2080
 Red. masses --      1.0581                 1.0825                 1.0851
 Frc consts  --      7.0560                 7.9633                 8.0123
 IR Inten    --      7.0008                 0.4362                 0.0058

 - Thermochemistry -
 -------------------
 Temperature   298.150 Kelvin.  Pressure   1.00000 Atm.
 Atom     1 has atomic number  6 and mass  12.00000

 Molecular mass:   103.11095 amu.
 Principal axes and moments of inertia in atomic units:
                           1         2         3
     Eigenvalues --   572.37474 773.53216 922.49348
           X            0.99986  -0.00000   0.01673
           Y            0.00000   1.00000   0.00000
           Z           -0.01673  -0.00000   0.99986
 This molecule is an asymmetric top.
 Rotational symmetry number  1.
 Warning -- assumption of classical behavior for rotation
           may cause significant error
 Rotational temperatures (Kelvin)      0.15132     0.11197     0.09389
 Rotational constants (GHZ):           3.15308     2.33312     1.95637
 Zero-point vibrational energy     478657.8 (Joules/Mol)
                                  114.40196 (Kcal/Mol)
 Warning -- explicit consideration of  14 degrees of freedom as
           vibrations may cause significant error
 Vibrational temperatures:    122.09   285.35   357.00   359.85   394.91
          (Kelvin)            419.53   468.27   506.53   516.28   562.45
                              598.79   729.08   737.19   792.27  1003.77
                             1180.75  1229.83  1292.56  1328.29  1340.94
                             1385.56  1502.32  1504.94  1602.07  1712.47
                             1802.34  1804.86  1825.46  1856.02  1948.21
                             2014.66  2024.59  2062.45  2134.21  2159.91
                             2168.20  2171.97  2181.52  2212.65  2376.70
                             2438.58  4375.90  4387.24  4398.01  4478.78
                             4481.55  4484.73  4496.45  4538.38  4539.62
                             4824.43  4840.35  5084.07  5093.56

 Zero-point correction=                           0.182311 (Hartree/Particle)
 Thermal correction to Energy=                    0.191328
 Thermal correction to Enthalpy=                  0.192272
 Thermal correction to Gibbs Free Energy=         0.150115
 Sum of electronic and zero-point Energies=           -324.279979
 Sum of electronic and thermal Energies=              -324.270963
 Sum of electronic and thermal Enthalpies=            -324.270018
 Sum of electronic and thermal Free Energies=         -324.312175

                     E (Thermal)             CV                S
                      KCal/Mol        Cal/Mol-Kelvin    Cal/Mol-Kelvin
 Total                  120.060             34.587             88.726
 Electronic               0.000              0.000              0.000
 Translational            0.889              2.981             39.809
 Rotational               0.889              2.981             27.504
 Vibrational            118.283             28.626             21.413
 Vibration     1          0.601              1.960              3.775
 Vibration     2          0.637              1.842              2.149
 Vibration     3          0.662              1.766              1.744
 Vibration     4          0.663              1.763              1.730
 Vibration     5          0.677              1.720              1.568
 Vibration     6          0.687              1.689              1.465
 Vibration     7          0.710              1.625              1.283
 Vibration     8          0.729              1.571              1.157
 Vibration     9          0.734              1.557              1.127
 Vibration    10          0.759              1.490              0.997
 Vibration    11          0.779              1.435              0.905
 Vibration    12          0.862              1.235              0.641
 Vibration    13          0.867              1.223              0.628
 Vibration    14          0.906              1.138              0.543

 Optimization completed.
    -- Stationary point found.
 Normal termination of Gaussian 09 at Thu Sep  8 14:47:08 2022.
