 Gaussian 09, Revision E.01,
 Gaussian 09:  ES64L-G09RevE.01 30-Nov-2015

 --------------------------------
 #P OPT=calcfc Freq B3LYP/6-31G**
 --------------------------------

 --------
 Frag_359
 --------
 Symbolic Z-matrix:
 Charge =  0 Multiplicity = 1

 SCF Done:  E(RB3LYP) =  -260.605108736     A.U. after   14 cycles
 SCF Done:  E(RB3LYP) =  -260.607604883     A.U. after   14 cycles
 SCF Done:  E(RB3LYP) =  -260.617150599     A.U. after   14 cycles
 SCF Done:  E(RB3LYP) =  -260.568780668     A.U. after   14 cycles
 SCF Done:  E(RB3LYP) =  -260.617339103     A.U. after    9 cycles
 SCF Done:  E(RB3LYP) =  -260.618342149     A.U. after   12 cycles
 SCF Done:  E(RB3LYP) =  -260.618463986     A.U. after   11 cycles
 SCF Done:  E(RB3LYP) =  -260.618497383     A.U. after   11 cycles
 SCF Done:  E(RB3LYP) =  -260.618499463     A.U. after    9 cycles
 SCF Done:  E(RB3LYP) =  -260.618499864     A.U. after    8 cycles
 Optimization completed.
    -- Stationary point found.
 Normal termination of Gaussian 09 at Fri Sep 10 20:43:07 2021.

 ----------------------------------------------------------------------
 #P Geom=AllCheck Guess=TCheck SCRF=Check GenChk RB3LYP/6-31G(d,p) Freq
 ----------------------------------------------------------------------

 Structure from the checkpoint file:  "/public/home/users/caep010/.cache/gau_scr/Gau-189569.chk"
 --------
 Frag_359
 --------
 Charge =  0 Multiplicity = 1

                         Standard orientation:
 ---------------------------------------------------------------------
 Center     Atomic      Atomic             Coordinates (Angstroms)
 Number     Number       Type             X           Y           Z
 ---------------------------------------------------------------------
      1          6           0       -1.863300   -0.107584   -0.063344
      2          7           0       -0.749291   -0.722502    0.059585
      3          7           0        0.398371   -0.001054    0.346491
      4          7           0        1.559180   -0.680087   -0.143685
      5          7           0        0.364917    1.361991   -0.056297
      6          1           0       -1.966214    0.974013    0.009279
      7          1           0       -2.740241   -0.724695   -0.239444
      8          1           0        1.276252   -1.257854   -0.938694
      9          1           0        1.843924   -1.327905    0.588402
     10          1           0        0.716787    1.428331   -1.015735
     11          1           0        1.037052    1.845169    0.533596
 ---------------------------------------------------------------------

 SCF Done:  E(RB3LYP) =  -260.618499864     A.U. after    1 cycles

 The electronic state is 1-A.
 Alpha  occ. eigenvalues --  -14.41256 -14.35729 -14.35061 -14.34779 -10.20617
 Alpha  occ. eigenvalues --   -1.04411  -0.88992  -0.86734  -0.71351  -0.58549
 Alpha  occ. eigenvalues --   -0.52321  -0.51361  -0.49823  -0.47074  -0.42323
 Alpha  occ. eigenvalues --   -0.35711  -0.29290  -0.27293  -0.25651  -0.22671
 Alpha virt. eigenvalues --    0.00356   0.08324   0.10896   0.13539   0.15025
 Alpha virt. eigenvalues --    0.15368   0.17184   0.21020   0.22809   0.25844
 Alpha virt. eigenvalues --    0.33205   0.54578   0.60134   0.61166   0.64536

 Mulliken charges:
               1
     1  C   -0.057491
     2  N   -0.205434
     3  N   -0.115879
     4  N   -0.441649
     5  N   -0.428054
     6  H    0.124574
     7  H    0.105679
     8  H    0.243879
     9  H    0.266539
    10  H    0.240895
    11  H    0.266940
 Sum of Mulliken charges =  -0.00000

 Dipole moment (field-independent basis, Debye):
    X=              0.6445    Y=              0.3199    Z=             -0.7388  Tot=              1.0313
 Quadrupole moment (field-independent basis, Debye-Ang):
   XX=            -28.3794   YY=            -28.1970   ZZ=            -29.3372
   XY=             -0.5126   XZ=              0.9635   YZ=              0.1143

  Exact polarizability:  57.097  -1.626  40.511   2.173   0.412  26.818
 Approx polarizability:  82.219  -5.819  56.426   5.876   0.264  39.521

                      1                      2                      3
                      A                      A                      A
 Frequencies --    166.6672               189.2180               259.1704
 Red. masses --      1.0677                 3.1662                 1.1426
 Frc consts  --      0.0175                 0.0668                 0.0452
 IR Inten    --     76.0568                14.6290                 4.5034

                      4                      5                      6
                      A                      A                      A
 Frequencies --    355.7276               391.2722               491.7158
 Red. masses --      2.8468                 2.5667                 2.8039
 Frc consts  --      0.2122                 0.2315                 0.3994
 IR Inten    --      5.1148                31.4574                28.3347

                      7                      8                      9
                      A                      A                      A
 Frequencies --    618.9788               783.2096               814.8851
 Red. masses --      3.4280                 5.0311                 1.3249
 Frc consts  --      0.7738                 1.8183                 0.5183
 IR Inten    --      0.4746                39.0300                 3.4444

                     10                     11                     12
                      A                      A                      A
 Frequencies --    880.4110               945.9296               984.5329
 Red. masses --      2.4178                 2.0827                 1.3643
 Frc consts  --      1.1042                 1.0980                 0.7792
 IR Inten    --    183.6273                42.7657                26.6440

                     13                     14                     15
                      A                      A                      A
 Frequencies --   1161.5808              1201.2024              1251.2240
 Red. masses --      2.2405                 1.5965                 2.4084
 Frc consts  --      1.7811                 1.3572                 2.2215
 IR Inten    --     16.8204                43.3823                12.5555

                     16                     17                     18
                      A                      A                      A
 Frequencies --   1290.8370              1341.0077              1457.6413
 Red. masses --      1.1037                 1.2701                 1.1635
 Frc consts  --      1.0836                 1.3457                 1.4565
 IR Inten    --      0.5517                16.2446                 4.9214

                     19                     20                     21
                      A                      A                      A
 Frequencies --   1672.2212              1679.2995              1697.5398
 Red. masses --      1.4363                 1.1528                 2.1776
 Frc consts  --      2.3664                 1.9154                 3.6971
 IR Inten    --      6.4303                26.2853                 7.3298

                     22                     23                     24
                      A                      A                      A
 Frequencies --   3122.9511              3229.0742              3411.4693
 Red. masses --      1.0528                 1.1200                 1.0560
 Frc consts  --      6.0493                 6.8808                 7.2408
 IR Inten    --      6.5268                11.8214                 5.8558

                     25                     26                     27
                      A                      A                      A
 Frequencies --   3430.3227              3539.8547              3560.6163
 Red. masses --      1.0521                 1.0899                 1.0857
 Frc consts  --      7.2940                 8.0465                 8.1097
 IR Inten    --      9.4843                 1.8848                 3.2355

 - Thermochemistry -
 -------------------
 Temperature   298.150 Kelvin.  Pressure   1.00000 Atm.
 Atom     1 has atomic number  6 and mass  12.00000

 Molecular mass:    74.05925 amu.
 Principal axes and moments of inertia in atomic units:
                           1         2         3
     Eigenvalues --   196.16821 394.69279 557.16685
           X            0.99982  -0.01864   0.00340
           Y            0.01864   0.99982   0.00216
           Z           -0.00344  -0.00209   0.99999
 This molecule is an asymmetric top.
 Rotational symmetry number  1.
 Rotational temperatures (Kelvin)      0.44153     0.21945     0.15545
 Rotational constants (GHZ):           9.19997     4.57252     3.23914
 Zero-point vibrational energy     238825.8 (Joules/Mol)
                                   57.08074 (Kcal/Mol)
 Warning -- explicit consideration of   7 degrees of freedom as
           vibrations may cause significant error
 Vibrational temperatures:    239.80   272.24   372.89   511.81   562.95
          (Kelvin)            707.47   890.57  1126.86  1172.44  1266.71
                             1360.98  1416.52  1671.25  1728.26  1800.23
                             1857.22  1929.41  2097.22  2405.95  2416.13
                             2442.38  4493.22  4645.91  4908.34  4935.46
                             5093.05  5122.93

 Zero-point correction=                           0.090964 (Hartree/Particle)
 Thermal correction to Energy=                    0.096900
 Thermal correction to Enthalpy=                  0.097844
 Thermal correction to Gibbs Free Energy=         0.062356
 Sum of electronic and zero-point Energies=           -260.527536
 Sum of electronic and thermal Energies=              -260.521600
 Sum of electronic and thermal Enthalpies=            -260.520656
 Sum of electronic and thermal Free Energies=         -260.556144

                     E (Thermal)             CV                S
                      KCal/Mol        Cal/Mol-Kelvin    Cal/Mol-Kelvin
 Total                   60.806             20.522             74.691
 Electronic               0.000              0.000              0.000
 Translational            0.889              2.981             38.823
 Rotational               0.889              2.981             25.270
 Vibrational             59.028             14.560             10.597
 Vibration     1          0.624              1.883              2.473
 Vibration     2          0.633              1.855              2.235
 Vibration     3          0.668              1.747              1.667
 Vibration     4          0.731              1.563              1.141
 Vibration     5          0.759              1.489              0.995
 Vibration     6          0.847              1.268              0.679
 Vibration     7          0.979              0.992              0.418

 Normal termination of Gaussian 09 at Fri Sep 10 20:43:15 2021.
