 Gaussian 09, Revision E.01,
 Gaussian 09:  ES64L-G09RevE.01 30-Nov-2015

 ----------------------------
 #P OPT Freq B3LYP/6-31G(d,p)
 ----------------------------

 --------
 Frag_903
 --------
 Symbolic Z-matrix:
 Charge =  0 Multiplicity = 1

 SCF Done:  E(RB3LYP) =  -359.610925783     A.U. after   14 cycles
 SCF Done:  E(RB3LYP) =  -359.611069853     A.U. after   10 cycles
 SCF Done:  E(RB3LYP) =  -359.611063436     A.U. after   11 cycles
 SCF Done:  E(RB3LYP) =  -359.611104993     A.U. after    9 cycles
 SCF Done:  E(RB3LYP) =  -359.611117668     A.U. after    9 cycles
 SCF Done:  E(RB3LYP) =  -359.611128639     A.U. after   10 cycles
 SCF Done:  E(RB3LYP) =  -359.611129785     A.U. after    8 cycles
 SCF Done:  E(RB3LYP) =  -359.611130332     A.U. after    8 cycles
 SCF Done:  E(RB3LYP) =  -359.611130431     A.U. after    7 cycles
 SCF Done:  E(RB3LYP) =  -359.611130460     A.U. after    7 cycles
 Optimization completed.
    -- Stationary point found.
 Normal termination of Gaussian 09 at Thu Sep  8 15:00:35 2022.

 ----------------------------------------------------------------------
 #P Geom=AllCheck Guess=TCheck SCRF=Check GenChk RB3LYP/6-31G(d,p) Freq
 ----------------------------------------------------------------------

 Structure from the checkpoint file:  "B3LYP6-31Gdp.Frag_903.chk"
 --------
 Frag_903
 --------
 Charge =  0 Multiplicity = 1

                         Standard orientation:
 ---------------------------------------------------------------------
 Center     Atomic      Atomic             Coordinates (Angstroms)
 Number     Number       Type             X           Y           Z
 ---------------------------------------------------------------------
      1          6           0       -1.598993   -0.931287    0.050136
      2          7           0       -0.593040    0.077947   -0.238158
      3          8           0       -1.017516    1.364693    0.165242
      4          6           0        0.740052   -0.214063   -0.025145
      5          8           0        1.191361   -1.343716    0.022066
      6          8           0        1.500936    0.905594    0.025773
      7          1           0       -1.179980   -1.902953   -0.207451
      8          1           0       -1.879665   -0.923102    1.110256
      9          1           0       -2.484365   -0.734269   -0.558015
     10          1           0       -0.959184    1.895580   -0.643457
     11          1           0        2.409878    0.578651    0.111177
 ---------------------------------------------------------------------

 SCF Done:  E(RB3LYP) =  -359.611130460     A.U. after    1 cycles

 The electronic state is 1-A.
 Alpha  occ. eigenvalues --  -19.19799 -19.19584 -19.12699 -14.41338 -10.33878
 Alpha  occ. eigenvalues --  -10.22121  -1.12164  -1.07658  -1.01302  -0.87411
 Alpha  occ. eigenvalues --   -0.72169  -0.60717  -0.56724  -0.50285  -0.48509
 Alpha  occ. eigenvalues --   -0.46035  -0.42963  -0.41691  -0.41598  -0.39666
 Alpha  occ. eigenvalues --   -0.32853  -0.31796  -0.27916  -0.24934
 Alpha virt. eigenvalues --    0.03274   0.06374   0.08203   0.10943   0.14180
 Alpha virt. eigenvalues --    0.16181   0.17312   0.19189   0.24599   0.36849
 Alpha virt. eigenvalues --    0.36952   0.50852   0.54188   0.54471   0.57058

 Mulliken charges:
               1
     1  C   -0.158281
     2  N   -0.255286
     3  O   -0.409857
     4  C    0.750658
     5  O   -0.503097
     6  O   -0.497896
     7  H    0.155034
     8  H    0.127748
     9  H    0.119697
    10  H    0.338921
    11  H    0.332359
 Sum of Mulliken charges =  -0.00000

 Dipole moment (field-independent basis, Debye):
    X=             -0.7411    Y=              1.2855    Z=             -0.9625  Tot=              1.7687
 Quadrupole moment (field-independent basis, Debye-Ang):
   XX=            -28.9017   YY=            -36.1226   ZZ=            -33.8094
   XY=              3.7645   XZ=              1.5229   YZ=             -2.7134

  Exact polarizability:  46.446  -1.242  42.928   0.768  -1.438  25.570
 Approx polarizability:  59.731  -7.410  67.200   1.671  -1.784  36.477

                      1                      2                      3
                      A                      A                      A
 Frequencies --    124.6826               158.1820               235.4293
 Red. masses --      4.0768                 1.3413                 1.2696
 Frc consts  --      0.0373                 0.0198                 0.0415
 IR Inten    --      1.2208                 0.9697                47.5044

                      4                      5                      6
                      A                      A                      A
 Frequencies --    245.2915               315.1205               396.1420
 Red. masses --      2.5701                 3.1201                 4.1034
 Frc consts  --      0.0911                 0.1825                 0.3794
 IR Inten    --     34.8504                49.7937                 1.2431

                      7                      8                      9
                      A                      A                      A
 Frequencies --    556.1903               560.1737               583.6315
 Red. masses --      1.1554                 4.4883                 6.4513
 Frc consts  --      0.2106                 0.8298                 1.2947
 IR Inten    --     95.8254                46.2044                 4.0635

                     10                     11                     12
                      A                      A                      A
 Frequencies --    769.4091               787.4085              1010.0708
 Red. masses --     10.1531                 4.6550                 2.4747
 Frc consts  --      3.5413                 1.7005                 1.4875
 IR Inten    --     43.5030                23.6530                 0.6542

                     13                     14                     15
                      A                      A                      A
 Frequencies --   1142.3604              1158.8724              1205.3695
 Red. masses --      2.0552                 2.0614                 2.2642
 Frc consts  --      1.5802                 1.6311                 1.9382
 IR Inten    --    164.3896                28.8238               149.4631

                     16                     17                     18
                      A                      A                      A
 Frequencies --   1277.4353              1411.7148              1441.7592
 Red. masses --      1.7328                 1.2266                 1.2663
 Frc consts  --      1.6660                 1.4402                 1.5508
 IR Inten    --     44.7033                56.7347                21.2725

                     19                     20                     21
                      A                      A                      A
 Frequencies --   1472.9185              1497.6536              1532.1642
 Red. masses --      2.5277                 1.0473                 1.1989
 Frc consts  --      3.2310                 1.3840                 1.6583
 IR Inten    --    175.5843                 8.0933                26.0770

                     22                     23                     24
                      A                      A                      A
 Frequencies --   1823.0914              3044.0835              3123.8810
 Red. masses --      9.2189                 1.0425                 1.0971
 Frc consts  --     18.0529                 5.6916                 6.3077
 IR Inten    --    346.3873                39.5706                24.2254

                     25                     26                     27
                      A                      A                      A
 Frequencies --   3185.0718              3772.7381              3797.4775
 Red. masses --      1.1015                 1.0684                 1.0646
 Frc consts  --      6.5837                 8.9596                 9.0457
 IR Inten    --      2.5711                37.9740                83.3020

 - Thermochemistry -
 -------------------
 Temperature   298.150 Kelvin.  Pressure   1.00000 Atm.
 Atom     1 has atomic number  6 and mass  12.00000

 Molecular mass:    91.02694 amu.
 Principal axes and moments of inertia in atomic units:
                           1         2         3
     Eigenvalues --   337.40730 497.13321 811.01335
           X            0.99261   0.12128   0.00266
           Y           -0.12123   0.99251  -0.01522
           Z           -0.00449   0.01478   0.99988
 This molecule is an asymmetric top.
 Rotational symmetry number  1.
 Rotational temperatures (Kelvin)      0.25670     0.17423     0.10680
 Rotational constants (GHZ):           5.34885     3.63030     2.22529
 Zero-point vibrational energy     219086.0 (Joules/Mol)
                                   52.36282 (Kcal/Mol)
 Warning -- explicit consideration of   9 degrees of freedom as
           vibrations may cause significant error
 Vibrational temperatures:    179.39   227.59   338.73   352.92   453.39
          (Kelvin)            569.96   800.23   805.96   839.71  1107.01
                             1132.90  1453.26  1643.60  1667.36  1734.26
                             1837.94  2031.14  2074.37  2119.20  2154.79
                             2204.44  2623.02  4379.75  4494.56  4582.60
                             5428.12  5463.72

 Zero-point correction=                           0.083445 (Hartree/Particle)
 Thermal correction to Energy=                    0.090153
 Thermal correction to Enthalpy=                  0.091097
 Thermal correction to Gibbs Free Energy=         0.053240
 Sum of electronic and zero-point Energies=           -359.527685
 Sum of electronic and thermal Energies=              -359.520977
 Sum of electronic and thermal Enthalpies=            -359.520033
 Sum of electronic and thermal Free Energies=         -359.557891

                     E (Thermal)             CV                S
                      KCal/Mol        Cal/Mol-Kelvin    Cal/Mol-Kelvin
 Total                   56.572             22.796             79.678
 Electronic               0.000              0.000              0.000
 Translational            0.889              2.981             39.438
 Rotational               0.889              2.981             26.412
 Vibrational             54.794             16.835             13.829
 Vibration     1          0.610              1.928              3.026
 Vibration     2          0.621              1.893              2.571
 Vibration     3          0.655              1.787              1.837
 Vibration     4          0.660              1.771              1.764
 Vibration     5          0.702              1.645              1.335
 Vibration     6          0.763              1.478              0.977
 Vibration     7          0.912              1.126              0.531
 Vibration     8          0.916              1.117              0.523
 Vibration     9          0.941              1.067              0.479

 Optimization completed.
    -- Stationary point found.
 Normal termination of Gaussian 09 at Thu Sep  8 15:00:44 2022.
