 Gaussian 09, Revision E.01,
 Gaussian 09:  ES64L-G09RevE.01 30-Nov-2015

 ----------------------------
 #P OPT Freq B3LYP/6-31G(d,p)
 ----------------------------

 --------
 Frag_817
 --------
 Symbolic Z-matrix:
 Charge =  0 Multiplicity = 1

 SCF Done:  E(RB3LYP) =  -279.354348744     A.U. after   15 cycles
 SCF Done:  E(RB3LYP) =  -279.354461508     A.U. after   13 cycles
 SCF Done:  E(RB3LYP) =  -279.354464165     A.U. after   13 cycles
 SCF Done:  E(RB3LYP) =  -279.354450564     A.U. after   13 cycles
 SCF Done:  E(RB3LYP) =  -279.354481058     A.U. after   12 cycles
 SCF Done:  E(RB3LYP) =  -279.354481609     A.U. after    9 cycles
 Optimization completed.
    -- Stationary point found.
 Normal termination of Gaussian 09 at Thu Sep  8 15:16:37 2022.

 ----------------------------------------------------------------------
 #P Geom=AllCheck Guess=TCheck SCRF=Check GenChk RB3LYP/6-31G(d,p) Freq
 ----------------------------------------------------------------------

 Structure from the checkpoint file:  "B3LYP6-31Gdp.Frag_817.chk"
 --------
 Frag_817
 --------
 Charge =  0 Multiplicity = 1

                         Standard orientation:
 ---------------------------------------------------------------------
 Center     Atomic      Atomic             Coordinates (Angstroms)
 Number     Number       Type             X           Y           Z
 ---------------------------------------------------------------------
      1          7           0       -1.846648   -0.188656   -0.000223
      2          7           0       -0.762385   -0.782741    0.000180
      3          6           0        0.427348    0.146119    0.000686
      4          7           0        1.556622   -0.580453   -0.000392
      5          8           0        0.315992    1.355949   -0.000044
      6          1           0       -1.671423    0.850278   -0.000670
      7          1           0        1.490845   -1.586670    0.000312
      8          1           0        2.455438   -0.124969   -0.000358
 ---------------------------------------------------------------------

 SCF Done:  E(RB3LYP) =  -279.354481609     A.U. after    1 cycles

 The electronic state is 1-A.
 Alpha  occ. eigenvalues --  -19.15133 -14.40172 -14.39460 -14.39181 -10.32872
 Alpha  occ. eigenvalues --   -1.08634  -1.02434  -0.94395  -0.71435  -0.60701
 Alpha  occ. eigenvalues --   -0.58446  -0.53437  -0.45975  -0.45703  -0.38206
 Alpha  occ. eigenvalues --   -0.37795  -0.31246  -0.30195  -0.24889
 Alpha virt. eigenvalues --   -0.07917   0.05239   0.06404   0.10910   0.12906
 Alpha virt. eigenvalues --    0.21823   0.29672   0.35001   0.37043   0.52692
 Alpha virt. eigenvalues --    0.53804   0.57430   0.62867   0.66706   0.66731

 Mulliken charges:
               1
     1  N   -0.201785
     2  N   -0.238581
     3  C    0.660176
     4  N   -0.588956
     5  O   -0.475330
     6  H    0.249641
     7  H    0.300979
     8  H    0.293856
 Sum of Mulliken charges =  -0.00000

 Dipole moment (field-independent basis, Debye):
    X=              3.2742    Y=             -1.1340    Z=              0.0020  Tot=              3.4650
 Quadrupole moment (field-independent basis, Debye-Ang):
   XX=            -24.8153   YY=            -30.7107   ZZ=            -28.1851
   XY=             -5.6398   XZ=              0.0021   YZ=             -0.0021

  Exact polarizability:  45.640  -5.808  34.994  -0.001  -0.003  15.206
 Approx polarizability:  68.525 -13.665  61.203  -0.002  -0.007  22.308

                      1                      2                      3
                      A                      A                      A
 Frequencies --    167.6934               345.5102               348.3171
 Red. masses --      4.3394                 4.2515                 1.2101
 Frc consts  --      0.0719                 0.2990                 0.0865
 IR Inten    --     14.9027                20.7533               224.3402

                      4                      5                      6
                      A                      A                      A
 Frequencies --    469.6776               589.3977               686.0436
 Red. masses --      3.9764                 1.4551                 2.0461
 Frc consts  --      0.5168                 0.2978                 0.5674
 IR Inten    --      7.5676                38.9929                48.9056

                      7                      8                      9
                      A                      A                      A
 Frequencies --    702.0016               747.8525              1072.4540
 Red. masses --      4.3209                 5.0049                 1.4587
 Frc consts  --      1.2546                 1.6492                 0.9885
 IR Inten    --     13.2342                10.1655                44.3798

                     10                     11                     12
                      A                      A                      A
 Frequencies --   1110.7169              1339.2261              1509.2654
 Red. masses --      1.9123                 3.3687                 1.2729
 Frc consts  --      1.3900                 3.5597                 1.7084
 IR Inten    --      2.6523               102.6348                80.0748

                     13                     14                     15
                      A                      A                      A
 Frequencies --   1611.2275              1688.0487              1867.1782
 Red. masses --      1.2823                 9.9685                10.5012
 Frc consts  --      1.9614                16.7359                21.5704
 IR Inten    --    127.0059                 2.6910               306.6975

                     16                     17                     18
                      A                      A                      A
 Frequencies --   3044.2160              3608.6224              3748.9801
 Red. masses --      1.0679                 1.0445                 1.1067
 Frc consts  --      5.8309                 8.0135                 9.1642
 IR Inten    --     22.8855                70.6258                72.5353

 - Thermochemistry -
 -------------------
 Temperature   298.150 Kelvin.  Pressure   1.00000 Atm.
 Atom     1 has atomic number  7 and mass  14.00307

 Molecular mass:    73.02761 amu.
 Principal axes and moments of inertia in atomic units:
                           1         2         3
     Eigenvalues --   165.85973 374.81400 540.67366
           X            0.99755  -0.06999   0.00001
           Y            0.06999   0.99755  -0.00002
           Z           -0.00001   0.00002   1.00000
 This molecule is an asymmetric top.
 Rotational symmetry number  1.
 Rotational temperatures (Kelvin)      0.52221     0.23108     0.16020
 Rotational constants (GHZ):          10.88113     4.81503     3.33795
 Zero-point vibrational energy     147478.2 (Joules/Mol)
                                   35.24813 (Kcal/Mol)
 Warning -- explicit consideration of   5 degrees of freedom as
           vibrations may cause significant error
 Vibrational temperatures:    241.27   497.11   501.15   675.76   848.01
          (Kelvin)            987.06  1010.02  1075.99  1543.02  1598.07
                             1926.85  2171.49  2318.19  2428.72  2686.45
                             4379.94  5192.00  5393.94

 Zero-point correction=                           0.056171 (Hartree/Particle)
 Thermal correction to Energy=                    0.061157
 Thermal correction to Enthalpy=                  0.062102
 Thermal correction to Gibbs Free Energy=         0.028419
 Sum of electronic and zero-point Energies=           -279.298310
 Sum of electronic and thermal Energies=              -279.293324
 Sum of electronic and thermal Enthalpies=            -279.292380
 Sum of electronic and thermal Free Energies=         -279.326063

                     E (Thermal)             CV                S
                      KCal/Mol        Cal/Mol-Kelvin    Cal/Mol-Kelvin
 Total                   38.377             16.687             70.892
 Electronic               0.000              0.000              0.000
 Translational            0.889              2.981             38.781
 Rotational               0.889              2.981             25.022
 Vibrational             36.599             10.726              7.088
 Vibration     1          0.624              1.882              2.461
 Vibration     2          0.724              1.584              1.187
 Vibration     3          0.726              1.579              1.174
 Vibration     4          0.827              1.317              0.738
 Vibration     5          0.947              1.054              0.468

 Optimization completed.
    -- Stationary point found.
 Normal termination of Gaussian 09 at Thu Sep  8 15:16:44 2022.
