 Gaussian 09, Revision E.01,
 Gaussian 09:  ES64L-G09RevE.01 30-Nov-2015

 -------------------------
 #P OPT Freq B3LYP/6-31G**
 -------------------------

 --------
 Frag_185
 --------
 Symbolic Z-matrix:
 Charge =  0 Multiplicity = 1

 SCF Done:  E(RB3LYP) =  -242.228500572     A.U. after   13 cycles
 SCF Done:  E(RB3LYP) =  -242.232922780     A.U. after   12 cycles
 SCF Done:  E(RB3LYP) =  -242.236273282     A.U. after   11 cycles
 SCF Done:  E(RB3LYP) =  -242.236304039     A.U. after    8 cycles
 SCF Done:  E(RB3LYP) =  -242.236305649     A.U. after    8 cycles
 Optimization completed.
    -- Stationary point found.
 Normal termination of Gaussian 09 at Sat Aug 21 01:35:22 2021.

 ----------------------------------------------------------------------
 #P Geom=AllCheck Guess=TCheck SCRF=Check GenChk RB3LYP/6-31G(d,p) Freq
 ----------------------------------------------------------------------

 Structure from the checkpoint file:  "/public/home/users/caep010/.cache/gau_scr/Gau-152203.chk"
 --------
 Frag_185
 --------
 Charge =  0 Multiplicity = 1

                         Standard orientation:
 ---------------------------------------------------------------------
 Center     Atomic      Atomic             Coordinates (Angstroms)
 Number     Number       Type             X           Y           Z
 ---------------------------------------------------------------------
      1          6           0       -0.909753    0.703158   -0.000016
      2          6           0       -0.909745   -0.703166    0.000039
      3          7           0        0.355173   -1.133812   -0.000056
      4          7           0        1.050492    0.000006    0.000033
      5          7           0        0.355161    1.133815   -0.000011
      6          1           0       -1.734053    1.400343   -0.000024
      7          1           0       -1.734037   -1.400360    0.000064
      8          1           0        2.059297    0.000010    0.000056
 ---------------------------------------------------------------------

 SCF Done:  E(RB3LYP) =  -242.236305649     A.U. after    1 cycles

 The electronic state is 1-A.
 Alpha  occ. eigenvalues --  -14.44687 -14.37271 -14.37269 -10.21941 -10.21890
 Alpha  occ. eigenvalues --   -1.10572  -0.89424  -0.82704  -0.63927  -0.62756
 Alpha  occ. eigenvalues --   -0.54196  -0.47150  -0.45482  -0.44939  -0.33051
 Alpha  occ. eigenvalues --   -0.29902  -0.29193  -0.27503
 Alpha virt. eigenvalues --   -0.00694   0.05362   0.07532   0.14217   0.15281
 Alpha virt. eigenvalues --    0.21750   0.22217   0.25257   0.38035   0.42155
 Alpha virt. eigenvalues --    0.53279   0.54322   0.59380   0.61050   0.61627

 Mulliken charges:
               1
     1  C    0.056377
     2  C    0.056377
     3  N   -0.268085
     4  N   -0.106344
     5  N   -0.268083
     6  H    0.113119
     7  H    0.113119
     8  H    0.303519
 Sum of Mulliken charges =  -0.00000

 Dipole moment (field-independent basis, Debye):
    X=             -0.0631    Y=              0.0000    Z=              0.0001  Tot=              0.0631
 Quadrupole moment (field-independent basis, Debye-Ang):
   XX=            -20.2591   YY=            -32.5667   ZZ=            -29.5708
   XY=              0.0001   XZ=              0.0002   YZ=             -0.0002

  Exact polarizability:  44.473   0.000  39.802  -0.000  -0.000  16.311
 Approx polarizability:  75.624  -0.000  71.479  -0.000   0.000  24.583

                      1                      2                      3
                      A                      A                      A
 Frequencies --    532.8462               681.5787               724.5094
 Red. masses --      1.7513                 3.7039                 2.5991
 Frc consts  --      0.2930                 1.0138                 0.8038
 IR Inten    --     46.2842                 0.0000                41.7892

                      4                      5                      6
                      A                      A                      A
 Frequencies --    845.6669               893.7895               964.6373
 Red. masses --      1.1523                 1.3650                 6.2717
 Frc consts  --      0.4855                 0.6425                 3.4385
 IR Inten    --     49.9321                 0.0000                36.4519

                      7                      8                      9
                      A                      A                      A
 Frequencies --    982.9910              1093.8524              1141.4674
 Red. masses --      4.3763                 1.6348                 1.8032
 Frc consts  --      2.4915                 1.1525                 1.3843
 IR Inten    --     18.3468                 0.0215                33.8073

                     10                     11                     12
                      A                      A                      A
 Frequencies --   1181.5964              1272.1985              1301.2677
 Red. masses --      7.8270                 1.8159                 7.6558
 Frc consts  --      6.4385                 1.7316                 7.6379
 IR Inten    --      6.5376                 5.1810                 0.4510

                     13                     14                     15
                      A                      A                      A
 Frequencies --   1421.2202              1454.5984              1552.8806
 Red. masses --      2.1427                 3.1894                 2.5714
 Frc consts  --      2.5499                 3.9760                 3.6534
 IR Inten    --      2.2555                 5.5077                 0.6921

                     16                     17                     18
                      A                      A                      A
 Frequencies --   3276.0449              3292.1382              3677.5354
 Red. masses --      1.0925                 1.1042                 1.0823
 Frc consts  --      6.9083                 7.0509                 8.6242
 IR Inten    --      0.8782                 1.1762                94.2369

 - Thermochemistry -
 -------------------
 Temperature   298.150 Kelvin.  Pressure   1.00000 Atm.
 Atom     1 has atomic number  6 and mass  12.00000

 Molecular mass:    69.03270 amu.
 Principal axes and moments of inertia in atomic units:
                           1         2         3
     Eigenvalues --   175.53696 185.05959 360.59654
           X           -0.00001   1.00000   0.00000
           Y            1.00000   0.00001  -0.00000
           Z            0.00000  -0.00000   1.00000
 This molecule is an asymmetric top.
 Rotational symmetry number  1.
 Rotational temperatures (Kelvin)      0.49342     0.46803     0.24020
 Rotational constants (GHZ):          10.28126     9.75222     5.00488
 Zero-point vibrational energy     157254.0 (Joules/Mol)
                                   37.58461 (Kcal/Mol)
 Warning -- explicit consideration of   1 degrees of freedom as
           vibrations may cause significant error
 Vibrational temperatures:    766.65   980.64  1042.41  1216.72  1285.96
          (Kelvin)           1387.90  1414.30  1573.81  1642.32  1700.05
                             1830.41  1872.23  2044.82  2092.84  2234.25
                             4713.49  4736.65  5291.15

 Zero-point correction=                           0.059895 (Hartree/Particle)
 Thermal correction to Energy=                    0.063460
 Thermal correction to Enthalpy=                  0.064404
 Thermal correction to Gibbs Free Energy=         0.033730
 Sum of electronic and zero-point Energies=           -242.176411
 Sum of electronic and thermal Energies=              -242.172846
 Sum of electronic and thermal Enthalpies=            -242.171901
 Sum of electronic and thermal Free Energies=         -242.202576

                     E (Thermal)             CV                S
                      KCal/Mol        Cal/Mol-Kelvin    Cal/Mol-Kelvin
 Total                   39.822             11.995             64.560
 Electronic               0.000              0.000              0.000
 Translational            0.889              2.981             38.613
 Rotational               0.889              2.981             23.975
 Vibrational             38.044              6.033              1.971
 Vibration     1          0.888              1.177              0.581

 Optimization completed.
    -- Stationary point found.
 Normal termination of Gaussian 09 at Sat Aug 21 01:35:29 2021.
