 Gaussian 09, Revision E.01,
 Gaussian 09:  ES64L-G09RevE.01 30-Nov-2015

 ----------------------------
 #P OPT Freq B3LYP/6-31G(d,p)
 ----------------------------

 --------
 Frag_826
 --------
 Symbolic Z-matrix:
 Charge =  0 Multiplicity = 1

 SCF Done:  E(RB3LYP) =  -245.096171866     A.U. after   13 cycles
 SCF Done:  E(RB3LYP) =  -245.096296000     A.U. after   10 cycles
 SCF Done:  E(RB3LYP) =  -245.096322833     A.U. after    9 cycles
 SCF Done:  E(RB3LYP) =  -245.096327618     A.U. after    9 cycles
 SCF Done:  E(RB3LYP) =  -245.096328196     A.U. after    8 cycles
 Optimization completed.
    -- Stationary point found.
 Normal termination of Gaussian 09 at Thu Sep  8 14:57:49 2022.

 ----------------------------------------------------------------------
 #P Geom=AllCheck Guess=TCheck SCRF=Check GenChk RB3LYP/6-31G(d,p) Freq
 ----------------------------------------------------------------------

 Structure from the checkpoint file:  "B3LYP6-31Gdp.Frag_826.chk"
 --------
 Frag_826
 --------
 Charge =  0 Multiplicity = 1

                         Standard orientation:
 ---------------------------------------------------------------------
 Center     Atomic      Atomic             Coordinates (Angstroms)
 Number     Number       Type             X           Y           Z
 ---------------------------------------------------------------------
      1          7           0        1.312288   -0.494840    0.010311
      2          6           0        0.128890   -0.063554    0.001627
      3          8           0       -0.226361    1.261771    0.051250
      4          8           0       -0.927113   -0.919296   -0.059920
      5          1           0        1.958851    0.291148   -0.055601
      6          1           0       -1.046548    1.388803   -0.448601
      7          1           0       -1.643865   -0.574548    0.491620
 ---------------------------------------------------------------------

 SCF Done:  E(RB3LYP) =  -245.096328196     A.U. after    1 cycles

 The electronic state is 1-A.
 Alpha  occ. eigenvalues --  -19.20167 -19.19731 -14.30555 -10.33395  -1.12147
 Alpha  occ. eigenvalues --   -1.04162  -0.89137  -0.63289  -0.59996  -0.49412
 Alpha  occ. eigenvalues --   -0.46492  -0.45096  -0.36002  -0.35100  -0.28418
 Alpha  occ. eigenvalues --   -0.27113
 Alpha virt. eigenvalues --    0.03399   0.03719   0.09153   0.13497   0.20503
 Alpha virt. eigenvalues --    0.32076   0.43455   0.54545   0.57260   0.57459
 Alpha virt. eigenvalues --    0.61604   0.69943   0.74666   0.76765   0.77926

 Mulliken charges:
               1
     1  N   -0.514774
     2  C    0.620612
     3  O   -0.502470
     4  O   -0.481748
     5  H    0.241051
     6  H    0.317922
     7  H    0.319408
 Sum of Mulliken charges =   0.00000

 Dipole moment (field-independent basis, Debye):
    X=             -2.9295    Y=              2.4052    Z=             -0.0190  Tot=              3.7904
 Quadrupole moment (field-independent basis, Debye-Ang):
   XX=            -17.8874   YY=            -26.3617   ZZ=            -22.3639
   XY=              0.8033   XZ=             -0.9909   YZ=             -1.9634

  Exact polarizability:  34.683  -2.281  23.193  -0.228  -0.467  13.441
 Approx polarizability:  52.533  -5.895  33.678   0.159   0.277  18.763

                      1                      2                      3
                      A                      A                      A
 Frequencies --    284.4110               468.6536               535.2007
 Red. masses --      1.1599                 1.2385                 2.5637
 Frc consts  --      0.0553                 0.1603                 0.4327
 IR Inten    --    187.1050               115.9480                 4.1606

                      4                      5                      6
                      A                      A                      A
 Frequencies --    561.3855               669.2109               860.4824
 Red. masses --      4.0134                 4.7604                 1.1672
 Frc consts  --      0.7452                 1.2561                 0.5092
 IR Inten    --      8.3326                23.0511                80.7490

                      7                      8                      9
                      A                      A                      A
 Frequencies --    947.8120              1092.9541              1207.1176
 Red. masses --      8.7382                 1.8403                 1.2247
 Frc consts  --      4.6250                 1.2952                 1.0515
 IR Inten    --     67.6076               114.0306                61.1869

                     10                     11                     12
                      A                      A                      A
 Frequencies --   1247.9819              1377.7563              1826.0894
 Red. masses --      1.3005                 2.9235                 7.1957
 Frc consts  --      1.1934                 3.2697                14.1374
 IR Inten    --     89.2926               366.4245               275.1036

                     13                     14                     15
                      A                      A                      A
 Frequencies --   3528.2019              3780.3374              3801.4291
 Red. masses --      1.0749                 1.0660                 1.0654
 Frc consts  --      7.8839                 8.9755                 9.0709
 IR Inten    --      5.9866                29.2817                47.2922

 - Thermochemistry -
 -------------------
 Temperature   298.150 Kelvin.  Pressure   1.00000 Atm.
 Atom     1 has atomic number  7 and mass  14.00307

 Molecular mass:    61.01638 amu.
 Principal axes and moments of inertia in atomic units:
                           1         2         3
     Eigenvalues --   161.93700 168.19732 326.36824
           X            0.99965   0.02471  -0.00966
           Y           -0.02490   0.99948  -0.02065
           Z            0.00914   0.02088   0.99974
 This molecule is an asymmetric top.
 Rotational symmetry number  1.
 Rotational temperatures (Kelvin)      0.53486     0.51495     0.26539
 Rotational constants (GHZ):          11.14471    10.72990     5.52977
 Zero-point vibrational energy     132719.8 (Joules/Mol)
                                   31.72080 (Kcal/Mol)
 Warning -- explicit consideration of   4 degrees of freedom as
           vibrations may cause significant error
 Vibrational temperatures:    409.20   674.29   770.03   807.71   962.84
          (Kelvin)           1238.04  1363.69  1572.52  1736.77  1795.57
                             1982.28  2627.33  5076.29  5439.06  5469.40

 Zero-point correction=                           0.050550 (Hartree/Particle)
 Thermal correction to Energy=                    0.054752
 Thermal correction to Enthalpy=                  0.055696
 Thermal correction to Gibbs Free Energy=         0.024301
 Sum of electronic and zero-point Energies=           -245.045778
 Sum of electronic and thermal Energies=              -245.041577
 Sum of electronic and thermal Enthalpies=            -245.040632
 Sum of electronic and thermal Free Energies=         -245.072027

                     E (Thermal)             CV                S
                      KCal/Mol        Cal/Mol-Kelvin    Cal/Mol-Kelvin
 Total                   34.357             13.953             66.076
 Electronic               0.000              0.000              0.000
 Translational            0.889              2.981             38.245
 Rotational               0.889              2.981             23.701
 Vibrational             32.580              7.992              4.129
 Vibration     1          0.683              1.703              1.507
 Vibration     2          0.826              1.320              0.741
 Vibration     3          0.890              1.172              0.576
 Vibration     4          0.917              1.115              0.521

 Normal termination of Gaussian 09 at Thu Sep  8 14:57:55 2022.
