 Gaussian 09, Revision E.01,
 Gaussian 09:  ES64L-G09RevE.01 30-Nov-2015

 ----------------------------
 #P OPT Freq B3LYP/6-31G(d,p)
 ----------------------------

 --------
 Frag_745
 --------
 Symbolic Z-matrix:
 Charge =  0 Multiplicity = 1

 SCF Done:  E(RB3LYP) =  -249.627509264     A.U. after   13 cycles
 SCF Done:  E(RB3LYP) =  -249.627531917     A.U. after    8 cycles
 SCF Done:  E(RB3LYP) =  -249.627539124     A.U. after    8 cycles
 SCF Done:  E(RB3LYP) =  -249.627535916     A.U. after    8 cycles
 SCF Done:  E(RB3LYP) =  -249.627548739     A.U. after    7 cycles
 SCF Done:  E(RB3LYP) =  -249.627559107     A.U. after    7 cycles
 SCF Done:  E(RB3LYP) =  -249.627536492     A.U. after    7 cycles
 Optimization completed.
    -- Stationary point found.
 Normal termination of Gaussian 09 at Thu Sep  8 15:10:27 2022.

 ----------------------------------------------------------------------
 #P Geom=AllCheck Guess=TCheck SCRF=Check GenChk RB3LYP/6-31G(d,p) Freq
 ----------------------------------------------------------------------

 Structure from the checkpoint file:  "B3LYP6-31Gdp.Frag_745.chk"
 --------
 Frag_745
 --------
 Charge =  0 Multiplicity = 1

                         Standard orientation:
 ---------------------------------------------------------------------
 Center     Atomic      Atomic             Coordinates (Angstroms)
 Number     Number       Type             X           Y           Z
 ---------------------------------------------------------------------
      1          6           0        0.514734    1.320959   -0.418840
      2          7           0       -0.000008   -0.000011    0.083436
      3          6           0       -1.401238   -0.214711   -0.419269
      4          6           0        0.886733   -1.106095   -0.419024
      5          8           0       -0.000280   -0.000192    1.439588
      6          1           0        1.513730    1.441220   -0.002342
      7          1           0       -0.140045    2.085508   -0.003329
      8          1           0        0.534053    1.368791   -1.512906
      9          1           0       -1.736118   -1.163990   -0.003776
     10          1           0       -1.452057   -0.222002   -1.513360
     11          1           0       -2.005028    0.590312   -0.002959
     12          1           0        0.919101   -1.146007   -1.513111
     13          1           0        1.876013   -0.921485   -0.002896
     14          1           0        0.491271   -2.031665   -0.003284
 ---------------------------------------------------------------------

 SCF Done:  E(RB3LYP) =  -249.627536492     A.U. after    1 cycles

 The electronic state is 1-A.
 Alpha  occ. eigenvalues --  -19.03946 -14.46381 -10.22008 -10.22008 -10.22007
 Alpha  occ. eigenvalues --   -1.04032  -0.81316  -0.73187  -0.73186  -0.60604
 Alpha  occ. eigenvalues --   -0.50000  -0.49999  -0.47207  -0.42689  -0.42687
 Alpha  occ. eigenvalues --   -0.39013  -0.38773  -0.38772  -0.36364  -0.18119
 Alpha  occ. eigenvalues --   -0.18118
 Alpha virt. eigenvalues --    0.06294   0.11009   0.12180   0.13100   0.13101
 Alpha virt. eigenvalues --    0.15006   0.15008   0.17918   0.17920   0.19132
 Alpha virt. eigenvalues --    0.19137   0.21636   0.24360   0.47608   0.47609

 Mulliken charges:
               1
     1  C   -0.143534
     2  N   -0.106444
     3  C   -0.143615
     4  C   -0.143548
     5  O   -0.586088
     6  H    0.138649
     7  H    0.138622
     8  H    0.097120
     9  H    0.138636
    10  H    0.097140
    11  H    0.138652
    12  H    0.097126
    13  H    0.138637
    14  H    0.138646
 Sum of Mulliken charges =  -0.00000

 Dipole moment (field-independent basis, Debye):
    X=              0.0008    Y=              0.0005    Z=             -4.3656  Tot=              4.3656
 Quadrupole moment (field-independent basis, Debye-Ang):
   XX=            -29.2181   YY=            -29.2177   ZZ=            -38.2961
   XY=              0.0000   XZ=              0.0016   YZ=              0.0010

  Exact polarizability:  44.902   0.000  44.900  -0.001  -0.001  47.289
 Approx polarizability:  57.912  -0.000  57.910  -0.003  -0.003  75.106

                      1                      2                      3
                      A                      A                      A
 Frequencies --    223.2064               285.0636               285.8131
 Red. masses --      1.0121                 1.0698                 1.0719
 Frc consts  --      0.0297                 0.0512                 0.0516
 IR Inten    --      0.0013                 0.0550                 0.0472

                      4                      5                      6
                      A                      A                      A
 Frequencies --    369.6348               370.7812               436.3198
 Red. masses --      2.5292                 2.5201                 2.3646
 Frc consts  --      0.2036                 0.2041                 0.2652
 IR Inten    --      7.1417                 7.1418                 9.5292

                      7                      8                      9
                      A                      A                      A
 Frequencies --    498.3621               498.7846               737.4684
 Red. masses --      3.2547                 3.2518                 4.0612
 Frc consts  --      0.4763                 0.4767                 1.3013
 IR Inten    --     15.5790                15.5456                 0.0367

                     10                     11                     12
                      A                      A                      A
 Frequencies --    896.5127               897.1541               965.8355
 Red. masses --      2.0529                 2.0592                 5.7643
 Frc consts  --      0.9721                 0.9765                 3.1681
 IR Inten    --      0.1405                 0.1380                32.0812

                     13                     14                     15
                      A                      A                      A
 Frequencies --   1054.9122              1121.9265              1123.0313
 Red. masses --      1.1867                 1.3783                 1.3779
 Frc consts  --      0.7780                 1.0222                 1.0239
 IR Inten    --      0.0006                 2.5632                 2.5522

                     16                     17                     18
                      A                      A                      A
 Frequencies --   1235.7959              1283.9105              1284.3195
 Red. masses --      1.7710                 2.2264                 2.2307
 Frc consts  --      1.5935                 2.1623                 2.1679
 IR Inten    --     11.7370                 1.2230                 1.2373

                     19                     20                     21
                      A                      A                      A
 Frequencies --   1413.1193              1413.5279              1457.4856
 Red. masses --      1.1737                 1.1733                 1.1966
 Frc consts  --      1.3809                 1.3812                 1.4976
 IR Inten    --      0.2818                 0.2853                 0.3012

                     22                     23                     24
                      A                      A                      A
 Frequencies --   1466.3862              1486.9974              1487.4165
 Red. masses --      1.0517                 1.0438                 1.0438
 Frc consts  --      1.3325                 1.3599                 1.3606
 IR Inten    --      0.0023                 0.0540                 0.0218

                     25                     26                     27
                      A                      A                      A
 Frequencies --   1499.4359              1500.2661              1525.0886
 Red. masses --      1.0602                 1.0600                 1.0434
 Frc consts  --      1.4044                 1.4057                 1.4298
 IR Inten    --     15.5487                15.4871                 9.0412

                     28                     29                     30
                      A                      A                      A
 Frequencies --   3045.6935              3046.0343              3060.4745
 Red. masses --      1.0402                 1.0401                 1.0390
 Frc consts  --      5.6852                 5.6857                 5.7340
 IR Inten    --     16.5424                16.6250                58.0080

                     31                     32                     33
                      A                      A                      A
 Frequencies --   3158.6532              3158.8233              3167.4578
 Red. masses --      1.0946                 1.0944                 1.0969
 Frc consts  --      6.4343                 6.4341                 6.4838
 IR Inten    --      1.7167                 1.7967                32.5102

                     34                     35                     36
                      A                      A                      A
 Frequencies --   3190.6765              3196.2396              3196.5431
 Red. masses --      1.1077                 1.1067                 1.1067
 Frc consts  --      6.6442                 6.6615                 6.6627
 IR Inten    --      0.0088                10.8724                10.8389

 - Thermochemistry -
 -------------------
 Temperature   298.150 Kelvin.  Pressure   1.00000 Atm.
 Atom     1 has atomic number  6 and mass  12.00000

 Molecular mass:    75.06841 amu.
 Principal axes and moments of inertia in atomic units:
                           1         2         3
     Eigenvalues --   353.04406 353.05996 376.00933
           X            0.99996   0.00879   0.00017
           Y           -0.00879   0.99996   0.00012
           Z           -0.00017  -0.00012   1.00000
 This molecule is an asymmetric top.
 Rotational symmetry number  1.
 Rotational temperatures (Kelvin)      0.24533     0.24532     0.23035
 Rotational constants (GHZ):           5.11194     5.11171     4.79972
 Zero-point vibrational energy     329207.2 (Joules/Mol)
                                   78.68242 (Kcal/Mol)
 Warning -- explicit consideration of   8 degrees of freedom as
           vibrations may cause significant error
 Vibrational temperatures:    321.14   410.14   411.22   531.82   533.47
          (Kelvin)            627.77   717.03   717.64  1061.05  1289.88
                             1290.80  1389.62  1517.78  1614.20  1615.79
                             1778.03  1847.26  1847.85  2033.16  2033.75
                             2096.99  2109.80  2139.45  2140.06  2157.35
                             2158.55  2194.26  4382.07  4382.56  4403.33
                             4544.59  4544.84  4557.26  4590.67  4598.67
                             4599.11

 Zero-point correction=                           0.125388 (Hartree/Particle)
 Thermal correction to Energy=                    0.131442
 Thermal correction to Enthalpy=                  0.132387
 Thermal correction to Gibbs Free Energy=         0.096976
 Sum of electronic and zero-point Energies=           -249.502148
 Sum of electronic and thermal Energies=              -249.496094
 Sum of electronic and thermal Enthalpies=            -249.495150
 Sum of electronic and thermal Free Energies=         -249.530561

                     E (Thermal)             CV                S
                      KCal/Mol        Cal/Mol-Kelvin    Cal/Mol-Kelvin
 Total                   82.481             22.405             74.528
 Electronic               0.000              0.000              0.000
 Translational            0.889              2.981             38.863
 Rotational               0.889              2.981             25.353
 Vibrational             80.704             16.443             10.312
 Vibration     1          0.649              1.806              1.933
 Vibration     2          0.683              1.701              1.503
 Vibration     3          0.684              1.700              1.499
 Vibration     4          0.742              1.535              1.081
 Vibration     5          0.743              1.532              1.077
 Vibration     6          0.797              1.391              0.838
 Vibration     7          0.854              1.254              0.662
 Vibration     8          0.854              1.253              0.661

 Normal termination of Gaussian 09 at Thu Sep  8 15:10:37 2022.
