 Gaussian 09, Revision E.01,
 Gaussian 09:  ES64L-G09RevE.01 30-Nov-2015

 ----------------------------
 #P OPT Freq B3LYP/6-31G(d,p)
 ----------------------------

 --------
 Frag_466
 --------
 Symbolic Z-matrix:
 Charge =  0 Multiplicity = 1

 SCF Done:  E(RB3LYP) =  -264.419029650     A.U. after   15 cycles
 SCF Done:  E(RB3LYP) =  -264.419115400     A.U. after   10 cycles
 SCF Done:  E(RB3LYP) =  -264.419120710     A.U. after    9 cycles
 SCF Done:  E(RB3LYP) =  -264.419124740     A.U. after    9 cycles
 SCF Done:  E(RB3LYP) =  -264.419125890     A.U. after    8 cycles
 SCF Done:  E(RB3LYP) =  -264.419126269     A.U. after    8 cycles
 SCF Done:  E(RB3LYP) =  -264.419126598     A.U. after    8 cycles
 SCF Done:  E(RB3LYP) =  -264.419127088     A.U. after    9 cycles
 SCF Done:  E(RB3LYP) =  -264.419127302     A.U. after    9 cycles
 SCF Done:  E(RB3LYP) =  -264.419127370     A.U. after    8 cycles
 SCF Done:  E(RB3LYP) =  -264.419127385     A.U. after    8 cycles
 Optimization completed.
    -- Stationary point found.
 Normal termination of Gaussian 09 at Thu Sep  8 15:03:47 2022.

 ----------------------------------------------------------------------
 #P Geom=AllCheck Guess=TCheck SCRF=Check GenChk RB3LYP/6-31G(d,p) Freq
 ----------------------------------------------------------------------

 Structure from the checkpoint file:  "B3LYP6-31Gdp.Frag_466.chk"
 --------
 Frag_466
 --------
 Charge =  0 Multiplicity = 1

                         Standard orientation:
 ---------------------------------------------------------------------
 Center     Atomic      Atomic             Coordinates (Angstroms)
 Number     Number       Type             X           Y           Z
 ---------------------------------------------------------------------
      1          6           0        1.690781   -0.637403    0.059105
      2          7           0        0.468491   -0.116451   -0.019924
      3          6           0        0.331055    1.358115   -0.019663
      4          7           0       -0.601501   -0.876809   -0.090353
      5          8           0       -1.742694   -0.020087    0.086928
      6          1           0        1.780399   -1.711935    0.101663
      7          1           0        2.536880    0.015443   -0.070613
      8          1           0       -0.182737    1.667705    0.889981
      9          1           0       -0.267206    1.658501   -0.878947
     10          1           0        1.326687    1.793791   -0.061852
     11          1           0       -2.452426   -0.634268   -0.140371
 ---------------------------------------------------------------------

 SCF Done:  E(RB3LYP) =  -264.419127385     A.U. after    1 cycles

 The electronic state is 1-A.
 Alpha  occ. eigenvalues --  -19.17028 -14.44685 -14.36739 -10.23238 -10.19163
 Alpha  occ. eigenvalues --   -1.08186  -0.98155  -0.77745  -0.73340  -0.57180
 Alpha  occ. eigenvalues --   -0.52741  -0.49033  -0.48269  -0.44963  -0.41582
 Alpha  occ. eigenvalues --   -0.39472  -0.37857  -0.32410  -0.28329  -0.16044
 Alpha virt. eigenvalues --   -0.00425   0.08075   0.09589   0.12205   0.14130
 Alpha virt. eigenvalues --    0.16189   0.16689   0.18670   0.20530   0.28998
 Alpha virt. eigenvalues --    0.33124   0.49866   0.49932   0.55999   0.60966

 Mulliken charges:
               1
     1  C   -0.157645
     2  N   -0.093893
     3  C   -0.165252
     4  N   -0.117929
     5  O   -0.458216
     6  H    0.118288
     7  H    0.103911
     8  H    0.162999
     9  H    0.154985
    10  H    0.122529
    11  H    0.330221
 Sum of Mulliken charges =   0.00000

 Dipole moment (field-independent basis, Debye):
    X=              0.2549    Y=              1.6964    Z=             -0.4037  Tot=              1.7623
 Quadrupole moment (field-independent basis, Debye-Ang):
   XX=            -25.4084   YY=            -28.8735   ZZ=            -31.7576
   XY=              2.2652   XZ=              0.5837   YZ=             -0.0616

  Exact polarizability:  71.752  -1.310  39.764   1.906   0.124  22.741
 Approx polarizability: 146.467   0.566  53.503   6.723   0.941  32.325

                      1                      2                      3
                      A                      A                      A
 Frequencies --     86.5258               166.4040               211.7046
 Red. masses --      3.9014                 1.2142                 1.0681
 Frc consts  --      0.0172                 0.0198                 0.0282
 IR Inten    --     23.1836                80.8300                15.0520

                      4                      5                      6
                      A                      A                      A
 Frequencies --    366.8623               446.1705               495.4996
 Red. masses --      3.4770                 1.4045                 2.3378
 Frc consts  --      0.2757                 0.1647                 0.3382
 IR Inten    --      2.8238                53.4309                10.4882

                      7                      8                      9
                      A                      A                      A
 Frequencies --    513.0866               612.3772               651.0740
 Red. masses --      1.6941                 4.4442                 1.5509
 Frc consts  --      0.2628                 0.9819                 0.3873
 IR Inten    --     40.0472                18.3356                31.0297

                     10                     11                     12
                      A                      A                      A
 Frequencies --    846.3606               957.6606              1101.2661
 Red. masses --      4.7299                 3.6354                 1.5539
 Frc consts  --      1.9963                 1.9644                 1.1103
 IR Inten    --     20.2837               163.1790                19.0715

                     13                     14                     15
                      A                      A                      A
 Frequencies --   1112.5195              1147.1908              1302.0586
 Red. masses --      1.8054                 1.3991                 1.5883
 Frc consts  --      1.3166                 1.0848                 1.5865
 IR Inten    --      7.9962                 0.3773                37.8893

                     16                     17                     18
                      A                      A                      A
 Frequencies --   1425.4319              1439.6343              1475.5085
 Red. masses --      1.6556                 1.1456                 1.4198
 Frc consts  --      1.9819                 1.3988                 1.8212
 IR Inten    --     92.8759                 3.6515                74.2286

                     19                     20                     21
                      A                      A                      A
 Frequencies --   1482.1791              1515.8359              1602.1319
 Red. masses --      1.0454                 1.1897                 3.8667
 Frc consts  --      1.3531                 1.6106                 5.8477
 IR Inten    --      9.3747                 4.8774                92.4929

                     22                     23                     24
                      A                      A                      A
 Frequencies --   3098.0427              3183.6178              3202.2152
 Red. masses --      1.0306                 1.1052                 1.1076
 Frc consts  --      5.8278                 6.6001                 6.6917
 IR Inten    --      8.3170                 4.0805                 5.1396

                     25                     26                     27
                      A                      A                      A
 Frequencies --   3222.6429              3350.6127              3839.2786
 Red. masses --      1.0502                 1.1253                 1.0674
 Frc consts  --      6.4258                 7.4432                 9.2697
 IR Inten    --      3.2428                 1.6566                90.3084

 - Thermochemistry -
 -------------------
 Temperature   298.150 Kelvin.  Pressure   1.00000 Atm.
 Atom     1 has atomic number  6 and mass  12.00000

 Molecular mass:    74.04801 amu.
 Principal axes and moments of inertia in atomic units:
                           1         2         3
     Eigenvalues --   185.50023 399.11004 571.03057
           X            0.99998   0.00466   0.00302
           Y           -0.00465   0.99998  -0.00363
           Z           -0.00304   0.00361   0.99999
 This molecule is an asymmetric top.
 Rotational symmetry number  1.
 Rotational temperatures (Kelvin)      0.46692     0.21702     0.15168
 Rotational constants (GHZ):           9.72905     4.52191     3.16050
 Zero-point vibrational energy     232397.9 (Joules/Mol)
                                   55.54443 (Kcal/Mol)
 Warning -- explicit consideration of   8 degrees of freedom as
           vibrations may cause significant error
 Vibrational temperatures:    124.49   239.42   304.60   527.83   641.94
          (Kelvin)            712.91   738.22   881.07   936.75  1217.72
                             1377.86  1584.47  1600.67  1650.55  1873.37
                             2050.88  2071.31  2122.92  2132.52  2180.95
                             2305.11  4457.39  4580.51  4607.27  4636.66
                             4820.78  5523.86

 Zero-point correction=                           0.088516 (Hartree/Particle)
 Thermal correction to Energy=                    0.094828
 Thermal correction to Enthalpy=                  0.095772
 Thermal correction to Gibbs Free Energy=         0.059249
 Sum of electronic and zero-point Energies=           -264.330612
 Sum of electronic and thermal Energies=              -264.324300
 Sum of electronic and thermal Enthalpies=            -264.323356
 Sum of electronic and thermal Free Energies=         -264.359878

                     E (Thermal)             CV                S
                      KCal/Mol        Cal/Mol-Kelvin    Cal/Mol-Kelvin
 Total                   59.505             21.364             76.868
 Electronic               0.000              0.000              0.000
 Translational            0.889              2.981             38.822
 Rotational               0.889              2.981             25.250
 Vibrational             57.728             15.402             12.795
 Vibration     1          0.601              1.959              3.737
 Vibration     2          0.624              1.884              2.476
 Vibration     3          0.643              1.823              2.029
 Vibration     4          0.740              1.540              1.093
 Vibration     5          0.805              1.369              0.807
 Vibration     6          0.851              1.260              0.669
 Vibration     7          0.868              1.221              0.626
 Vibration     8          0.972              1.006              0.429

 Optimization completed.
    -- Stationary point found.
 Normal termination of Gaussian 09 at Thu Sep  8 15:03:55 2022.
