 Gaussian 09, Revision E.01,
 Gaussian 09:  ES64L-G09RevE.01 30-Nov-2015

 ----------------------------
 #P OPT Freq B3LYP/6-31G(d,p)
 ----------------------------

 --------
 Frag_586
 --------
 Symbolic Z-matrix:
 Charge =  0 Multiplicity = 1

 SCF Done:  E(RB3LYP) =  -246.314338988     A.U. after   12 cycles
 SCF Done:  E(RB3LYP) =  -246.314386126     A.U. after    8 cycles
 SCF Done:  E(RB3LYP) =  -246.314388626     A.U. after    7 cycles
 SCF Done:  E(RB3LYP) =  -246.314389058     A.U. after    7 cycles
 Optimization completed.
    -- Stationary point found.
 Normal termination of Gaussian 09 at Thu Sep  8 15:19:06 2022.

 ----------------------------------------------------------------------
 #P Geom=AllCheck Guess=TCheck SCRF=Check GenChk RB3LYP/6-31G(d,p) Freq
 ----------------------------------------------------------------------

 Structure from the checkpoint file:  "B3LYP6-31Gdp.Frag_586.chk"
 --------
 Frag_586
 --------
 Charge =  0 Multiplicity = 1

                         Standard orientation:
 ---------------------------------------------------------------------
 Center     Atomic      Atomic             Coordinates (Angstroms)
 Number     Number       Type             X           Y           Z
 ---------------------------------------------------------------------
      1          7           0        0.000210    1.287439   -0.178559
      2          6           0       -0.000010   -0.058747    0.365161
      3          8           0       -1.179171   -0.695997   -0.043980
      4          8           0        1.178943   -0.696378   -0.043982
      5          1           0        0.823964    1.793776    0.136060
      6          1           0       -0.823427    1.794010    0.135987
      7          1           0       -0.000027   -0.135575    1.459981
      8          1           0       -1.290152   -0.486251   -0.984706
      9          1           0        1.290057   -0.486550   -0.984675
 ---------------------------------------------------------------------

 SCF Done:  E(RB3LYP) =  -246.314389058     A.U. after    1 cycles

 The electronic state is 1-A.
 Alpha  occ. eigenvalues --  -19.14825 -19.14825 -14.33117 -10.30729  -1.06748
 Alpha  occ. eigenvalues --   -0.99647  -0.87610  -0.65358  -0.53364  -0.52317
 Alpha  occ. eigenvalues --   -0.48099  -0.45998  -0.36200  -0.36156  -0.30576
 Alpha  occ. eigenvalues --   -0.28208  -0.26916
 Alpha virt. eigenvalues --    0.07116   0.10094   0.11791   0.14618   0.15671
 Alpha virt. eigenvalues --    0.24108   0.24587   0.27672   0.53959   0.54904
 Alpha virt. eigenvalues --    0.66389   0.68857   0.69294   0.74526   0.76040

 Mulliken charges:
               1
     1  N   -0.631134
     2  C    0.462128
     3  O   -0.512940
     4  O   -0.512942
     5  H    0.251349
     6  H    0.251350
     7  H    0.100231
     8  H    0.295979
     9  H    0.295980
 Sum of Mulliken charges =  -0.00000

 Dipole moment (field-independent basis, Debye):
    X=              0.0004    Y=              2.3183    Z=             -0.7846  Tot=              2.4475
 Quadrupole moment (field-independent basis, Debye-Ang):
   XX=            -25.0357   YY=            -24.0291   ZZ=            -21.1522
   XY=              0.0003   XZ=              0.0006   YZ=              3.2329

  Exact polarizability:  27.231  -0.000  25.959   0.000   0.242  25.306
 Approx polarizability:  37.231  -0.001  33.193  -0.000  -0.703  34.537

                      1                      2                      3
                      A                      A                      A
 Frequencies --    224.4729               390.5780               448.5291
 Red. masses --      1.1249                 1.3941                 1.6531
 Frc consts  --      0.0334                 0.1253                 0.1959
 IR Inten    --      1.5082                20.2451                64.8035

                      4                      5                      6
                      A                      A                      A
 Frequencies --    531.2202               550.7550               609.2819
 Red. masses --      1.7815                 2.2088                 2.5048
 Frc consts  --      0.2962                 0.3948                 0.5479
 IR Inten    --     76.1068               140.9055                12.0871

                      7                      8                      9
                      A                      A                      A
 Frequencies --    881.8560               970.8152              1022.5439
 Red. masses --      1.3792                 3.7727                 2.6395
 Frc consts  --      0.6320                 2.0949                 1.6260
 IR Inten    --    127.9899                84.4912               144.8664

                     10                     11                     12
                      A                      A                      A
 Frequencies --   1123.2464              1184.4962              1306.2861
 Red. masses --      3.2142                 1.1650                 1.5374
 Frc consts  --      2.3893                 0.9630                 1.5457
 IR Inten    --    143.0262               190.0488                 5.9887

                     13                     14                     15
                      A                      A                      A
 Frequencies --   1325.9067              1456.9479              1457.5484
 Red. masses --      1.4547                 1.3735                 1.1868
 Frc consts  --      1.5068                 1.7178                 1.4855
 IR Inten    --      8.9059                83.4887                67.0252

                     16                     17                     18
                      A                      A                      A
 Frequencies --   1647.4265              3058.1988              3504.0526
 Red. masses --      1.1204                 1.0865                 1.0492
 Frc consts  --      1.7916                 5.9868                 7.5904
 IR Inten    --     52.6140                65.2819                 0.6418

                     19                     20                     21
                      A                      A                      A
 Frequencies --   3596.9773              3761.0716              3763.1872
 Red. masses --      1.0938                 1.0649                 1.0645
 Frc consts  --      8.3382                 8.8751                 8.8820
 IR Inten    --      1.7925                 3.0175                22.5976

 - Thermochemistry -
 -------------------
 Temperature   298.150 Kelvin.  Pressure   1.00000 Atm.
 Atom     1 has atomic number  7 and mass  14.00307

 Molecular mass:    63.03203 amu.
 Principal axes and moments of inertia in atomic units:
                           1         2         3
     Eigenvalues --   185.30416 197.84760 338.80534
           X            1.00000   0.00012   0.00001
           Y           -0.00012   0.99951   0.03118
           Z           -0.00000  -0.03118   0.99951
 This molecule is an asymmetric top.
 Rotational symmetry number  1.
 Rotational temperatures (Kelvin)      0.46741     0.43778     0.25564
 Rotational constants (GHZ):           9.73935     9.12188     5.32678
 Zero-point vibrational energy     196279.7 (Joules/Mol)
                                   46.91197 (Kcal/Mol)
 Warning -- explicit consideration of   6 degrees of freedom as
           vibrations may cause significant error
 Vibrational temperatures:    322.97   561.95   645.33   764.31   792.41
          (Kelvin)            876.62  1268.79  1396.78  1471.21  1616.10
                             1704.22  1879.45  1907.68  2096.22  2097.08
                             2370.28  4400.06  5041.54  5175.24  5411.34
                             5414.38

 Zero-point correction=                           0.074759 (Hartree/Particle)
 Thermal correction to Energy=                    0.079453
 Thermal correction to Enthalpy=                  0.080398
 Thermal correction to Gibbs Free Energy=         0.048001
 Sum of electronic and zero-point Energies=           -246.239630
 Sum of electronic and thermal Energies=              -246.234936
 Sum of electronic and thermal Enthalpies=            -246.233991
 Sum of electronic and thermal Free Energies=         -246.266388

                     E (Thermal)             CV                S
                      KCal/Mol        Cal/Mol-Kelvin    Cal/Mol-Kelvin
 Total                   49.858             16.215             68.185
 Electronic               0.000              0.000              0.000
 Translational            0.889              2.981             38.342
 Rotational               0.889              2.981             24.033
 Vibrational             48.080             10.253              5.809
 Vibration     1          0.649              1.804              1.923
 Vibration     2          0.758              1.490              0.998
 Vibration     3          0.808              1.364              0.800
 Vibration     4          0.886              1.181              0.584
 Vibration     5          0.906              1.138              0.543
 Vibration     6          0.968              1.012              0.434

 Optimization completed.
    -- Stationary point found.
 Normal termination of Gaussian 09 at Thu Sep  8 15:19:13 2022.
