 Gaussian 09, Revision E.01,
 Gaussian 09:  ES64L-G09RevE.01 30-Nov-2015

 -------------------------
 #P OPT Freq B3LYP/6-31G**
 -------------------------

 --------
 Frag_137
 --------
 Symbolic Z-matrix:
 Charge =  0 Multiplicity = 1

 SCF Done:  E(RB3LYP) =  -151.171706549     A.U. after   12 cycles
 SCF Done:  E(RB3LYP) =  -151.177158502     A.U. after   11 cycles
 SCF Done:  E(RB3LYP) =  -151.177660241     A.U. after   10 cycles
 SCF Done:  E(RB3LYP) =  -151.177779883     A.U. after   10 cycles
 SCF Done:  E(RB3LYP) =  -151.177828964     A.U. after   10 cycles
 SCF Done:  E(RB3LYP) =  -151.177911666     A.U. after   11 cycles
 SCF Done:  E(RB3LYP) =  -151.177980320     A.U. after   10 cycles
 SCF Done:  E(RB3LYP) =  -151.177996673     A.U. after   10 cycles
 SCF Done:  E(RB3LYP) =  -151.177998778     A.U. after    9 cycles
 SCF Done:  E(RB3LYP) =  -151.177999067     A.U. after    7 cycles
 SCF Done:  E(RB3LYP) =  -151.177999088     A.U. after    6 cycles
 Optimization completed.
    -- Stationary point found.
 Normal termination of Gaussian 09 at Sat Aug 21 01:35:51 2021.

 ----------------------------------------------------------------------
 #P Geom=AllCheck Guess=TCheck SCRF=Check GenChk RB3LYP/6-31G(d,p) Freq
 ----------------------------------------------------------------------

 Structure from the checkpoint file:  "/public/home/users/caep010/.cache/gau_scr/Gau-195977.chk"
 --------
 Frag_137
 --------
 Charge =  0 Multiplicity = 1

                         Standard orientation:
 ---------------------------------------------------------------------
 Center     Atomic      Atomic             Coordinates (Angstroms)
 Number     Number       Type             X           Y           Z
 ---------------------------------------------------------------------
      1          6           0       -1.185322   -0.219862    0.034049
      2          7           0        0.023475    0.569316   -0.199103
      3          7           0        1.186824   -0.273708    0.161290
      4          1           0       -1.274507   -0.987521   -0.744391
      5          1           0       -1.204867   -0.723261    1.013603
      6          1           0       -2.054016    0.439333   -0.052628
      7          1           0        0.034452    1.289615    0.523877
      8          1           0        1.149335   -1.039190   -0.516883
      9          1           0        1.989436    0.270937   -0.163180
 ---------------------------------------------------------------------

 SCF Done:  E(RB3LYP) =  -151.177999088     A.U. after    1 cycles

 The electronic state is 1-A.
 Alpha  occ. eigenvalues --  -14.33965 -14.33581 -10.19935  -0.94466  -0.77907
 Alpha  occ. eigenvalues --   -0.64538  -0.50148  -0.45077  -0.43105  -0.38241
 Alpha  occ. eigenvalues --   -0.36978  -0.31931  -0.19400
 Alpha virt. eigenvalues --    0.08029   0.11249   0.13280   0.15587   0.17170
 Alpha virt. eigenvalues --    0.18641   0.19253   0.23876   0.54123   0.55617
 Alpha virt. eigenvalues --    0.57853   0.67880   0.70309   0.71217   0.76531

 Mulliken charges:
               1
     1  C   -0.169008
     2  N   -0.408658
     3  N   -0.484307
     4  H    0.106903
     5  H    0.099773
     6  H    0.109211
     7  H    0.253564
     8  H    0.245926
     9  H    0.246597
 Sum of Mulliken charges =  -0.00000

 Dipole moment (field-independent basis, Debye):
    X=             -0.0476    Y=              0.0607    Z=             -0.2564  Tot=              0.2678
 Quadrupole moment (field-independent basis, Debye-Ang):
   XX=            -17.2921   YY=            -18.6876   ZZ=            -21.5991
   XY=              0.4167   XZ=             -2.0714   YZ=              3.0111

  Exact polarizability:  32.975  -0.058  26.658  -1.124   2.133  21.882
 Approx polarizability:  39.971  -0.561  36.351  -1.017   2.865  29.362

                      1                      2                      3
                      A                      A                      A
 Frequencies --    136.6902               283.0102               424.2779
 Red. masses --      1.0917                 1.1518                 2.6366
 Frc consts  --      0.0120                 0.0544                 0.2796
 IR Inten    --     59.0379                 2.9864                 6.3263

                      4                      5                      6
                      A                      A                      A
 Frequencies --    861.3062               952.8649              1059.6813
 Red. masses --      3.4009                 1.2131                 2.6084
 Frc consts  --      1.4865                 0.6489                 1.7257
 IR Inten    --     42.8473                65.2899                18.5281

                      7                      8                      9
                      A                      A                      A
 Frequencies --   1106.3866              1154.0590              1225.7015
 Red. masses --      1.1839                 1.6011                 1.3817
 Frc consts  --      0.8538                 1.2564                 1.2230
 IR Inten    --     35.0629                13.1515                13.8426

                     10                     11                     12
                      A                      A                      A
 Frequencies --   1366.2247              1456.8997              1492.9423
 Red. masses --      1.3405                 1.1859                 1.0467
 Frc consts  --      1.4743                 1.4830                 1.3745
 IR Inten    --      1.0443                 0.2708                 5.1444

                     13                     14                     15
                      A                      A                      A
 Frequencies --   1511.8609              1531.8895              1668.3347
 Red. masses --      1.1606                 1.0459                 1.0586
 Frc consts  --      1.5629                 1.4461                 1.7360
 IR Inten    --      2.3778                 8.5652                25.1367

                     16                     17                     18
                      A                      A                      A
 Frequencies --   2989.8798              3065.6289              3118.8222
 Red. masses --      1.0469                 1.0909                 1.0996
 Frc consts  --      5.5142                 6.0406                 6.3016
 IR Inten    --     65.1929                44.4853                26.5480

                     19                     20                     21
                      A                      A                      A
 Frequencies --   3415.2383              3463.6410              3499.0923
 Red. masses --      1.0513                 1.0755                 1.0900
 Frc consts  --      7.2249                 7.6017                 7.8628
 IR Inten    --      3.2683                 1.1163                 2.0589

 - Thermochemistry -
 -------------------
 Temperature   298.150 Kelvin.  Pressure   1.00000 Atm.
 Atom     1 has atomic number  6 and mass  12.00000

 Molecular mass:    46.05310 amu.
 Principal axes and moments of inertia in atomic units:
                           1         2         3
     Eigenvalues --    49.15831 186.32739 214.65909
           X            0.99958   0.02030  -0.02067
           Y           -0.01714   0.98958   0.14299
           Z            0.02336  -0.14258   0.98951
 This molecule is an asymmetric top.
 Rotational symmetry number  1.
 Rotational temperatures (Kelvin)      1.76194     0.46485     0.40349
 Rotational constants (GHZ):          36.71284     9.68586     8.40748
 Zero-point vibrational energy     214038.4 (Joules/Mol)
                                   51.15641 (Kcal/Mol)
 Warning -- explicit consideration of   3 degrees of freedom as
           vibrations may cause significant error
 Vibrational temperatures:    196.67   407.19   610.44  1239.23  1370.96
          (Kelvin)           1524.64  1591.84  1660.43  1763.51  1965.69
                             2096.15  2148.01  2175.23  2204.04  2400.36
                             4301.76  4410.75  4487.28  4913.76  4983.40
                             5034.41

 Zero-point correction=                           0.081523 (Hartree/Particle)
 Thermal correction to Energy=                    0.085977
 Thermal correction to Enthalpy=                  0.086921
 Thermal correction to Gibbs Free Energy=         0.055837
 Sum of electronic and zero-point Energies=           -151.096476
 Sum of electronic and thermal Energies=              -151.092022
 Sum of electronic and thermal Enthalpies=            -151.091078
 Sum of electronic and thermal Free Energies=         -151.122162

                     E (Thermal)             CV                S
                      KCal/Mol        Cal/Mol-Kelvin    Cal/Mol-Kelvin
 Total                   53.951             13.467             65.423
 Electronic               0.000              0.000              0.000
 Translational            0.889              2.981             37.407
 Rotational               0.889              2.981             22.202
 Vibrational             52.174              7.505              5.814
 Vibration     1          0.614              1.917              2.850
 Vibration     2          0.682              1.705              1.515
 Vibration     3          0.786              1.417              0.878

 Optimization completed.
    -- Stationary point found.
 Normal termination of Gaussian 09 at Sat Aug 21 01:35:57 2021.
