 Gaussian 09, Revision E.01,
 Gaussian 09:  ES64L-G09RevE.01 30-Nov-2015

 ----------------------------
 #P OPT Freq B3LYP/6-31G(d,p)
 ----------------------------

 --------
 Frag_754
 --------
 Symbolic Z-matrix:
 Charge =  0 Multiplicity = 1

 SCF Done:  E(RB3LYP) =  -307.671801674     A.U. after   13 cycles
 SCF Done:  E(RB3LYP) =  -307.671881343     A.U. after    9 cycles
 SCF Done:  E(RB3LYP) =  -307.671893352     A.U. after    8 cycles
 SCF Done:  E(RB3LYP) =  -307.671902035     A.U. after   10 cycles
 SCF Done:  E(RB3LYP) =  -307.671904933     A.U. after    8 cycles
 SCF Done:  E(RB3LYP) =  -307.671905704     A.U. after    8 cycles
 SCF Done:  E(RB3LYP) =  -307.671905985     A.U. after    7 cycles
 SCF Done:  E(RB3LYP) =  -307.671906241     A.U. after    7 cycles
 SCF Done:  E(RB3LYP) =  -307.671906396     A.U. after    7 cycles
 SCF Done:  E(RB3LYP) =  -307.671906420     A.U. after    6 cycles
 Optimization completed.
    -- Stationary point found.
 Normal termination of Gaussian 09 at Thu Sep  8 15:10:41 2022.

 ----------------------------------------------------------------------
 #P Geom=AllCheck Guess=TCheck SCRF=Check GenChk RB3LYP/6-31G(d,p) Freq
 ----------------------------------------------------------------------

 Structure from the checkpoint file:  "B3LYP6-31Gdp.Frag_754.chk"
 --------
 Frag_754
 --------
 Charge =  0 Multiplicity = 1

                         Standard orientation:
 ---------------------------------------------------------------------
 Center     Atomic      Atomic             Coordinates (Angstroms)
 Number     Number       Type             X           Y           Z
 ---------------------------------------------------------------------
      1          6           0       -1.766322   -0.869367   -0.024280
      2          6           0       -0.672070    0.150693   -0.013186
      3          8           0       -1.183886    1.430437    0.008622
      4          6           0        0.641631   -0.135503   -0.005176
      5          6           0        1.778172    0.846923   -0.011846
      6          8           0        1.029276   -1.470165    0.110615
      7          1           0       -2.457851   -0.665504   -0.849834
      8          1           0       -2.348498   -0.820263    0.903408
      9          1           0       -1.354932   -1.872202   -0.130862
     10          1           0       -0.462951    2.066718    0.094846
     11          1           0        2.351263    0.799005    0.922126
     12          1           0        2.478356    0.625078   -0.830350
     13          1           0        1.459769    1.884193   -0.157866
     14          1           0        1.683256   -1.655677   -0.578441
 ---------------------------------------------------------------------

 SCF Done:  E(RB3LYP) =  -307.671906420     A.U. after    1 cycles

 The electronic state is 1-A.
 Alpha  occ. eigenvalues --  -19.16347 -19.15563 -10.22844 -10.22039 -10.19550
 Alpha  occ. eigenvalues --  -10.17061  -1.04287  -1.02761  -0.76945  -0.73561
 Alpha  occ. eigenvalues --   -0.65029  -0.57511  -0.52084  -0.47603  -0.44158
 Alpha  occ. eigenvalues --   -0.41923  -0.40823  -0.39325  -0.37810  -0.36432
 Alpha  occ. eigenvalues --   -0.35939  -0.34165  -0.29944  -0.19211
 Alpha virt. eigenvalues --    0.04997   0.06171   0.08418   0.12720   0.14616
 Alpha virt. eigenvalues --    0.16632   0.17772   0.19442   0.19921   0.22475
 Alpha virt. eigenvalues --    0.25399   0.26469   0.35201   0.47742   0.53099

 Mulliken charges:
               1
     1  C   -0.350447
     2  C    0.277646
     3  O   -0.550995
     4  C    0.238007
     5  C   -0.372732
     6  O   -0.557646
     7  H    0.117733
     8  H    0.122069
     9  H    0.131736
    10  H    0.308854
    11  H    0.134810
    12  H    0.107536
    13  H    0.087162
    14  H    0.306266
 Sum of Mulliken charges =  -0.00000

 Dipole moment (field-independent basis, Debye):
    X=              1.9644    Y=              0.7408    Z=             -0.9604  Tot=              2.3087
 Quadrupole moment (field-independent basis, Debye-Ang):
   XX=            -34.6840   YY=            -34.6203   ZZ=            -36.8148
   XY=              1.9594   XZ=             -2.0924   YZ=              2.5191

  Exact polarizability:  69.776  -0.591  50.390  -1.437   0.857  34.303
 Approx polarizability:  99.624  -9.672  70.113  -1.888   0.388  48.720

                      1                      2                      3
                      A                      A                      A
 Frequencies --    108.3172               158.6269               167.1579
 Red. masses --      1.2519                 1.1410                 1.5408
 Frc consts  --      0.0087                 0.0169                 0.0254
 IR Inten    --      7.6703                 3.1679                 0.2380

                      4                      5                      6
                      A                      A                      A
 Frequencies --    268.9126               274.7459               320.7627
 Red. masses --      2.1392                 1.2264                 1.2404
 Frc consts  --      0.0911                 0.0545                 0.0752
 IR Inten    --     24.3739               115.0407                89.2113

                      7                      8                      9
                      A                      A                      A
 Frequencies --    365.1443               380.6008               455.1994
 Red. masses --      4.3774                 2.7862                 3.0881
 Frc consts  --      0.3439                 0.2378                 0.3770
 IR Inten    --     12.2859                11.8265                10.2867

                     10                     11                     12
                      A                      A                      A
 Frequencies --    536.4885               546.5761               726.9674
 Red. masses --      3.5258                 4.6199                 4.2862
 Frc consts  --      0.5979                 0.8132                 1.3346
 IR Inten    --      2.6079                 4.8903                 1.0874

                     13                     14                     15
                      A                      A                      A
 Frequencies --    946.6527              1009.7795              1039.8201
 Red. masses --      2.1924                 1.5070                 1.4282
 Frc consts  --      1.1576                 0.9053                 0.9098
 IR Inten    --     14.7165                 7.5528                 3.3218

                     16                     17                     18
                      A                      A                      A
 Frequencies --   1078.6687              1091.3150              1198.7826
 Red. masses --      1.4384                 1.7170                 2.3807
 Frc consts  --      0.9861                 1.2048                 2.0158
 IR Inten    --      2.5708                10.8825               413.2503

                     19                     20                     21
                      A                      A                      A
 Frequencies --   1245.4040              1309.5931              1352.2571
 Red. masses --      2.4011                 1.6372                 1.8221
 Frc consts  --      2.1942                 1.6543                 1.9631
 IR Inten    --      0.3836                31.3214                 6.4468

                     22                     23                     24
                      A                      A                      A
 Frequencies --   1420.3058              1444.5728              1484.5820
 Red. masses --      1.3390                 1.4892                 1.0551
 Frc consts  --      1.5915                 1.8310                 1.3701
 IR Inten    --      6.2866                 3.7237                 4.9741

                     25                     26                     27
                      A                      A                      A
 Frequencies --   1493.9090              1498.7463              1509.2565
 Red. masses --      1.0495                 1.0564                 1.0560
 Frc consts  --      1.3800                 1.3980                 1.4172
 IR Inten    --      7.1578                 1.4430                 7.1212

                     28                     29                     30
                      A                      A                      A
 Frequencies --   1792.0644              3011.7416              3043.0328
 Red. masses --      6.9623                 1.0435                 1.0400
 Frc consts  --     13.1737                 5.5767                 5.6739
 IR Inten    --     26.5166                46.9739                31.6892

                     31                     32                     33
                      A                      A                      A
 Frequencies --   3066.1129              3093.0954              3103.0809
 Red. masses --      1.0934                 1.1006                 1.0998
 Frc consts  --      6.0563                 6.2040                 6.2396
 IR Inten    --     27.9726                20.6366                34.2992

                     34                     35                     36
                      A                      A                      A
 Frequencies --   3175.8385              3767.4942              3828.7623
 Red. masses --      1.0980                 1.0662                 1.0650
 Frc consts  --      6.5245                 8.9168                 9.1987
 IR Inten    --      5.8897                 9.6729                11.1455

 - Thermochemistry -
 -------------------
 Temperature   298.150 Kelvin.  Pressure   1.00000 Atm.
 Atom     1 has atomic number  6 and mass  12.00000

 Molecular mass:    88.05243 amu.
 Principal axes and moments of inertia in atomic units:
                           1         2         3
     Eigenvalues --   372.08448 573.32324 919.15173
           X            0.98836   0.15200  -0.00593
           Y           -0.15193   0.98833   0.01102
           Z            0.00754  -0.00999   0.99992
 This molecule is an asymmetric top.
 Rotational symmetry number  1.
 Rotational temperatures (Kelvin)      0.23278     0.15107     0.09423
 Rotational constants (GHZ):           4.85035     3.14786     1.96349
 Zero-point vibrational energy     306928.1 (Joules/Mol)
                                   73.35757 (Kcal/Mol)
 Warning -- explicit consideration of  11 degrees of freedom as
           vibrations may cause significant error
 Vibrational temperatures:    155.84   228.23   240.50   386.90   395.30
          (Kelvin)            461.51   525.36   547.60   654.93   771.89
                              786.40  1045.94  1362.02  1452.85  1496.07
                             1551.96  1570.16  1724.78  1791.86  1884.21
                             1945.59  2043.50  2078.42  2135.98  2149.40
                             2156.36  2171.48  2578.38  4333.22  4378.24
                             4411.45  4450.27  4464.64  4569.32  5420.58
                             5508.73

 Zero-point correction=                           0.116903 (Hartree/Particle)
 Thermal correction to Energy=                    0.124680
 Thermal correction to Enthalpy=                  0.125625
 Thermal correction to Gibbs Free Energy=         0.085779
 Sum of electronic and zero-point Energies=           -307.555004
 Sum of electronic and thermal Energies=              -307.547226
 Sum of electronic and thermal Enthalpies=            -307.546282
 Sum of electronic and thermal Free Energies=         -307.586128

                     E (Thermal)             CV                S
                      KCal/Mol        Cal/Mol-Kelvin    Cal/Mol-Kelvin
 Total                   78.238             27.162             83.863
 Electronic               0.000              0.000              0.000
 Translational            0.889              2.981             39.339
 Rotational               0.889              2.981             26.775
 Vibrational             76.461             21.201             17.749
 Vibration     1          0.606              1.943              3.299
 Vibration     2          0.621              1.893              2.566
 Vibration     3          0.624              1.883              2.467
 Vibration     4          0.673              1.730              1.603
 Vibration     5          0.677              1.720              1.566
 Vibration     6          0.706              1.634              1.306
 Vibration     7          0.738              1.544              1.100
 Vibration     8          0.750              1.512              1.037
 Vibration     9          0.814              1.349              0.780
 Vibration    10          0.892              1.169              0.573
 Vibration    11          0.902              1.147              0.551

 Optimization completed.
    -- Stationary point found.
 Normal termination of Gaussian 09 at Thu Sep  8 15:10:51 2022.
