 Gaussian 09, Revision E.01,
 Gaussian 09:  ES64L-G09RevE.01 30-Nov-2015

 ----------------------------
 #P OPT Freq B3LYP/6-31G(d,p)
 ----------------------------

 --------
 Frag_925
 --------
 Symbolic Z-matrix:
 Charge =  0 Multiplicity = 1

 SCF Done:  E(RB3LYP) =  -339.338187563     A.U. after   13 cycles
 SCF Done:  E(RB3LYP) =  -339.338231820     A.U. after   10 cycles
 SCF Done:  E(RB3LYP) =  -339.338148097     A.U. after   11 cycles
 SCF Done:  E(RB3LYP) =  -339.338241768     A.U. after   11 cycles
 SCF Done:  E(RB3LYP) =  -339.338242225     A.U. after    7 cycles
 Optimization completed.
    -- Stationary point found.
 Normal termination of Gaussian 09 at Thu Sep  8 15:24:39 2022.

 ----------------------------------------------------------------------
 #P Geom=AllCheck Guess=TCheck SCRF=Check GenChk RB3LYP/6-31G(d,p) Freq
 ----------------------------------------------------------------------

 Structure from the checkpoint file:  "B3LYP6-31Gdp.Frag_925.chk"
 --------
 Frag_925
 --------
 Charge =  0 Multiplicity = 1

                         Standard orientation:
 ---------------------------------------------------------------------
 Center     Atomic      Atomic             Coordinates (Angstroms)
 Number     Number       Type             X           Y           Z
 ---------------------------------------------------------------------
      1          6           0       -1.642665    1.251518   -0.018917
      2          6           0       -0.952668    0.099773   -0.021835
      3          7           0       -1.529452   -1.169613    0.073028
      4          6           0        0.587044    0.030211   -0.000185
      5          7           0        1.150119    1.352544   -0.235800
      6          7           0        0.982565   -1.035783   -0.946597
      7          7           0        1.121935   -0.403088    1.293578
      8          1           0       -1.134322    2.203676    0.034272
      9          1           0       -2.729166    1.254762   -0.006843
     10          1           0       -2.526216   -1.196664   -0.094887
     11          1           0       -1.009517   -1.867420   -0.448550
     12          1           0        0.862197    1.704149   -1.144553
     13          1           0        2.164098    1.278176   -0.222612
     14          1           0        1.972106   -1.226853   -0.804356
     15          1           0        0.859076   -0.708861   -1.902605
     16          1           0        0.631439   -1.251006    1.570035
     17          1           0        0.883867    0.312601    1.976262
 ---------------------------------------------------------------------

 SCF Done:  E(RB3LYP) =  -339.338242225     A.U. after    1 cycles

 The electronic state is 1-A.
 Alpha  occ. eigenvalues --  -14.32127 -14.31674 -14.31257 -14.30859 -10.26972
 Alpha  occ. eigenvalues --  -10.20731 -10.14639  -0.95171  -0.88693  -0.83836
 Alpha  occ. eigenvalues --   -0.83488  -0.71817  -0.62575  -0.54785  -0.51758
 Alpha  occ. eigenvalues --   -0.51007  -0.48194  -0.46302  -0.42857  -0.41083
 Alpha  occ. eigenvalues --   -0.40731  -0.38603  -0.36053  -0.32076  -0.29051
 Alpha  occ. eigenvalues --   -0.24299  -0.22619  -0.19487
 Alpha virt. eigenvalues --    0.04764   0.07181   0.10955   0.12638   0.13089
 Alpha virt. eigenvalues --    0.14063   0.15723   0.17631   0.18263   0.18713
 Alpha virt. eigenvalues --    0.20654   0.25797   0.27335   0.28373   0.29070

 Mulliken charges:
               1
     1  C   -0.338444
     2  C    0.323761
     3  N   -0.643331
     4  C    0.270261
     5  N   -0.583411
     6  N   -0.592636
     7  N   -0.575760
     8  H    0.102029
     9  H    0.066828
    10  H    0.247638
    11  H    0.270891
    12  H    0.233708
    13  H    0.238251
    14  H    0.242704
    15  H    0.231765
    16  H    0.252657
    17  H    0.253088
 Sum of Mulliken charges =  -0.00000

 Dipole moment (field-independent basis, Debye):
    X=              0.2585    Y=             -0.5655    Z=             -1.9334  Tot=              2.0309
 Quadrupole moment (field-independent basis, Debye-Ang):
   XX=            -39.4921   YY=            -44.6670   ZZ=            -40.2910
   XY=              2.7774   XZ=             -2.3194   YZ=             -0.5891

  Exact polarizability:  66.081  -5.069  67.954   0.507  -0.854  45.871
 Approx polarizability:  87.215 -11.151 106.084   2.706  -2.666  64.360

                      1                      2                      3
                      A                      A                      A
 Frequencies --     99.0967               244.2327               282.9850
 Red. masses --      3.7588                 2.5619                 1.0985
 Frc consts  --      0.0217                 0.0900                 0.0518
 IR Inten    --      0.9495                 1.3098                 9.0739

                      4                      5                      6
                      A                      A                      A
 Frequencies --    298.3260               349.0482               363.4151
 Red. masses --      2.0355                 1.5110                 1.3929
 Frc consts  --      0.1067                 0.1085                 0.1084
 IR Inten    --      4.7638                20.1345                40.0869

                      7                      8                      9
                      A                      A                      A
 Frequencies --    406.2181               429.7935               448.5332
 Red. masses --      2.0605                 2.0602                 1.5798
 Frc consts  --      0.2003                 0.2242                 0.1873
 IR Inten    --     26.2027                10.2984                18.6040

                     10                     11                     12
                      A                      A                      A
 Frequencies --    470.0961               534.4559               545.8478
 Red. masses --      1.8100                 2.6285                 2.6227
 Frc consts  --      0.2357                 0.4424                 0.4604
 IR Inten    --     14.7020                19.4831                35.5026

                     13                     14                     15
                      A                      A                      A
 Frequencies --    667.3531               714.2811               727.5923
 Red. masses --      2.2672                 1.2279                 3.2993
 Frc consts  --      0.5949                 0.3691                 1.0291
 IR Inten    --    111.1021                69.3387                 8.5224

                     16                     17                     18
                      A                      A                      A
 Frequencies --    766.8342               822.2285               837.9724
 Red. masses --      1.4505                 1.4000                 1.2686
 Frc consts  --      0.5026                 0.5577                 0.5248
 IR Inten    --     96.1642               106.6145               227.1981

                     19                     20                     21
                      A                      A                      A
 Frequencies --    874.0737               949.9953               984.1631
 Red. masses --      2.1462                 2.3598                 1.4848
 Frc consts  --      0.9661                 1.2548                 0.8473
 IR Inten    --     46.5361               145.9608                42.0420

                     22                     23                     24
                      A                      A                      A
 Frequencies --    997.5810              1029.8084              1123.7936
 Red. masses --      1.3753                 2.1822                 1.4823
 Frc consts  --      0.8064                 1.3635                 1.1029
 IR Inten    --     35.5776                56.1675                 3.2825

                     25                     26                     27
                      A                      A                      A
 Frequencies --   1164.5936              1234.5568              1333.3248
 Red. masses --      1.2205                 2.5320                 1.7866
 Frc consts  --      0.9753                 2.2738                 1.8714
 IR Inten    --      4.6144               105.6716                49.9056

                     28                     29                     30
                      A                      A                      A
 Frequencies --   1348.3302              1400.6267              1451.5815
 Red. masses --      2.0964                 2.2951                 1.2155
 Frc consts  --      2.2455                 2.6528                 1.5090
 IR Inten    --      7.2555                26.8591                 6.5129

                     31                     32                     33
                      A                      A                      A
 Frequencies --   1620.0880              1631.0053              1643.3462
 Red. masses --      1.1353                 1.1470                 1.0991
 Frc consts  --      1.7557                 1.7978                 1.7489
 IR Inten    --     71.5074                12.3964                77.6128

                     34                     35                     36
                      A                      A                      A
 Frequencies --   1655.4363              1722.9139              3163.8227
 Red. masses --      1.1081                 5.1065                 1.0648
 Frc consts  --      1.7892                 8.9310                 6.2796
 IR Inten    --     38.1006                76.7875                15.5001

                     37                     38                     39
                      A                      A                      A
 Frequencies --   3277.5045              3483.7145              3500.1664
 Red. masses --      1.1099                 1.0488                 1.0498
 Frc consts  --      7.0246                 7.4995                 7.5778
 IR Inten    --      4.9865                 0.9486                 1.2389

                     40                     41                     42
                      A                      A                      A
 Frequencies --   3502.7138              3529.9801              3581.2900
 Red. masses --      1.0485                 1.0482                 1.0937
 Frc consts  --      7.5795                 7.6957                 8.2646
 IR Inten    --      0.2775                30.3657                 0.7881

                     43                     44                     45
                      A                      A                      A
 Frequencies --   3588.2846              3600.7252              3654.9608
 Red. masses --      1.0920                 1.0940                 1.0969
 Frc consts  --      8.2841                 8.3567                 8.6332
 IR Inten    --      3.1079                 0.6847                20.4691

 - Thermochemistry -
 -------------------
 Temperature   298.150 Kelvin.  Pressure   1.00000 Atm.
 Atom     1 has atomic number  6 and mass  12.00000

 Molecular mass:   102.09055 amu.
 Principal axes and moments of inertia in atomic units:
                           1         2         3
     Eigenvalues --   535.03630 737.61066 921.82355
           X            0.99991  -0.00585  -0.01170
           Y            0.00579   0.99997  -0.00441
           Z            0.01173   0.00434   0.99992
 This molecule is an asymmetric top.
 Rotational symmetry number  1.
 Warning -- assumption of classical behavior for rotation
           may cause significant error
 Rotational temperatures (Kelvin)      0.16188     0.11742     0.09396
 Rotational constants (GHZ):           3.37312     2.44674     1.95779
 Zero-point vibrational energy     395106.8 (Joules/Mol)
                                   94.43278 (Kcal/Mol)
 Warning -- explicit consideration of  12 degrees of freedom as
           vibrations may cause significant error
 Vibrational temperatures:    142.58   351.40   407.15   429.22   502.20
          (Kelvin)            522.87   584.46   618.38   645.34   676.36
                              768.96   785.35   960.17  1027.69  1046.84
                             1103.30  1183.00  1205.65  1257.60  1366.83
                             1415.99  1435.29  1481.66  1616.89  1675.59
                             1776.25  1918.35  1939.94  2015.19  2088.50
                             2330.94  2346.65  2364.41  2381.80  2478.89
                             4552.03  4715.59  5012.28  5035.95  5039.62
                             5078.85  5152.67  5162.73  5180.63  5258.67

 Zero-point correction=                           0.150488 (Hartree/Particle)
 Thermal correction to Energy=                    0.158494
 Thermal correction to Enthalpy=                  0.159438
 Thermal correction to Gibbs Free Energy=         0.119332
 Sum of electronic and zero-point Energies=           -339.187754
 Sum of electronic and thermal Energies=              -339.179748
 Sum of electronic and thermal Enthalpies=            -339.178804
 Sum of electronic and thermal Free Energies=         -339.218911

                     E (Thermal)             CV                S
                      KCal/Mol        Cal/Mol-Kelvin    Cal/Mol-Kelvin
 Total                   99.456             31.876             84.412
 Electronic               0.000              0.000              0.000
 Translational            0.889              2.981             39.780
 Rotational               0.889              2.981             27.389
 Vibrational             97.679             25.914             17.243
 Vibration     1          0.604              1.950              3.472
 Vibration     2          0.660              1.772              1.772
 Vibration     3          0.682              1.705              1.516
 Vibration     4          0.691              1.677              1.426
 Vibration     5          0.726              1.577              1.170
 Vibration     6          0.737              1.548              1.107
 Vibration     7          0.771              1.457              0.940
 Vibration     8          0.791              1.405              0.859
 Vibration     9          0.808              1.364              0.800
 Vibration    10          0.827              1.316              0.737
 Vibration    11          0.889              1.174              0.577
 Vibration    12          0.901              1.149              0.553

 Normal termination of Gaussian 09 at Thu Sep  8 15:24:56 2022.
