 Gaussian 09, Revision E.01,
 Gaussian 09:  ES64L-G09RevE.01 30-Nov-2015

 ----------------------------
 #P OPT Freq B3LYP/6-31G(d,p)
 ----------------------------

 --------
 Frag_892
 --------
 Symbolic Z-matrix:
 Charge =  0 Multiplicity = 1

 SCF Done:  E(RB3LYP) =  -248.485356061     A.U. after   13 cycles
 SCF Done:  E(RB3LYP) =  -248.485405078     A.U. after   10 cycles
 SCF Done:  E(RB3LYP) =  -248.485408109     A.U. after    8 cycles
 SCF Done:  E(RB3LYP) =  -248.485408353     A.U. after    8 cycles
 SCF Done:  E(RB3LYP) =  -248.485408333     A.U. after    7 cycles
 Optimization completed.
    -- Stationary point found.
 Normal termination of Gaussian 09 at Thu Sep  8 15:12:55 2022.

 ----------------------------------------------------------------------
 #P Geom=AllCheck Guess=TCheck SCRF=Check GenChk RB3LYP/6-31G(d,p) Freq
 ----------------------------------------------------------------------

 Structure from the checkpoint file:  "B3LYP6-31Gdp.Frag_892.chk"
 --------
 Frag_892
 --------
 Charge =  0 Multiplicity = 1

                         Standard orientation:
 ---------------------------------------------------------------------
 Center     Atomic      Atomic             Coordinates (Angstroms)
 Number     Number       Type             X           Y           Z
 ---------------------------------------------------------------------
      1          6           0        1.973235    0.101465    0.122561
      2          7           0        0.882851   -0.077768   -0.499761
      3          6           0       -0.349103   -0.060170    0.289269
      4          6           0       -1.167894    1.173964   -0.061955
      5          8           0       -1.135165   -1.188426   -0.037675
      6          1           0        2.913203    0.106340   -0.432204
      7          1           0        2.040512    0.260641    1.210268
      8          1           0       -0.113678   -0.057985    1.372932
      9          1           0       -1.345378    1.198405   -1.139776
     10          1           0       -0.641025    2.084577    0.235621
     11          1           0       -2.129796    1.132658    0.455900
     12          1           0       -0.559906   -1.964403   -0.002269
 ---------------------------------------------------------------------

 SCF Done:  E(RB3LYP) =  -248.485408333     A.U. after    1 cycles

 The electronic state is 1-A.
 Alpha  occ. eigenvalues --  -19.14477 -14.33821 -10.26315 -10.23618 -10.17504
 Alpha  occ. eigenvalues --   -1.02838  -0.91685  -0.74745  -0.64316  -0.58097
 Alpha  occ. eigenvalues --   -0.52289  -0.49220  -0.44603  -0.42501  -0.38595
 Alpha  occ. eigenvalues --   -0.37732  -0.33419  -0.32272  -0.28429  -0.25649
 Alpha virt. eigenvalues --   -0.01848   0.09133   0.10714   0.13596   0.14943
 Alpha virt. eigenvalues --    0.17467   0.17717   0.18529   0.21794   0.22768
 Alpha virt. eigenvalues --    0.26348   0.34001   0.50144   0.54246   0.56699

 Mulliken charges:
               1
     1  C   -0.030419
     2  N   -0.323873
     3  C    0.276686
     4  C   -0.309711
     5  O   -0.527935
     6  H    0.111810
     7  H    0.088065
     8  H    0.057264
     9  H    0.131142
    10  H    0.102473
    11  H    0.119393
    12  H    0.305104
 Sum of Mulliken charges =  -0.00000

 Dipole moment (field-independent basis, Debye):
    X=              1.7107    Y=              0.1656    Z=              1.5996  Tot=              2.3479
 Quadrupole moment (field-independent basis, Debye-Ang):
   XX=            -29.8561   YY=            -28.1305   ZZ=            -32.1776
   XY=             -1.6660   XZ=              1.0200   YZ=             -0.3717

  Exact polarizability:  56.316   0.600  36.226   2.165   1.340  37.511
 Approx polarizability:  76.951   4.122  48.071   7.254   3.264  55.816

                      1                      2                      3
                      A                      A                      A
 Frequencies --     89.9193               224.5808               260.8657
 Red. masses --      2.9991                 1.1018                 1.0502
 Frc consts  --      0.0143                 0.0327                 0.0421
 IR Inten    --      6.4822                36.3687                73.8645

                      4                      5                      6
                      A                      A                      A
 Frequencies --    358.8906               384.6158               421.5974
 Red. masses --      2.6445                 2.4202                 2.5906
 Frc consts  --      0.2007                 0.2109                 0.2713
 IR Inten    --      2.1206                 3.2081                22.4249

                      7                      8                      9
                      A                      A                      A
 Frequencies --    584.3048               751.3664               847.3038
 Red. masses --      3.7689                 1.3514                 2.1165
 Frc consts  --      0.7581                 0.4495                 0.8952
 IR Inten    --      4.0850                 2.0445                 9.1692

                     10                     11                     12
                      A                      A                      A
 Frequencies --    951.0399              1052.1536              1072.6851
 Red. masses --      2.0638                 2.1768                 1.3672
 Frc consts  --      1.0998                 1.4198                 0.9269
 IR Inten    --     21.3752                66.0651                11.0842

                     13                     14                     15
                      A                      A                      A
 Frequencies --   1116.9826              1169.7645              1236.1719
 Red. masses --      1.6652                 2.4471                 1.7208
 Frc consts  --      1.2240                 1.9729                 1.5493
 IR Inten    --     11.6456                63.6948                27.7545

                     16                     17                     18
                      A                      A                      A
 Frequencies --   1285.0328              1392.4860              1403.6063
 Red. masses --      1.1916                 1.1842                 1.2433
 Frc consts  --      1.1593                 1.3529                 1.4431
 IR Inten    --     83.6828                36.2860                 8.2397

                     19                     20                     21
                      A                      A                      A
 Frequencies --   1443.6441              1496.0223              1503.5859
 Red. masses --      1.5529                 1.0613                 1.0884
 Frc consts  --      1.9068                 1.3994                 1.4498
 IR Inten    --     33.5004                 1.0004                14.0777

                     22                     23                     24
                      A                      A                      A
 Frequencies --   1509.9004              1741.5426              2903.5669
 Red. masses --      1.1114                 5.9981                 1.0824
 Frc consts  --      1.4929                10.7185                 5.3766
 IR Inten    --      8.8947                27.4277                83.7893

                     25                     26                     27
                      A                      A                      A
 Frequencies --   3002.5532              3062.0633              3142.0355
 Red. masses --      1.0652                 1.0343                 1.1035
 Frc consts  --      5.6581                 5.7139                 6.4188
 IR Inten    --     51.3157                11.6323                18.9914

                     28                     29                     30
                      A                      A                      A
 Frequencies --   3148.5479              3150.9366              3812.2800
 Red. masses --      1.1041                 1.1036                 1.0662
 Frc consts  --      6.4487                 6.4556                 9.1295
 IR Inten    --     31.9215                16.3390                16.8788

 - Thermochemistry -
 -------------------
 Temperature   298.150 Kelvin.  Pressure   1.00000 Atm.
 Atom     1 has atomic number  6 and mass  12.00000

 Molecular mass:    73.05276 amu.
 Principal axes and moments of inertia in atomic units:
                           1         2         3
     Eigenvalues --   214.36351 449.91859 594.07677
           X            0.99860  -0.05113   0.01388
           Y            0.05118   0.99868  -0.00361
           Z           -0.01367   0.00431   0.99990
 This molecule is an asymmetric top.
 Rotational symmetry number  1.
 Rotational temperatures (Kelvin)      0.40405     0.19251     0.14580
 Rotational constants (GHZ):           8.41907     4.01126     3.03789
 Zero-point vibrational energy     266289.0 (Joules/Mol)
                                   63.64460 (Kcal/Mol)
 Warning -- explicit consideration of   7 degrees of freedom as
           vibrations may cause significant error
 Vibrational temperatures:    129.37   323.12   375.33   516.36   553.38
          (Kelvin)            606.58   840.68  1081.05  1219.08  1368.33
                             1513.81  1543.35  1607.09  1683.03  1778.57
                             1848.87  2003.47  2019.47  2077.08  2152.44
                             2163.32  2172.41  2505.69  4177.58  4320.00
                             4405.62  4520.68  4530.05  4533.49  5485.01

 Zero-point correction=                           0.101424 (Hartree/Particle)
 Thermal correction to Energy=                    0.107507
 Thermal correction to Enthalpy=                  0.108451
 Thermal correction to Gibbs Free Energy=         0.072328
 Sum of electronic and zero-point Energies=           -248.383984
 Sum of electronic and thermal Energies=              -248.377901
 Sum of electronic and thermal Enthalpies=            -248.376957
 Sum of electronic and thermal Free Energies=         -248.413080

                     E (Thermal)             CV                S
                      KCal/Mol        Cal/Mol-Kelvin    Cal/Mol-Kelvin
 Total                   67.462             20.774             76.028
 Electronic               0.000              0.000              0.000
 Translational            0.889              2.981             38.782
 Rotational               0.889              2.981             25.552
 Vibrational             65.684             14.813             11.694
 Vibration     1          0.602              1.956              3.662
 Vibration     2          0.649              1.804              1.922
 Vibration     3          0.669              1.744              1.656
 Vibration     4          0.734              1.557              1.127
 Vibration     5          0.754              1.503              1.021
 Vibration     6          0.784              1.423              0.887
 Vibration     7          0.941              1.065              0.477

 Normal termination of Gaussian 09 at Thu Sep  8 15:13:03 2022.
