 Gaussian 09, Revision E.01,
 Gaussian 09:  ES64L-G09RevE.01 30-Nov-2015

 ----------------------------
 #P OPT Freq B3LYP/6-31G(d,p)
 ----------------------------

 --------
 Frag_863
 --------
 Symbolic Z-matrix:
 Charge =  0 Multiplicity = 1

 SCF Done:  E(RB3LYP) =  -173.277048223     A.U. after   13 cycles
 SCF Done:  E(RB3LYP) =  -173.277072870     A.U. after    8 cycles
 SCF Done:  E(RB3LYP) =  -173.277073557     A.U. after    7 cycles
 Optimization completed.
    -- Stationary point found.
 Normal termination of Gaussian 09 at Thu Sep  8 15:02:39 2022.

 ----------------------------------------------------------------------
 #P Geom=AllCheck Guess=TCheck SCRF=Check GenChk RB3LYP/6-31G(d,p) Freq
 ----------------------------------------------------------------------

 Structure from the checkpoint file:  "B3LYP6-31Gdp.Frag_863.chk"
 --------
 Frag_863
 --------
 Charge =  0 Multiplicity = 1

                         Standard orientation:
 ---------------------------------------------------------------------
 Center     Atomic      Atomic             Coordinates (Angstroms)
 Number     Number       Type             X           Y           Z
 ---------------------------------------------------------------------
      1          6           0       -1.705597   -0.244535   -0.250992
      2          6           0       -0.491348    0.545230    0.264868
      3          6           0        0.762351   -0.294803    0.310626
      4          7           0        1.878738   -0.087232   -0.263264
      5          1           0       -1.890301   -1.131074    0.364772
      6          1           0       -2.609250    0.371463   -0.228543
      7          1           0       -1.548931   -0.580378   -1.280666
      8          1           0       -0.703088    0.903318    1.282443
      9          1           0       -0.315122    1.431972   -0.356666
     10          1           0        0.685185   -1.206816    0.917762
     11          1           0        1.837903    0.786788   -0.803261
 ---------------------------------------------------------------------

 SCF Done:  E(RB3LYP) =  -173.277073557     A.U. after    1 cycles

 The electronic state is 1-A.
 Alpha  occ. eigenvalues --  -14.31737 -10.22949 -10.19980 -10.18995  -0.89853
 Alpha  occ. eigenvalues --   -0.77555  -0.65020  -0.58291  -0.47195  -0.46349
 Alpha  occ. eigenvalues --   -0.41038  -0.40020  -0.37561  -0.35630  -0.30477
 Alpha  occ. eigenvalues --   -0.25559
 Alpha virt. eigenvalues --    0.00315   0.09588   0.10651   0.13839   0.15473
 Alpha virt. eigenvalues --    0.16775   0.17369   0.17476   0.21539   0.28430
 Alpha virt. eigenvalues --    0.37832   0.51253   0.52400   0.54948   0.56037

 Mulliken charges:
               1
     1  C   -0.323534
     2  C   -0.221976
     3  C    0.138703
     4  N   -0.468929
     5  H    0.113627
     6  H    0.112613
     7  H    0.118846
     8  H    0.118565
     9  H    0.098955
    10  H    0.095740
    11  H    0.217390
 Sum of Mulliken charges =  -0.00000

 Dipole moment (field-independent basis, Debye):
    X=             -2.2976    Y=              1.0105    Z=              0.1636  Tot=              2.5153
 Quadrupole moment (field-independent basis, Debye-Ang):
   XX=            -31.4031   YY=            -24.8471   ZZ=            -24.9251
   XY=              2.2787   XZ=             -0.2976   YZ=             -1.2992

  Exact polarizability:  47.306   0.976  35.456  -4.973  -4.224  33.315
 Approx polarizability:  64.683   1.864  48.561 -10.969  -6.796  47.930

                      1                      2                      3
                      A                      A                      A
 Frequencies --     91.3007               224.5575               319.6681
 Red. masses --      2.3665                 1.0934                 2.0869
 Frc consts  --      0.0116                 0.0325                 0.1256
 IR Inten    --      0.1247                 0.9739                 5.4056

                      4                      5                      6
                      A                      A                      A
 Frequencies --    489.9523               738.2071               822.6228
 Red. masses --      2.2828                 1.5192                 1.3465
 Frc consts  --      0.3229                 0.4878                 0.5369
 IR Inten    --      5.9583                 6.8972                10.2084

                      7                      8                      9
                      A                      A                      A
 Frequencies --    886.0439              1019.5780              1101.9029
 Red. masses --      1.7852                 2.6228                 1.7178
 Frc consts  --      0.8258                 1.6064                 1.2289
 IR Inten    --      8.8427                 1.3398                 3.9737

                     10                     11                     12
                      A                      A                      A
 Frequencies --   1104.1105              1150.8388              1259.5982
 Red. masses --      1.4020                 1.1128                 1.3261
 Frc consts  --      1.0070                 0.8684                 1.2397
 IR Inten    --     16.6130                42.5543                23.3202

                     13                     14                     15
                      A                      A                      A
 Frequencies --   1309.9227              1346.0859              1419.3242
 Red. masses --      1.2539                 1.4257                 1.2207
 Frc consts  --      1.2677                 1.5220                 1.4489
 IR Inten    --     33.9756                17.6528                 3.6350

                     16                     17                     18
                      A                      A                      A
 Frequencies --   1435.3174              1486.6083              1513.3406
 Red. masses --      1.2354                 1.0793                 1.0404
 Frc consts  --      1.4995                 1.4053                 1.4038
 IR Inten    --     15.4826                 3.9828                 6.4926

                     19                     20                     21
                      A                      A                      A
 Frequencies --   1519.7397              1738.8773              3023.0103
 Red. masses --      1.0590                 8.2225                 1.0616
 Frc consts  --      1.4411                14.6484                 5.7160
 IR Inten    --      5.3605                66.6292                19.9496

                     22                     23                     24
                      A                      A                      A
 Frequencies --   3048.0133              3058.5809              3074.8688
 Red. masses --      1.0369                 1.0872                 1.0990
 Frc consts  --      5.6756                 5.9923                 6.1219
 IR Inten    --     22.8672                12.8278                39.7346

                     25                     26                     27
                      A                      A                      A
 Frequencies --   3120.2209              3126.6620              3393.2583
 Red. masses --      1.1025                 1.1034                 1.0736
 Frc consts  --      6.3242                 6.3557                 7.2833
 IR Inten    --     37.6231                27.2720                11.3251

 - Thermochemistry -
 -------------------
 Temperature   298.150 Kelvin.  Pressure   1.00000 Atm.
 Atom     1 has atomic number  6 and mass  12.00000

 Molecular mass:    57.05785 amu.
 Principal axes and moments of inertia in atomic units:
                           1         2         3
     Eigenvalues --    75.00289 428.09998 441.32221
           X            0.99987   0.01580  -0.00102
           Y           -0.01560   0.97253  -0.23224
           Z           -0.00268   0.23223   0.97266
 This molecule is an asymmetric top.
 Rotational symmetry number  1.
 Rotational temperatures (Kelvin)      1.15481     0.20232     0.19626
 Rotational constants (GHZ):          24.06229     4.21570     4.08940
 Zero-point vibrational energy     256133.7 (Joules/Mol)
                                   61.21742 (Kcal/Mol)
 Warning -- explicit consideration of   4 degrees of freedom as
           vibrations may cause significant error
 Vibrational temperatures:    131.36   323.09   459.93   704.93  1062.11
          (Kelvin)           1183.57  1274.82  1466.94  1585.39  1588.57
                             1655.80  1812.28  1884.68  1936.71  2042.09
                             2065.10  2138.90  2177.36  2186.56  2501.85
                             4349.43  4385.41  4400.61  4424.04  4489.30
                             4498.56  4882.14

 Zero-point correction=                           0.097556 (Hartree/Particle)
 Thermal correction to Energy=                    0.102685
 Thermal correction to Enthalpy=                  0.103629
 Thermal correction to Gibbs Free Energy=         0.070003
 Sum of electronic and zero-point Energies=           -173.179517
 Sum of electronic and thermal Energies=              -173.174389
 Sum of electronic and thermal Enthalpies=            -173.173444
 Sum of electronic and thermal Free Energies=         -173.207071

                     E (Thermal)             CV                S
                      KCal/Mol        Cal/Mol-Kelvin    Cal/Mol-Kelvin
 Total                   64.436             16.555             70.773
 Electronic               0.000              0.000              0.000
 Translational            0.889              2.981             38.046
 Rotational               0.889              2.981             24.164
 Vibrational             62.658             10.594              8.563
 Vibration     1          0.602              1.955              3.632
 Vibration     2          0.649              1.804              1.922
 Vibration     3          0.706              1.636              1.312
 Vibration     4          0.846              1.272              0.684

 Normal termination of Gaussian 09 at Thu Sep  8 15:02:46 2022.
