 Gaussian 09, Revision E.01,
 Gaussian 09:  ES64L-G09RevE.01 30-Nov-2015

 ----------------------------
 #P OPT Freq B3LYP/6-31G(d,p)
 ----------------------------

 --------
 Frag_556
 --------
 Symbolic Z-matrix:
 Charge =  0 Multiplicity = 1

 SCF Done:  E(RB3LYP) =  -306.473811829     A.U. after   15 cycles
 SCF Done:  E(RB3LYP) =  -306.473927137     A.U. after   11 cycles
 SCF Done:  E(RB3LYP) =  -306.473882550     A.U. after   12 cycles
 SCF Done:  E(RB3LYP) =  -306.473942650     A.U. after   11 cycles
 SCF Done:  E(RB3LYP) =  -306.473943712     A.U. after    8 cycles
 Optimization completed.
    -- Stationary point found.
 Normal termination of Gaussian 09 at Thu Sep  8 15:08:45 2022.

 ----------------------------------------------------------------------
 #P Geom=AllCheck Guess=TCheck SCRF=Check GenChk RB3LYP/6-31G(d,p) Freq
 ----------------------------------------------------------------------

 Structure from the checkpoint file:  "B3LYP6-31Gdp.Frag_556.chk"
 --------
 Frag_556
 --------
 Charge =  0 Multiplicity = 1

                         Standard orientation:
 ---------------------------------------------------------------------
 Center     Atomic      Atomic             Coordinates (Angstroms)
 Number     Number       Type             X           Y           Z
 ---------------------------------------------------------------------
      1          6           0        1.197177    1.438153    0.000026
      2          6           0        0.762626    0.168489    0.000005
      3          8           0        1.600281   -0.893262   -0.000027
      4          6           0       -0.682489   -0.228708   -0.000011
      5          6           0       -1.777372    0.810388   -0.000023
      6          8           0       -0.928290   -1.430976    0.000042
      7          1           0        2.257150    1.662731    0.000024
      8          1           0        0.500716    2.265370    0.000033
      9          1           0        1.011754   -1.675101   -0.000070
     10          1           0       -1.701096    1.453308    0.882468
     11          1           0       -1.701111    1.453264   -0.882548
     12          1           0       -2.743007    0.304399   -0.000002
 ---------------------------------------------------------------------

 SCF Done:  E(RB3LYP) =  -306.473943712     A.U. after    1 cycles

 The electronic state is 1-A.
 Alpha  occ. eigenvalues --  -19.17090 -19.16238 -10.29468 -10.25601 -10.20503
 Alpha  occ. eigenvalues --  -10.19189  -1.07803  -1.03786  -0.79194  -0.73991
 Alpha  occ. eigenvalues --   -0.63171  -0.57072  -0.50991  -0.47289  -0.46125
 Alpha  occ. eigenvalues --   -0.43729  -0.41920  -0.41428  -0.40130  -0.36143
 Alpha  occ. eigenvalues --   -0.35932  -0.27776  -0.24122
 Alpha virt. eigenvalues --   -0.06169   0.07544   0.08719   0.11660   0.13840
 Alpha virt. eigenvalues --    0.15604   0.16262   0.17017   0.20772   0.28298
 Alpha virt. eigenvalues --    0.30008   0.34031   0.35876   0.48765   0.50739

 Mulliken charges:
               1
     1  C   -0.304072
     2  C    0.338535
     3  O   -0.546602
     4  C    0.399123
     5  C   -0.399600
     6  O   -0.475019
     7  H    0.120741
     8  H    0.104677
     9  H    0.331124
    10  H    0.142824
    11  H    0.142822
    12  H    0.145446
 Sum of Mulliken charges =  -0.00000

 Dipole moment (field-independent basis, Debye):
    X=             -1.1683    Y=              2.1708    Z=             -0.0002  Tot=              2.4653
 Quadrupole moment (field-independent basis, Debye-Ang):
   XX=            -36.6642   YY=            -34.3329   ZZ=            -35.5927
   XY=             -2.1650   XZ=              0.0001   YZ=              0.0003

  Exact polarizability:  53.936   7.121  63.914   0.000   0.000  25.943
 Approx polarizability:  71.637  19.394 117.070  -0.000   0.000  37.445

                      1                      2                      3
                      A                      A                      A
 Frequencies --    105.2961               122.2868               285.2026
 Red. masses --      1.5280                 1.9626                 3.1580
 Frc consts  --      0.0100                 0.0173                 0.1513
 IR Inten    --      0.9282                 0.0066                10.2260

                      4                      5                      6
                      A                      A                      A
 Frequencies --    359.3472               409.9688               454.1126
 Red. masses --      2.8421                 4.0669                 2.7023
 Frc consts  --      0.2162                 0.4027                 0.3283
 IR Inten    --      0.3144                14.6673                 1.7284

                      7                      8                      9
                      A                      A                      A
 Frequencies --    603.4356               610.9784               664.2448
 Red. masses --      4.8614                 1.3330                 2.0287
 Frc consts  --      1.0430                 0.2932                 0.5274
 IR Inten    --      5.8945                62.5290                14.6205

                     10                     11                     12
                      A                      A                      A
 Frequencies --    737.2105               740.3744               867.5001
 Red. masses --      1.1052                 3.3630                 1.3827
 Frc consts  --      0.3539                 1.0861                 0.6131
 IR Inten    --     24.0227                11.1549                56.7645

                     13                     14                     15
                      A                      A                      A
 Frequencies --    983.6346               995.5126              1044.2057
 Red. masses --      1.7161                 2.0450                 1.7842
 Frc consts  --      0.9783                 1.1941                 1.1462
 IR Inten    --     15.5536                31.2755                 4.8154

                     16                     17                     18
                      A                      A                      A
 Frequencies --   1179.6644              1297.8753              1393.0244
 Red. masses --      2.6913                 1.6991                 1.3468
 Frc consts  --      2.2066                 1.6863                 1.5398
 IR Inten    --     28.7443               183.9007               131.1129

                     19                     20                     21
                      A                      A                      A
 Frequencies --   1428.8139              1453.7688              1485.3739
 Red. masses --      2.4509                 1.1845                 1.0667
 Frc consts  --      2.9480                 1.4749                 1.3867
 IR Inten    --    104.9171                63.9988                 3.0094

                     22                     23                     24
                      A                      A                      A
 Frequencies --   1487.3096              1729.8031              1758.6831
 Red. masses --      1.0470                 5.6028                 8.9456
 Frc consts  --      1.3646                 9.8776                16.3017
 IR Inten    --      9.5279                 4.7347               183.0424

                     25                     26                     27
                      A                      A                      A
 Frequencies --   3059.5440              3125.2468              3171.6054
 Red. masses --      1.0368                 1.1002                 1.1032
 Frc consts  --      5.7182                 6.3311                 6.5381
 IR Inten    --      1.1322                 4.6086                 6.0112

                     28                     29                     30
                      A                      A                      A
 Frequencies --   3195.5261              3290.7720              3617.2359
 Red. masses --      1.0602                 1.1169                 1.0638
 Frc consts  --      6.3788                 7.1262                 8.2006
 IR Inten    --      0.2378                 2.8803               118.8229

 - Thermochemistry -
 -------------------
 Temperature   298.150 Kelvin.  Pressure   1.00000 Atm.
 Atom     1 has atomic number  6 and mass  12.00000

 Molecular mass:    86.03678 amu.
 Principal axes and moments of inertia in atomic units:
                           1         2         3
     Eigenvalues --   340.67200 513.92329 843.38337
           X            0.99843  -0.05605   0.00000
           Y            0.05605   0.99843   0.00000
           Z           -0.00000  -0.00000   1.00000
 This molecule is an asymmetric top.
 Rotational symmetry number  1.
 Rotational temperatures (Kelvin)      0.25424     0.16853     0.10270
 Rotational constants (GHZ):           5.29759     3.51169     2.13988
 Zero-point vibrational energy     249167.5 (Joules/Mol)
                                   59.55247 (Kcal/Mol)
 Warning -- explicit consideration of   8 degrees of freedom as
           vibrations may cause significant error
 Vibrational temperatures:    151.50   175.94   410.34   517.02   589.85
          (Kelvin)            653.37   868.21   879.06   955.70  1060.68
                             1065.23  1248.14  1415.23  1432.32  1502.38
                             1697.27  1867.35  2004.25  2055.74  2091.65
                             2137.12  2139.90  2488.80  2530.35  4402.00
                             4496.53  4563.23  4597.64  4734.68  5204.39

 Zero-point correction=                           0.094903 (Hartree/Particle)
 Thermal correction to Energy=                    0.101371
 Thermal correction to Enthalpy=                  0.102316
 Thermal correction to Gibbs Free Energy=         0.064848
 Sum of electronic and zero-point Energies=           -306.379041
 Sum of electronic and thermal Energies=              -306.372572
 Sum of electronic and thermal Enthalpies=            -306.371628
 Sum of electronic and thermal Free Energies=         -306.409096

                     E (Thermal)             CV                S
                      KCal/Mol        Cal/Mol-Kelvin    Cal/Mol-Kelvin
 Total                   63.612             22.875             78.858
 Electronic               0.000              0.000              0.000
 Translational            0.889              2.981             39.270
 Rotational               0.889              2.981             26.493
 Vibrational             61.834             16.914             13.095
 Vibration     1          0.605              1.945              3.354
 Vibration     2          0.610              1.931              3.064
 Vibration     3          0.683              1.701              1.502
 Vibration     4          0.734              1.556              1.125
 Vibration     5          0.774              1.449              0.927
 Vibration     6          0.813              1.352              0.783
 Vibration     7          0.962              1.025              0.444
 Vibration     8          0.970              1.009              0.431

 Optimization completed.
    -- Stationary point found.
 Normal termination of Gaussian 09 at Thu Sep  8 15:08:55 2022.
