 Gaussian 09, Revision E.01,
 Gaussian 09:  ES64L-G09RevE.01 30-Nov-2015

 --------------------------------
 #P OPT=calcfc Freq B3LYP/6-31G**
 --------------------------------

 --------
 Frag_290
 --------
 Symbolic Z-matrix:
 Charge =  0 Multiplicity = 1

 SCF Done:  E(RB3LYP) =  -292.445163835     A.U. after   12 cycles
 SCF Done:  E(RB3LYP) =  -292.449642360     A.U. after   11 cycles
 SCF Done:  E(RB3LYP) =  -292.449921501     A.U. after   10 cycles
 SCF Done:  E(RB3LYP) =  -292.449953565     A.U. after    9 cycles
 SCF Done:  E(RB3LYP) =  -292.449955693     A.U. after    7 cycles
 SCF Done:  E(RB3LYP) =  -292.449955699     A.U. after    6 cycles
 SCF Done:  E(RB3LYP) =  -292.449955756     A.U. after    6 cycles
 Optimization completed.
    -- Stationary point found.
 Normal termination of Gaussian 09 at Fri Sep 10 18:52:47 2021.

 ----------------------------------------------------------------------
 #P Geom=AllCheck Guess=TCheck SCRF=Check GenChk RB3LYP/6-31G(d,p) Freq
 ----------------------------------------------------------------------

 Structure from the checkpoint file:  "/public/home/users/caep010/.cache/gau_scr/Gau-87858.chk"
 --------
 Frag_290
 --------
 Charge =  0 Multiplicity = 1

                         Standard orientation:
 ---------------------------------------------------------------------
 Center     Atomic      Atomic             Coordinates (Angstroms)
 Number     Number       Type             X           Y           Z
 ---------------------------------------------------------------------
      1          6           0       -1.639905    1.233855   -0.019790
      2          6           0       -0.852152   -0.010872   -0.466854
      3          6           0       -1.608035   -1.273491   -0.021786
      4          6           0        0.639482    0.006180    0.010893
      5          6           0        1.347960   -1.302875   -0.379193
      6          6           0        1.401250    1.179508   -0.646959
      7          7           0        0.662609    0.087993    1.487376
      8          1           0       -2.646312    1.216865   -0.450628
      9          1           0       -1.757990    1.254303    1.069505
     10          1           0       -1.170197    2.171337   -0.331616
     11          1           0       -0.817171   -0.002510   -1.566236
     12          1           0       -1.215175   -2.180131   -0.490012
     13          1           0       -2.666596   -1.200126   -0.293398
     14          1           0       -1.538378   -1.392510    1.063488
     15          1           0        2.418366   -1.239658   -0.149320
     16          1           0        0.938806   -2.153430    0.169621
     17          1           0        1.252700   -1.499034   -1.452135
     18          1           0        0.989791    2.149759   -0.352414
     19          1           0        1.370176    1.122434   -1.741546
     20          1           0        2.454071    1.163551   -0.342929
     21          1           0        0.400227    1.025842    1.783830
     22          1           0        1.617820   -0.046476    1.814293
 ---------------------------------------------------------------------

 SCF Done:  E(RB3LYP) =  -292.449955756     A.U. after    1 cycles

 The electronic state is 1-A.
 Alpha  occ. eigenvalues --  -14.30477 -10.21446 -10.18048 -10.16931 -10.16802
 Alpha  occ. eigenvalues --  -10.16785 -10.15859  -0.88414  -0.77957  -0.73243
 Alpha  occ. eigenvalues --   -0.68843  -0.66246  -0.60155  -0.52951  -0.48396
 Alpha  occ. eigenvalues --   -0.45102  -0.44054  -0.42591  -0.40741  -0.39116
 Alpha  occ. eigenvalues --   -0.38191  -0.37082  -0.36238  -0.35618  -0.34815
 Alpha  occ. eigenvalues --   -0.31931  -0.30931  -0.30296  -0.22973
 Alpha virt. eigenvalues --    0.06877   0.11961   0.12105   0.12856   0.13892
 Alpha virt. eigenvalues --    0.14816   0.16272   0.17007   0.17654   0.18430
 Alpha virt. eigenvalues --    0.19580   0.20491   0.20679   0.21168   0.23198

 Mulliken charges:
               1
     1  C   -0.331653
     2  C   -0.019469
     3  C   -0.316376
     4  C    0.147201
     5  C   -0.310148
     6  C   -0.307643
     7  N   -0.589272
     8  H    0.100461
     9  H    0.106816
    10  H    0.094943
    11  H    0.075004
    12  H    0.094294
    13  H    0.087463
    14  H    0.125501
    15  H    0.086830
    16  H    0.118102
    17  H    0.099462
    18  H    0.093154
    19  H    0.096714
    20  H    0.088490
    21  H    0.231222
    22  H    0.228904
 Sum of Mulliken charges =   0.00000

 Dipole moment (field-independent basis, Debye):
    X=              0.8372    Y=              0.8401    Z=             -0.3095  Tot=              1.2257
 Quadrupole moment (field-independent basis, Debye-Ang):
   XX=            -45.8050   YY=            -47.1093   ZZ=            -47.6370
   XY=             -0.1846   XZ=              1.7757   YZ=              2.1156

  Exact polarizability:  77.490  -0.788  71.660   0.598   0.735  67.018
 Approx polarizability: 100.214  -1.707  96.117   1.542   1.174  99.418

                      1                      2                      3
                      A                      A                      A
 Frequencies --     77.3232               210.1042               226.6576
 Red. masses --      2.4417                 1.0233                 1.3241
 Frc consts  --      0.0086                 0.0266                 0.0401
 IR Inten    --      0.3066                 3.2291                 2.8333

                      4                      5                      6
                      A                      A                      A
 Frequencies --    239.3689               251.6326               290.1550
 Red. masses --      1.0986                 1.3560                 1.3822
 Frc consts  --      0.0371                 0.0506                 0.0686
 IR Inten    --     10.1455                 0.4088                25.4724

                      7                      8                      9
                      A                      A                      A
 Frequencies --    296.8516               301.0844               361.5813
 Red. masses --      1.6982                 1.3734                 2.4939
 Frc consts  --      0.0882                 0.0734                 0.1921
 IR Inten    --      0.1843                12.0728                 1.8204

                     10                     11                     12
                      A                      A                      A
 Frequencies --    377.5506               389.4090               445.4671
 Red. masses --      2.2069                 2.0452                 2.1046
 Frc consts  --      0.1853                 0.1827                 0.2461
 IR Inten    --      0.6162                 0.7103                 1.3624

                     13                     14                     15
                      A                      A                      A
 Frequencies --    478.1479               554.7761               699.5290
 Red. masses --      2.7126                 2.4255                 2.7869
 Frc consts  --      0.3654                 0.4398                 0.8035
 IR Inten    --      3.4762                 3.1396                 0.4754

                     16                     17                     18
                      A                      A                      A
 Frequencies --    837.0102               889.5923               927.3520
 Red. masses --      2.4365                 1.6195                 1.3561
 Frc consts  --      1.0057                 0.7551                 0.6871
 IR Inten    --     33.3701                77.2520                 5.1893

                     19                     20                     21
                      A                      A                      A
 Frequencies --    931.8259               940.1811               962.4824
 Red. masses --      1.3814                 1.6101                 1.7594
 Frc consts  --      0.7067                 0.8386                 0.9603
 IR Inten    --      4.7645                 9.7394                 1.1704

                     22                     23                     24
                      A                      A                      A
 Frequencies --    972.0572              1019.7915              1051.5472
 Red. masses --      1.4754                 1.3056                 1.4076
 Frc consts  --      0.8214                 0.8000                 0.9171
 IR Inten    --      0.2108                 3.9390                 8.5910

                     25                     26                     27
                      A                      A                      A
 Frequencies --   1104.6504              1144.9199              1191.4689
 Red. masses --      1.7550                 1.6657                 1.9593
 Frc consts  --      1.2618                 1.2864                 1.6388
 IR Inten    --     11.6444                 0.9027                14.2983

                     28                     29                     30
                      A                      A                      A
 Frequencies --   1214.1007              1268.6152              1325.5049
 Red. masses --      2.2426                 2.8026                 1.6080
 Frc consts  --      1.9476                 2.6575                 1.6646
 IR Inten    --     17.1625                 8.4674                 8.0964

                     31                     32                     33
                      A                      A                      A
 Frequencies --   1356.1249              1374.0227              1408.5279
 Red. masses --      1.3652                 1.6024                 1.3362
 Frc consts  --      1.4793                 1.7824                 1.5619
 IR Inten    --      0.9946                 0.6252                 0.1670

                     34                     35                     36
                      A                      A                      A
 Frequencies --   1412.2164              1425.4465              1432.3368
 Red. masses --      1.2402                 1.2445                 1.2204
 Frc consts  --      1.4572                 1.4899                 1.4751
 IR Inten    --     10.7444                13.6407                 0.4912

                     37                     38                     39
                      A                      A                      A
 Frequencies --   1495.3553              1496.5283              1509.8630
 Red. masses --      1.0455                 1.0518                 1.0467
 Frc consts  --      1.3775                 1.3879                 1.4059
 IR Inten    --      0.5481                 0.4481                 0.6113

                     40                     41                     42
                      A                      A                      A
 Frequencies --   1512.0355              1515.6844              1521.6963
 Red. masses --      1.0503                 1.0551                 1.0494
 Frc consts  --      1.4147                 1.4281                 1.4316
 IR Inten    --      0.4340                 4.6635                 8.3636

                     43                     44                     45
                      A                      A                      A
 Frequencies --   1529.6158              1537.8980              1667.9411
 Red. masses --      1.0538                 1.0548                 1.0927
 Frc consts  --      1.4527                 1.4699                 1.7911
 IR Inten    --      6.9173                 0.4839                31.6526

                     46                     47                     48
                      A                      A                      A
 Frequencies --   3011.8505              3031.4027              3041.1821
 Red. masses --      1.0829                 1.0365                 1.0388
 Frc consts  --      5.7878                 5.6119                 5.6607
 IR Inten    --     21.3437                19.0854                45.4004

                     49                     50                     51
                      A                      A                      A
 Frequencies --   3042.3694              3049.2412              3097.1022
 Red. masses --      1.0369                 1.0372                 1.1016
 Frc consts  --      5.6549                 5.6821                 6.2257
 IR Inten    --     20.5195                14.9772                 5.9820

                     52                     53                     54
                      A                      A                      A
 Frequencies --   3104.9595              3107.3752              3107.6937
 Red. masses --      1.1005                 1.1016                 1.1013
 Frc consts  --      6.2508                 6.2673                 6.2666
 IR Inten    --     18.7812                46.3276                46.4810

                     55                     56                     57
                      A                      A                      A
 Frequencies --   3112.8951              3121.8405              3131.7935
 Red. masses --      1.1007                 1.1002                 1.1025
 Frc consts  --      6.2841                 6.3177                 6.3714
 IR Inten    --     52.0349                32.4389                32.1794

                     58                     59                     60
                      A                      A                      A
 Frequencies --   3143.8816              3478.7391              3560.4347
 Red. masses --      1.1002                 1.0495                 1.0918
 Frc consts  --      6.4072                 7.4830                 8.1549
 IR Inten    --     19.1717                 2.4388                 0.9053

 - Thermochemistry -
 -------------------
 Temperature   298.150 Kelvin.  Pressure   1.00000 Atm.
 Atom     1 has atomic number  6 and mass  12.00000

 Molecular mass:   101.12045 amu.
 Principal axes and moments of inertia in atomic units:
                           1         2         3
     Eigenvalues --   591.03545 819.74912 998.48409
           X            0.99994   0.00001  -0.01065
           Y            0.00012   0.99992   0.01273
           Z            0.01065  -0.01273   0.99986
 This molecule is an asymmetric top.
 Rotational symmetry number  1.
 Warning -- assumption of classical behavior for rotation
           may cause significant error
 Rotational temperatures (Kelvin)      0.14655     0.10566     0.08675
 Rotational constants (GHZ):           3.05352     2.20158     1.80748
 Zero-point vibrational energy     540226.3 (Joules/Mol)
                                  129.11719 (Kcal/Mol)
 Warning -- explicit consideration of  14 degrees of freedom as
           vibrations may cause significant error
 Vibrational temperatures:    111.25   302.29   326.11   344.40   362.04
          (Kelvin)            417.47   427.10   433.19   520.23   543.21
                              560.27   640.93   687.95   798.20  1006.47
                             1204.27  1279.92  1334.25  1340.69  1352.71
                             1384.80  1398.57  1467.25  1512.94  1589.34
                             1647.28  1714.26  1746.82  1825.25  1907.10
                             1951.16  1976.91  2026.56  2031.86  2050.90
                             2060.81  2151.48  2153.17  2172.35  2175.48
                             2180.73  2189.38  2200.77  2212.69  2399.79
                             4333.38  4361.51  4375.58  4377.29  4387.17
                             4456.03  4467.34  4470.81  4471.27  4478.76
                             4491.63  4505.95  4523.34  5005.12  5122.67

 Zero-point correction=                           0.205761 (Hartree/Particle)
 Thermal correction to Energy=                    0.215108
 Thermal correction to Enthalpy=                  0.216053
 Thermal correction to Gibbs Free Energy=         0.173183
 Sum of electronic and zero-point Energies=           -292.244194
 Sum of electronic and thermal Energies=              -292.234847
 Sum of electronic and thermal Enthalpies=            -292.233903
 Sum of electronic and thermal Free Energies=         -292.276773

                     E (Thermal)             CV                S
                      KCal/Mol        Cal/Mol-Kelvin    Cal/Mol-Kelvin
 Total                  134.983             35.784             90.227
 Electronic               0.000              0.000              0.000
 Translational            0.889              2.981             39.751
 Rotational               0.889              2.981             27.672
 Vibrational            133.205             29.822             22.804
 Vibration     1          0.599              1.964              3.958
 Vibration     2          0.642              1.825              2.043
 Vibration     3          0.650              1.800              1.905
 Vibration     4          0.657              1.780              1.808
 Vibration     5          0.664              1.760              1.719
 Vibration     6          0.686              1.692              1.473
 Vibration     7          0.691              1.680              1.435
 Vibration     8          0.693              1.672              1.411
 Vibration     9          0.736              1.551              1.115
 Vibration    10          0.748              1.518              1.049
 Vibration    11          0.757              1.493              1.002
 Vibration    12          0.805              1.371              0.810
 Vibration    13          0.835              1.299              0.715
 Vibration    14          0.910              1.129              0.534

 Optimization completed.
    -- Stationary point found.
 Normal termination of Gaussian 09 at Fri Sep 10 18:53:10 2021.
