 Gaussian 09, Revision E.01,
 Gaussian 09:  ES64L-G09RevE.01 30-Nov-2015

 -------------------------
 #P OPT Freq B3LYP/6-31G**
 -------------------------

 --------
 Frag_134
 --------
 Symbolic Z-matrix:
 Charge =  0 Multiplicity = 1

 SCF Done:  E(RB3LYP) =  -226.199243387     A.U. after   14 cycles
 SCF Done:  E(RB3LYP) =  -226.205515396     A.U. after   13 cycles
 SCF Done:  E(RB3LYP) =  -226.206968100     A.U. after   12 cycles
 SCF Done:  E(RB3LYP) =  -226.207021921     A.U. after    9 cycles
 SCF Done:  E(RB3LYP) =  -226.207026820     A.U. after    9 cycles
 Optimization completed.
    -- Stationary point found.
 Normal termination of Gaussian 09 at Sat Aug 21 01:34:17 2021.

 ----------------------------------------------------------------------
 #P Geom=AllCheck Guess=TCheck SCRF=Check GenChk RB3LYP/6-31G(d,p) Freq
 ----------------------------------------------------------------------

 Structure from the checkpoint file:  "/public/home/users/caep010/.cache/gau_scr/Gau-106753.chk"
 --------
 Frag_134
 --------
 Charge =  0 Multiplicity = 1

                         Standard orientation:
 ---------------------------------------------------------------------
 Center     Atomic      Atomic             Coordinates (Angstroms)
 Number     Number       Type             X           Y           Z
 ---------------------------------------------------------------------
      1          6           0        0.669959    0.996294    0.000001
      2          6           0        1.107681   -0.347901   -0.000002
      3          7           0        0.088706   -1.206975    0.000003
      4          7           0       -1.004498   -0.414687   -0.000001
      5          6           0       -0.708345    0.911236   -0.000000
      6          1           0        1.268705    1.894327   -0.000002
      7          1           0        2.121353   -0.725361   -0.000003
      8          1           0       -1.916444   -0.843278   -0.000009
      9          1           0       -1.478836    1.668170    0.000004
 ---------------------------------------------------------------------

 SCF Done:  E(RB3LYP) =  -226.207026820     A.U. after    1 cycles

 The electronic state is 1-A.
 Alpha  occ. eigenvalues --  -14.40679 -14.34356 -10.22212 -10.19883 -10.17884
 Alpha  occ. eigenvalues --   -1.03855  -0.81205  -0.77318  -0.60755  -0.58952
 Alpha  occ. eigenvalues --   -0.54074  -0.44015  -0.43106  -0.42458  -0.39446
 Alpha  occ. eigenvalues --   -0.28480  -0.25432  -0.24376
 Alpha virt. eigenvalues --    0.02314   0.07604   0.07971   0.13410   0.15754
 Alpha virt. eigenvalues --    0.16918   0.22119   0.23444   0.29026   0.39769
 Alpha virt. eigenvalues --    0.43179   0.53287   0.54816   0.55780   0.59478

 Mulliken charges:
               1
     1  C   -0.182060
     2  C    0.096723
     3  N   -0.296902
     4  N   -0.320568
     5  C    0.122792
     6  H    0.089336
     7  H    0.097654
     8  H    0.279318
     9  H    0.113707
 Sum of Mulliken charges =   0.00000

 Dipole moment (field-independent basis, Debye):
    X=             -1.6301    Y=              1.5929    Z=             -0.0000  Tot=              2.2791
 Quadrupole moment (field-independent basis, Debye-Ang):
   XX=            -21.2381   YY=            -29.9339   ZZ=            -31.1532
   XY=              0.9226   XZ=              0.0000   YZ=              0.0000

  Exact polarizability:  49.341  -0.762  45.354   0.000   0.000  17.326
 Approx polarizability:  80.695   0.072  77.462   0.000  -0.000  25.803

                      1                      2                      3
                      A                      A                      A
 Frequencies --    512.8791               637.6328               692.3781
 Red. masses --      1.6999                 2.6172                 2.9160
 Frc consts  --      0.2635                 0.6269                 0.8236
 IR Inten    --     58.2915                 0.0000                23.7158

                      4                      5                      6
                      A                      A                      A
 Frequencies --    756.7291               840.2521               894.1210
 Red. masses --      1.2082                 1.2112                 1.3099
 Frc consts  --      0.4076                 0.5038                 0.6170
 IR Inten    --     68.8856                 8.6904                 4.0215

                      7                      8                      9
                      A                      A                      A
 Frequencies --    920.9595               940.0375              1054.2127
 Red. masses --      5.6334                 4.0549                 1.7083
 Frc consts  --      2.8151                 2.1111                 1.1186
 IR Inten    --      9.2047                 6.1305                34.5566

                     10                     11                     12
                      A                      A                      A
 Frequencies --   1063.9643              1152.9286              1185.3486
 Red. masses --      1.4301                 1.8222                 2.8419
 Frc consts  --      0.9538                 1.4271                 2.3526
 IR Inten    --      8.3363                17.7758                 0.7326

                     13                     14                     15
                      A                      A                      A
 Frequencies --   1288.3991              1395.7246              1440.3695
 Red. masses --      1.7700                 2.4862                 3.7566
 Frc consts  --      1.7311                 2.8536                 4.5919
 IR Inten    --      2.4537                 4.4401                13.3009

                     16                     17                     18
                      A                      A                      A
 Frequencies --   1496.3586              1582.0268              3253.8518
 Red. masses --      2.6466                 3.0200                 1.0930
 Frc consts  --      3.4915                 4.4533                 6.8180
 IR Inten    --      6.6779                 6.3803                 5.3396

                     19                     20                     21
                      A                      A                      A
 Frequencies --   3269.1082              3287.7866              3680.8916
 Red. masses --      1.0931                 1.1066                 1.0817
 Frc consts  --      6.8829                 7.0477                 8.6351
 IR Inten    --      2.4377                 1.0927                69.9069

 - Thermochemistry -
 -------------------
 Temperature   298.150 Kelvin.  Pressure   1.00000 Atm.
 Atom     1 has atomic number  6 and mass  12.00000

 Molecular mass:    68.03745 amu.
 Principal axes and moments of inertia in atomic units:
                           1         2         3
     Eigenvalues --   187.24225 191.92969 379.17194
           X           -0.00961   0.99995   0.00000
           Y            0.99995   0.00961   0.00000
           Z           -0.00000  -0.00000   1.00000
 This molecule is an asymmetric top.
 Rotational symmetry number  1.
 Rotational temperatures (Kelvin)      0.46258     0.45128     0.22843
 Rotational constants (GHZ):           9.63854     9.40314     4.75969
 Zero-point vibrational energy     187490.5 (Joules/Mol)
                                   44.81130 (Kcal/Mol)
 Warning -- explicit consideration of   1 degrees of freedom as
           vibrations may cause significant error
 Vibrational temperatures:    737.92   917.41   996.18  1088.76  1208.93
          (Kelvin)           1286.44  1325.05  1352.50  1516.78  1530.81
                             1658.81  1705.45  1853.72  2008.13  2072.37
                             2152.92  2276.18  4681.56  4703.51  4730.39
                             5295.98

 Zero-point correction=                           0.071411 (Hartree/Particle)
 Thermal correction to Energy=                    0.075156
 Thermal correction to Enthalpy=                  0.076100
 Thermal correction to Gibbs Free Energy=         0.045139
 Sum of electronic and zero-point Energies=           -226.135615
 Sum of electronic and thermal Energies=              -226.131871
 Sum of electronic and thermal Enthalpies=            -226.130926
 Sum of electronic and thermal Free Energies=         -226.161888

                     E (Thermal)             CV                S
                      KCal/Mol        Cal/Mol-Kelvin    Cal/Mol-Kelvin
 Total                   47.161             13.291             65.163
 Electronic               0.000              0.000              0.000
 Translational            0.889              2.981             38.570
 Rotational               0.889              2.981             24.125
 Vibrational             45.384              7.329              2.468
 Vibration     1          0.868              1.221              0.627

 Optimization completed.
    -- Stationary point found.
 Normal termination of Gaussian 09 at Sat Aug 21 01:34:25 2021.
