 Gaussian 09, Revision E.01,
 Gaussian 09:  ES64L-G09RevE.01 30-Nov-2015

 ----------------------------
 #P OPT Freq B3LYP/6-31G(d,p)
 ----------------------------

 ---------
 Frag_1038
 ---------
 Symbolic Z-matrix:
 Charge =  0 Multiplicity = 1

 SCF Done:  E(RB3LYP) =  -323.712853197     A.U. after   14 cycles
 SCF Done:  E(RB3LYP) =  -323.712949994     A.U. after   10 cycles
 SCF Done:  E(RB3LYP) =  -323.712956415     A.U. after    8 cycles
 SCF Done:  E(RB3LYP) =  -323.712957603     A.U. after    8 cycles
 SCF Done:  E(RB3LYP) =  -323.712957785     A.U. after    7 cycles
 SCF Done:  E(RB3LYP) =  -323.712957819     A.U. after    7 cycles
 Optimization completed.
    -- Stationary point found.
 Normal termination of Gaussian 09 at Thu Sep  8 14:54:41 2022.

 ----------------------------------------------------------------------
 #P Geom=AllCheck Guess=TCheck SCRF=Check GenChk RB3LYP/6-31G(d,p) Freq
 ----------------------------------------------------------------------

 Structure from the checkpoint file:  "B3LYP6-31Gdp.Frag_1038.chk"
 ---------
 Frag_1038
 ---------
 Charge =  0 Multiplicity = 1

                         Standard orientation:
 ---------------------------------------------------------------------
 Center     Atomic      Atomic             Coordinates (Angstroms)
 Number     Number       Type             X           Y           Z
 ---------------------------------------------------------------------
      1          6           0        1.576448   -1.131477    0.017790
      2          6           0        0.664610    0.059591   -0.002141
      3          7           0        1.297900    1.320423    0.087727
      4          6           0       -0.672094   -0.047813   -0.015594
      5          8           0       -1.347632   -1.244010   -0.104585
      6          8           0       -1.479099    1.071530    0.087490
      7          1           0        2.220357   -1.106904    0.905032
      8          1           0        2.238315   -1.134916   -0.859450
      9          1           0        1.006183   -2.060463    0.013093
     10          1           0        0.637294    2.077682   -0.050434
     11          1           0        2.068696    1.409916   -0.568214
     12          1           0       -1.901368   -1.335083    0.687223
     13          1           0       -2.154716    1.004853   -0.604900
 ---------------------------------------------------------------------

 SCF Done:  E(RB3LYP) =  -323.712957819     A.U. after    1 cycles

 The electronic state is 1-A.
 Alpha  occ. eigenvalues --  -19.16704 -19.16658 -14.31765 -10.25889 -10.20140
 Alpha  occ. eigenvalues --  -10.17333  -1.07360  -1.00742  -0.88902  -0.74032
 Alpha  occ. eigenvalues --   -0.67390  -0.56295  -0.55018  -0.50019  -0.45910
 Alpha  occ. eigenvalues --   -0.43276  -0.42035  -0.39662  -0.38071  -0.37076
 Alpha  occ. eigenvalues --   -0.32161  -0.31373  -0.28521  -0.17676
 Alpha virt. eigenvalues --    0.06169   0.06800   0.09309   0.11079   0.14815
 Alpha virt. eigenvalues --    0.16589   0.18744   0.19413   0.23676   0.25405
 Alpha virt. eigenvalues --    0.26711   0.40299   0.44982   0.53926   0.56398

 Mulliken charges:
               1
     1  C   -0.363152
     2  C    0.245726
     3  N   -0.638764
     4  C    0.377149
     5  O   -0.545499
     6  O   -0.548752
     7  H    0.121053
     8  H    0.101339
     9  H    0.128508
    10  H    0.257015
    11  H    0.240661
    12  H    0.312613
    13  H    0.312104
 Sum of Mulliken charges =  -0.00000

 Dipole moment (field-independent basis, Debye):
    X=             -0.9005    Y=              0.1151    Z=             -0.9736  Tot=              1.3312
 Quadrupole moment (field-independent basis, Debye-Ang):
   XX=            -29.5351   YY=            -35.5083   ZZ=            -35.6798
   XY=              0.2594   XZ=             -2.4437   YZ=             -5.3980

  Exact polarizability:  66.362   1.923  47.239  -1.162  -1.551  30.395
 Approx polarizability:  98.079   6.072  63.145  -0.812   0.016  43.858

                      1                      2                      3
                      A                      A                      A
 Frequencies --    169.1168               187.6816               253.0990
 Red. masses --      1.0394                 3.8985                 3.0493
 Frc consts  --      0.0175                 0.0809                 0.1151
 IR Inten    --      4.4428                 2.4096                 4.1249

                      4                      5                      6
                      A                      A                      A
 Frequencies --    284.8828               330.0160               364.8589
 Red. masses --      1.2246                 1.4236                 1.7932
 Frc consts  --      0.0586                 0.0913                 0.1406
 IR Inten    --    109.5675                52.4661                93.3882

                      7                      8                      9
                      A                      A                      A
 Frequencies --    367.6483               425.1308               532.7738
 Red. masses --      2.6629                 1.3199                 4.1057
 Frc consts  --      0.2121                 0.1406                 0.6866
 IR Inten    --      9.2871                60.0858                25.1258

                     10                     11                     12
                      A                      A                      A
 Frequencies --    540.1034               570.8494               754.3865
 Red. masses --      3.0443                 4.5629                 5.1861
 Frc consts  --      0.5232                 0.8761                 1.7389
 IR Inten    --     83.4361                12.4501                 4.1964

                     13                     14                     15
                      A                      A                      A
 Frequencies --    796.2605               988.8892              1049.0564
 Red. masses --      1.3587                 2.0484                 1.6142
 Frc consts  --      0.5076                 1.1802                 1.0466
 IR Inten    --    238.1165                23.4348                44.4888

                     16                     17                     18
                      A                      A                      A
 Frequencies --   1070.1891              1178.6034              1247.3581
 Red. masses --      1.4723                 1.3734                 5.1340
 Frc consts  --      0.9935                 1.1240                 4.7064
 IR Inten    --     25.4794                98.4236                90.5773

                     19                     20                     21
                      A                      A                      A
 Frequencies --   1266.9538              1318.0709              1350.3301
 Red. masses --      1.3372                 2.0317                 2.0726
 Frc consts  --      1.2647                 2.0796                 2.2266
 IR Inten    --    181.2995                24.7018                 8.5468

                     22                     23                     24
                      A                      A                      A
 Frequencies --   1430.2503              1499.8536              1505.6975
 Red. masses --      1.4777                 1.0447                 1.0547
 Frc consts  --      1.7810                 1.3847                 1.4088
 IR Inten    --      0.8081                 5.7020                 4.2821

                     25                     26                     27
                      A                      A                      A
 Frequencies --   1649.6354              1826.4862              3022.7438
 Red. masses --      1.1217                 7.2069                 1.0454
 Frc consts  --      1.7985                14.1655                 5.6277
 IR Inten    --     43.8819                18.7093                49.0225

                     28                     29                     30
                      A                      A                      A
 Frequencies --   3074.0210              3163.3906              3502.7538
 Red. masses --      1.0954                 1.0966                 1.0493
 Frc consts  --      6.0987                 6.4657                 7.5850
 IR Inten    --     28.8587                 8.6181                 2.8585

                     31                     32                     33
                      A                      A                      A
 Frequencies --   3615.5509              3725.2995              3751.0772
 Red. masses --      1.0939                 1.0658                 1.0654
 Frc consts  --      8.4254                 8.7149                 8.8324
 IR Inten    --      4.3697                15.0138                16.9149

 - Thermochemistry -
 -------------------
 Temperature   298.150 Kelvin.  Pressure   1.00000 Atm.
 Atom     1 has atomic number  6 and mass  12.00000

 Molecular mass:    89.04768 amu.
 Principal axes and moments of inertia in atomic units:
                           1         2         3
     Eigenvalues --   364.09041 554.51325 896.59462
           X            0.99885  -0.04736  -0.00712
           Y            0.04717   0.99856  -0.02545
           Z            0.00832   0.02509   0.99965
 This molecule is an asymmetric top.
 Rotational symmetry number  1.
 Rotational temperatures (Kelvin)      0.23789     0.15620     0.09660
 Rotational constants (GHZ):           4.95685     3.25464     2.01288
 Zero-point vibrational energy     280004.0 (Joules/Mol)
                                   66.92257 (Kcal/Mol)
 Warning -- explicit consideration of  11 degrees of freedom as
           vibrations may cause significant error
 Vibrational temperatures:    243.32   270.03   364.15   409.88   474.82
          (Kelvin)            524.95   528.96   611.67   766.54   777.09
                              821.32  1085.39  1145.64  1422.79  1509.36
                             1539.76  1695.75  1794.67  1822.86  1896.41
                             1942.82  2057.81  2157.95  2166.36  2373.45
                             2627.90  4349.05  4422.83  4551.41  5039.68
                             5201.96  5359.87  5396.96

 Zero-point correction=                           0.106648 (Hartree/Particle)
 Thermal correction to Energy=                    0.113877
 Thermal correction to Enthalpy=                  0.114822
 Thermal correction to Gibbs Free Energy=         0.076402
 Sum of electronic and zero-point Energies=           -323.606310
 Sum of electronic and thermal Energies=              -323.599080
 Sum of electronic and thermal Enthalpies=            -323.598136
 Sum of electronic and thermal Free Energies=         -323.636555

                     E (Thermal)             CV                S
                      KCal/Mol        Cal/Mol-Kelvin    Cal/Mol-Kelvin
 Total                   71.459             26.250             80.860
 Electronic               0.000              0.000              0.000
 Translational            0.889              2.981             39.372
 Rotational               0.889              2.981             26.695
 Vibrational             69.682             20.289             14.793
 Vibration     1          0.625              1.880              2.445
 Vibration     2          0.632              1.857              2.251
 Vibration     3          0.664              1.758              1.709
 Vibration     4          0.683              1.702              1.504
 Vibration     5          0.713              1.616              1.260
 Vibration     6          0.738              1.545              1.101
 Vibration     7          0.740              1.539              1.090
 Vibration     8          0.787              1.416              0.875
 Vibration     9          0.888              1.178              0.581
 Vibration    10          0.895              1.161              0.565
 Vibration    11          0.927              1.094              0.503

 Optimization completed.
    -- Stationary point found.
 Normal termination of Gaussian 09 at Thu Sep  8 14:54:51 2022.
