 Gaussian 09, Revision E.01,
 Gaussian 09:  ES64L-G09RevE.01 30-Nov-2015

 --------------------------------
 #P OPT=calcfc Freq B3LYP/6-31G**
 --------------------------------

 --------
 Frag_349
 --------
 Symbolic Z-matrix:
 Charge =  0 Multiplicity = 1

 SCF Done:  E(RB3LYP) =  -189.303494118     A.U. after   13 cycles
 SCF Done:  E(RB3LYP) =  -189.316369384     A.U. after   14 cycles
 SCF Done:  E(RB3LYP) =  -189.316500486     A.U. after   13 cycles
 SCF Done:  E(RB3LYP) =  -189.317118748     A.U. after   13 cycles
 SCF Done:  E(RB3LYP) =  -189.317007323     A.U. after   12 cycles
 SCF Done:  E(RB3LYP) =  -189.317120449     A.U. after    8 cycles
 SCF Done:  E(RB3LYP) =  -189.317234891     A.U. after   11 cycles
 SCF Done:  E(RB3LYP) =  -189.317468637     A.U. after   11 cycles
 SCF Done:  E(RB3LYP) =  -189.317668455     A.U. after   11 cycles
 SCF Done:  E(RB3LYP) =  -189.317801430     A.U. after   11 cycles
 SCF Done:  E(RB3LYP) =  -189.317895294     A.U. after   10 cycles
 SCF Done:  E(RB3LYP) =  -189.312840163     A.U. after   14 cycles
 SCF Done:  E(RB3LYP) =  -189.317992203     A.U. after   11 cycles
 SCF Done:  E(RB3LYP) =  -189.317996164     A.U. after   11 cycles
 SCF Done:  E(RB3LYP) =  -189.317957923     A.U. after   10 cycles
 SCF Done:  E(RB3LYP) =  -189.318023310     A.U. after    7 cycles
 SCF Done:  E(RB3LYP) =  -189.318028267     A.U. after   11 cycles
 SCF Done:  E(RB3LYP) =  -189.318042909     A.U. after   10 cycles
 SCF Done:  E(RB3LYP) =  -189.318043973     A.U. after    8 cycles
 Optimization completed.
    -- Stationary point found.
 Normal termination of Gaussian 09 at Fri Sep 10 19:28:57 2021.

 ----------------------------------------------------------------------
 #P Geom=AllCheck Guess=TCheck SCRF=Check GenChk RB3LYP/6-31G(d,p) Freq
 ----------------------------------------------------------------------

 Structure from the checkpoint file:  "/public/home/users/caep010/.cache/gau_scr/Gau-217376.chk"
 --------
 Frag_349
 --------
 Charge =  0 Multiplicity = 1

                         Standard orientation:
 ---------------------------------------------------------------------
 Center     Atomic      Atomic             Coordinates (Angstroms)
 Number     Number       Type             X           Y           Z
 ---------------------------------------------------------------------
      1          6           0        1.764293   -0.109382    0.065227
      2          7           0        0.424241    0.415222   -0.130514
      3          6           0       -0.702662   -0.371506   -0.044176
      4          7           0       -1.929766   -0.028232    0.060616
      5          1           0        2.089205   -0.097217    1.115627
      6          1           0        1.796752   -1.144246   -0.285878
      7          1           0        2.485231    0.463520   -0.525695
      8          1           0        0.293506    1.401847    0.050852
      9          1           0       -0.472281   -1.439309   -0.115742
     10          1           0       -2.023527    0.991806    0.123815
 ---------------------------------------------------------------------

 SCF Done:  E(RB3LYP) =  -189.318043973     A.U. after    1 cycles

 The electronic state is 1-A.
 Alpha  occ. eigenvalues --  -14.35686 -14.28843 -10.24689 -10.22878  -0.94757
 Alpha  occ. eigenvalues --   -0.85319  -0.69885  -0.61837  -0.50878  -0.48505
 Alpha  occ. eigenvalues --   -0.44775  -0.40779  -0.39851  -0.34446  -0.25440
 Alpha  occ. eigenvalues --   -0.22471
 Alpha virt. eigenvalues --    0.04267   0.08005   0.09801   0.13953   0.15011
 Alpha virt. eigenvalues --    0.15584   0.17235   0.20904   0.32603   0.37636
 Alpha virt. eigenvalues --    0.51229   0.51865   0.54233   0.60457   0.61809

 Mulliken charges:
               1
     1  C   -0.174831
     2  N   -0.483970
     3  C    0.284121
     4  N   -0.537056
     5  H    0.115542
     6  H    0.129919
     7  H    0.120420
     8  H    0.249555
     9  H    0.097773
    10  H    0.198527
 Sum of Mulliken charges =   0.00000

 Dipole moment (field-independent basis, Debye):
    X=              3.4157    Y=              1.3561    Z=              0.3065  Tot=              3.6878
 Quadrupole moment (field-independent basis, Debye-Ang):
   XX=            -30.0352   YY=            -21.1792   ZZ=            -26.4720
   XY=             -2.7450   XZ=              0.1969   YZ=              0.6726

  Exact polarizability:  52.036  -1.763  34.644  -0.697   0.788  21.788
 Approx polarizability:  74.838  -1.769  48.126  -2.475   0.969  29.617

                      1                      2                      3
                      A                      A                      A
 Frequencies --    102.7773               168.1019               331.0714
 Red. masses --      1.8506                 1.4543                 2.6689
 Frc consts  --      0.0115                 0.0242                 0.1724
 IR Inten    --      2.7261                 7.4643                 8.8492

                      4                      5                      6
                      A                      A                      A
 Frequencies --    507.0007               593.5247               825.1888
 Red. masses --      1.2803                 2.5771                 1.9686
 Frc consts  --      0.1939                 0.5349                 0.7898
 IR Inten    --     73.2252                19.0845                55.3086

                      7                      8                      9
                      A                      A                      A
 Frequencies --    992.4546              1081.3470              1136.1202
 Red. masses --      1.9925                 1.1250                 1.3446
 Frc consts  --      1.1563                 0.7750                 1.0226
 IR Inten    --     19.9266                47.9430                88.6927

                     10                     11                     12
                      A                      A                      A
 Frequencies --   1152.7137              1190.9949              1327.7069
 Red. masses --      1.2908                 2.2739                 1.9856
 Frc consts  --      1.0105                 1.9004                 2.0623
 IR Inten    --      0.7164                 6.0520               181.8203

                     13                     14                     15
                      A                      A                      A
 Frequencies --   1418.7478              1473.4998              1479.8555
 Red. masses --      1.1741                 1.4801                 1.1975
 Frc consts  --      1.3924                 1.8933                 1.5451
 IR Inten    --      9.6807                 0.1260                 6.0178

                     16                     17                     18
                      A                      A                      A
 Frequencies --   1502.3371              1536.7190              1738.1112
 Red. masses --      1.0651                 1.0746                 5.6339
 Frc consts  --      1.4164                 1.4951                10.0280
 IR Inten    --     14.0073                 9.6447               320.7143

                     19                     20                     21
                      A                      A                      A
 Frequencies --   3009.6047              3088.0376              3107.9637
 Red. masses --      1.0489                 1.0883                 1.0880
 Frc consts  --      5.5975                 6.1145                 6.1922
 IR Inten    --     78.7759                32.1932                24.9860

                     22                     23                     24
                      A                      A                      A
 Frequencies --   3131.2591              3419.2883              3603.4721
 Red. masses --      1.1021                 1.0740                 1.0757
 Frc consts  --      6.3664                 7.3981                 8.2300
 IR Inten    --     23.2401                15.2479                 9.0513

 - Thermochemistry -
 -------------------
 Temperature   298.150 Kelvin.  Pressure   1.00000 Atm.
 Atom     1 has atomic number  6 and mass  12.00000

 Molecular mass:    58.05310 amu.
 Principal axes and moments of inertia in atomic units:
                           1         2         3
     Eigenvalues --    45.70981 421.38604 452.84239
           X            0.99981  -0.01908   0.00245
           Y            0.01898   0.99913   0.03726
           Z           -0.00315  -0.03721   0.99930
 This molecule is an asymmetric top.
 Rotational symmetry number  1.
 Rotational temperatures (Kelvin)      1.89486     0.20555     0.19127
 Rotational constants (GHZ):          39.48258     4.28287     3.98536
 Zero-point vibrational energy     226799.4 (Joules/Mol)
                                   54.20636 (Kcal/Mol)
 Warning -- explicit consideration of   5 degrees of freedom as
           vibrations may cause significant error
 Vibrational temperatures:    147.87   241.86   476.34   729.46   853.95
          (Kelvin)           1187.26  1427.92  1555.82  1634.62  1658.50
                             1713.57  1910.27  2041.26  2120.03  2129.18
                             2161.53  2210.99  2500.75  4330.14  4442.99
                             4471.66  4505.18  4919.59  5184.59

 Zero-point correction=                           0.086383 (Hartree/Particle)
 Thermal correction to Energy=                    0.091557
 Thermal correction to Enthalpy=                  0.092501
 Thermal correction to Gibbs Free Energy=         0.058964
 Sum of electronic and zero-point Energies=           -189.231661
 Sum of electronic and thermal Energies=              -189.226487
 Sum of electronic and thermal Enthalpies=            -189.225543
 Sum of electronic and thermal Free Energies=         -189.259080

                     E (Thermal)             CV                S
                      KCal/Mol        Cal/Mol-Kelvin    Cal/Mol-Kelvin
 Total                   57.453             16.244             70.585
 Electronic               0.000              0.000              0.000
 Translational            0.889              2.981             38.097
 Rotational               0.889              2.981             23.682
 Vibrational             55.675             10.283              8.806
 Vibration     1          0.605              1.947              3.401
 Vibration     2          0.625              1.882              2.457
 Vibration     3          0.713              1.613              1.255
 Vibration     4          0.862              1.234              0.641
 Vibration     5          0.951              1.046              0.461

 Optimization completed.
    -- Stationary point found.
 Normal termination of Gaussian 09 at Fri Sep 10 19:29:04 2021.
