 Gaussian 09, Revision E.01,
 Gaussian 09:  ES64L-G09RevE.01 30-Nov-2015

 ----------------------------
 #P OPT Freq B3LYP/6-31G(d,p)
 ----------------------------

 --------
 Frag_457
 --------
 Symbolic Z-matrix:
 Charge =  0 Multiplicity = 1

 SCF Done:  E(RB3LYP) =  -269.592354036     A.U. after   13 cycles
 SCF Done:  E(RB3LYP) =  -269.592395004     A.U. after    8 cycles
 SCF Done:  E(RB3LYP) =  -269.592397208     A.U. after    7 cycles
 SCF Done:  E(RB3LYP) =  -269.592397551     A.U. after    7 cycles
 SCF Done:  E(RB3LYP) =  -269.592397635     A.U. after    7 cycles
 Optimization completed.
    -- Stationary point found.
 Normal termination of Gaussian 09 at Thu Sep  8 15:24:36 2022.

 ----------------------------------------------------------------------
 #P Geom=AllCheck Guess=TCheck SCRF=Check GenChk RB3LYP/6-31G(d,p) Freq
 ----------------------------------------------------------------------

 Structure from the checkpoint file:  "B3LYP6-31Gdp.Frag_457.chk"
 --------
 Frag_457
 --------
 Charge =  0 Multiplicity = 1

                         Standard orientation:
 ---------------------------------------------------------------------
 Center     Atomic      Atomic             Coordinates (Angstroms)
 Number     Number       Type             X           Y           Z
 ---------------------------------------------------------------------
      1          6           0        2.032267    0.053051    0.099656
      2          6           0        0.728219   -0.665510   -0.254658
      3          6           0       -0.513747   -0.001220    0.330003
      4          8           0       -1.692767   -0.740743    0.087110
      5          8           0       -0.598110    1.296312   -0.224302
      6          1           0        2.893622   -0.459008   -0.339855
      7          1           0        2.183676    0.084269    1.184697
      8          1           0        2.018273    1.082230   -0.267037
      9          1           0        0.604075   -0.700737   -1.346023
     10          1           0        0.745738   -1.700813    0.102697
     11          1           0       -0.445774    0.043173    1.427095
     12          1           0       -1.773109   -0.827638   -0.874522
     13          1           0       -1.379917    1.716049    0.160480
 ---------------------------------------------------------------------

 SCF Done:  E(RB3LYP) =  -269.592397635     A.U. after    1 cycles

 The electronic state is 1-A.
 Alpha  occ. eigenvalues --  -19.14835 -19.14777 -10.27848 -10.18228 -10.17314
 Alpha  occ. eigenvalues --   -1.05677  -0.98834  -0.77267  -0.66608  -0.59714
 Alpha  occ. eigenvalues --   -0.54594  -0.47733  -0.43504  -0.42633  -0.40658
 Alpha  occ. eigenvalues --   -0.38679  -0.35434  -0.34158  -0.31596  -0.30172
 Alpha  occ. eigenvalues --   -0.27128
 Alpha virt. eigenvalues --    0.07960   0.09125   0.11695   0.14070   0.16168
 Alpha virt. eigenvalues --    0.17452   0.17955   0.19208   0.23282   0.24338
 Alpha virt. eigenvalues --    0.25593   0.28298   0.51623   0.53537   0.54752

 Mulliken charges:
               1
     1  C   -0.321287
     2  C   -0.192824
     3  C    0.354969
     4  O   -0.534978
     5  O   -0.528250
     6  H    0.101138
     7  H    0.101123
     8  H    0.128861
     9  H    0.093078
    10  H    0.107091
    11  H    0.085939
    12  H    0.298798
    13  H    0.306341
 Sum of Mulliken charges =  -0.00000

 Dipole moment (field-independent basis, Debye):
    X=             -0.0392    Y=              0.0914    Z=             -0.2494  Tot=              0.2685
 Quadrupole moment (field-independent basis, Debye-Ang):
   XX=            -31.2016   YY=            -31.5254   ZZ=            -29.7241
   XY=             -3.2457   XZ=              1.7646   YZ=              2.8119

  Exact polarizability:  44.129  -0.550  39.056   0.590   1.083  38.018
 Approx polarizability:  53.349   0.476  53.116   0.108   0.102  53.995

                      1                      2                      3
                      A                      A                      A
 Frequencies --    122.6993               223.0203               245.7779
 Red. masses --      2.2036                 1.1451                 2.6551
 Frc consts  --      0.0195                 0.0336                 0.0945
 IR Inten    --      0.0875                 0.0470                 3.7363

                      4                      5                      6
                      A                      A                      A
 Frequencies --    345.5850               377.6446               460.6893
 Red. masses --      1.1915                 1.3672                 2.8345
 Frc consts  --      0.0838                 0.1149                 0.3544
 IR Inten    --    103.6540                55.2078                 6.9865

                      7                      8                      9
                      A                      A                      A
 Frequencies --    486.2098               588.2130               792.9847
 Red. masses --      2.0807                 3.1288                 1.3787
 Frc consts  --      0.2898                 0.6378                 0.5108
 IR Inten    --     60.2218                52.6882                 0.9462

                     10                     11                     12
                      A                      A                      A
 Frequencies --    875.4606               989.4619              1049.6246
 Red. masses --      1.7270                 2.0012                 4.2881
 Frc consts  --      0.7798                 1.1544                 2.7834
 IR Inten    --     13.9389                62.5520                93.1661

                     13                     14                     15
                      A                      A                      A
 Frequencies --   1073.7692              1085.3655              1149.1708
 Red. masses --      2.4597                 1.3852                 2.3132
 Frc consts  --      1.6709                 0.9614                 1.7998
 IR Inten    --    100.2407                37.1265                51.9943

                     16                     17                     18
                      A                      A                      A
 Frequencies --   1264.3915              1278.7731              1330.1129
 Red. masses --      1.3016                 1.2957                 1.1964
 Frc consts  --      1.2260                 1.2484                 1.2471
 IR Inten    --     26.3964                 8.9295                23.5770

                     19                     20                     21
                      A                      A                      A
 Frequencies --   1373.8400              1424.6128              1431.9770
 Red. masses --      1.3999                 1.2877                 1.2105
 Frc consts  --      1.5568                 1.5397                 1.4624
 IR Inten    --      7.4925                 3.1398                29.9537

                     22                     23                     24
                      A                      A                      A
 Frequencies --   1466.8945              1492.9622              1511.7940
 Red. masses --      1.5295                 1.0810                 1.0409
 Frc consts  --      1.9391                 1.4196                 1.4017
 IR Inten    --     62.2151                 1.5044                 4.0596

                     25                     26                     27
                      A                      A                      A
 Frequencies --   1524.4164              3017.9473              3033.6163
 Red. masses --      1.0692                 1.0829                 1.0674
 Frc consts  --      1.4640                 5.8111                 5.7873
 IR Inten    --      8.3061                29.0737                42.9920

                     28                     29                     30
                      A                      A                      A
 Frequencies --   3047.6196              3090.3964              3112.7101
 Red. masses --      1.0384                 1.0976                 1.1014
 Frc consts  --      5.6827                 6.1763                 6.2873
 IR Inten    --     34.9271                18.1337                42.0803

                     31                     32                     33
                      A                      A                      A
 Frequencies --   3140.8634              3779.4069              3806.3313
 Red. masses --      1.1017                 1.0652                 1.0658
 Frc consts  --      6.4035                 8.9649                 9.0978
 IR Inten    --     26.0427                11.9744                20.0536

 - Thermochemistry -
 -------------------
 Temperature   298.150 Kelvin.  Pressure   1.00000 Atm.
 Atom     1 has atomic number  6 and mass  12.00000

 Molecular mass:    76.05243 amu.
 Principal axes and moments of inertia in atomic units:
                           1         2         3
     Eigenvalues --   210.14168 511.66989 655.15558
           X            0.99978  -0.01951   0.00758
           Y            0.01916   0.99885   0.04400
           Z           -0.00843  -0.04385   0.99900
 This molecule is an asymmetric top.
 Rotational symmetry number  1.
 Rotational temperatures (Kelvin)      0.41217     0.16928     0.13220
 Rotational constants (GHZ):           8.58821     3.52716     2.75468
 Zero-point vibrational energy     299032.6 (Joules/Mol)
                                   71.47050 (Kcal/Mol)
 Warning -- explicit consideration of   8 degrees of freedom as
           vibrations may cause significant error
 Vibrational temperatures:    176.54   320.88   353.62   497.22   543.35
          (Kelvin)            662.83   699.55   846.31  1140.93  1259.59
                             1423.61  1510.17  1544.91  1561.60  1653.40
                             1819.18  1839.87  1913.73  1976.65  2049.70
                             2060.29  2110.53  2148.04  2175.13  2193.29
                             4342.15  4364.69  4384.84  4446.39  4478.49
                             4519.00  5437.72  5476.45

 Zero-point correction=                           0.113895 (Hartree/Particle)
 Thermal correction to Energy=                    0.120151
 Thermal correction to Enthalpy=                  0.121096
 Thermal correction to Gibbs Free Energy=         0.084754
 Sum of electronic and zero-point Energies=           -269.478502
 Sum of electronic and thermal Energies=              -269.472246
 Sum of electronic and thermal Enthalpies=            -269.471302
 Sum of electronic and thermal Free Energies=         -269.507644

                     E (Thermal)             CV                S
                      KCal/Mol        Cal/Mol-Kelvin    Cal/Mol-Kelvin
 Total                   75.396             22.062             76.488
 Electronic               0.000              0.000              0.000
 Translational            0.889              2.981             38.902
 Rotational               0.889              2.981             25.758
 Vibrational             73.619             16.100             11.828
 Vibration     1          0.610              1.930              3.057
 Vibration     2          0.649              1.806              1.934
 Vibration     3          0.660              1.770              1.761
 Vibration     4          0.724              1.584              1.186
 Vibration     5          0.748              1.518              1.049
 Vibration     6          0.819              1.337              0.764
 Vibration     7          0.842              1.281              0.694
 Vibration     8          0.945              1.057              0.470

 Optimization completed.
    -- Stationary point found.
 Normal termination of Gaussian 09 at Thu Sep  8 15:24:45 2022.
