 Gaussian 09, Revision E.01,
 Gaussian 09:  ES64L-G09RevE.01 30-Nov-2015

 ----------------------------
 #P OPT Freq B3LYP/6-31G(d,p)
 ----------------------------

 --------
 Frag_584
 --------
 Symbolic Z-matrix:
 Charge =  0 Multiplicity = 1

 SCF Done:  E(RB3LYP) =  -285.621686578     A.U. after   13 cycles
 SCF Done:  E(RB3LYP) =  -285.621735138     A.U. after    9 cycles
 SCF Done:  E(RB3LYP) =  -285.621738614     A.U. after    7 cycles
 SCF Done:  E(RB3LYP) =  -285.621739588     A.U. after    7 cycles
 SCF Done:  E(RB3LYP) =  -285.621740144     A.U. after    7 cycles
 SCF Done:  E(RB3LYP) =  -285.621740269     A.U. after    7 cycles
 SCF Done:  E(RB3LYP) =  -285.621740302     A.U. after    6 cycles
 SCF Done:  E(RB3LYP) =  -285.621740308     A.U. after    6 cycles
 Optimization completed.
    -- Stationary point found.
 Normal termination of Gaussian 09 at Thu Sep  8 15:16:00 2022.

 ----------------------------------------------------------------------
 #P Geom=AllCheck Guess=TCheck SCRF=Check GenChk RB3LYP/6-31G(d,p) Freq
 ----------------------------------------------------------------------

 Structure from the checkpoint file:  "B3LYP6-31Gdp.Frag_584.chk"
 --------
 Frag_584
 --------
 Charge =  0 Multiplicity = 1

                         Standard orientation:
 ---------------------------------------------------------------------
 Center     Atomic      Atomic             Coordinates (Angstroms)
 Number     Number       Type             X           Y           Z
 ---------------------------------------------------------------------
      1          6           0        1.967523    0.017138    0.083210
      2          7           0        0.695369   -0.621678   -0.259303
      3          6           0       -0.462308    0.009856    0.333884
      4          8           0       -1.601114   -0.748964    0.003438
      5          8           0       -0.719517    1.330670   -0.070501
      6          1           0        2.782690   -0.515595   -0.413479
      7          1           0        2.130864   -0.060523    1.163289
      8          1           0        2.016640    1.080333   -0.191971
      9          1           0        0.568478   -0.625803   -1.270895
     10          1           0       -0.290863    0.066811    1.418920
     11          1           0       -1.324380   -1.675497    0.042858
     12          1           0       -1.217252    1.266410   -0.899654
 ---------------------------------------------------------------------

 SCF Done:  E(RB3LYP) =  -285.621740308     A.U. after    1 cycles

 The electronic state is 1-A.
 Alpha  occ. eigenvalues --  -19.15353 -19.14640 -14.32673 -10.30466 -10.20637
 Alpha  occ. eigenvalues --   -1.07022  -0.99275  -0.89422  -0.68725  -0.63750
 Alpha  occ. eigenvalues --   -0.54401  -0.51200  -0.47491  -0.44528  -0.41604
 Alpha  occ. eigenvalues --   -0.38602  -0.36445  -0.35370  -0.30894  -0.28288
 Alpha  occ. eigenvalues --   -0.23893
 Alpha virt. eigenvalues --    0.07884   0.10228   0.11352   0.12822   0.15523
 Alpha virt. eigenvalues --    0.16920   0.17932   0.21727   0.22946   0.27132
 Alpha virt. eigenvalues --    0.29752   0.52314   0.53071   0.54687   0.57592

 Mulliken charges:
               1
     1  C   -0.182178
     2  N   -0.507666
     3  C    0.491158
     4  O   -0.554131
     5  O   -0.521551
     6  H    0.109098
     7  H    0.116690
     8  H    0.111241
     9  H    0.229312
    10  H    0.092312
    11  H    0.312828
    12  H    0.302886
 Sum of Mulliken charges =  -0.00000

 Dipole moment (field-independent basis, Debye):
    X=              1.0940    Y=             -1.0548    Z=             -1.1765  Tot=              1.9219
 Quadrupole moment (field-independent basis, Debye-Ang):
   XX=            -31.7663   YY=            -31.5188   ZZ=            -27.2582
   XY=              1.1000   XZ=              1.1624   YZ=             -1.2860

  Exact polarizability:  40.830   0.612  35.302   1.564   0.088  34.209
 Approx polarizability:  49.823   0.526  49.056   2.798   0.853  47.616

                      1                      2                      3
                      A                      A                      A
 Frequencies --    121.7254               198.7630               263.1659
 Red. masses --      2.2738                 1.1920                 2.0911
 Frc consts  --      0.0199                 0.0277                 0.0853
 IR Inten    --      0.3924                 0.7981                36.8701

                      4                      5                      6
                      A                      A                      A
 Frequencies --    306.6670               389.5063               487.0328
 Red. masses --      1.3643                 1.2472                 2.7171
 Frc consts  --      0.0756                 0.1115                 0.3797
 IR Inten    --     57.6374                91.7084                39.5729

                      7                      8                      9
                      A                      A                      A
 Frequencies --    530.1240               602.7311               795.9763
 Red. masses --      3.4108                 3.1948                 1.6311
 Frc consts  --      0.5648                 0.6838                 0.6089
 IR Inten    --     27.7235                12.2192               119.4910

                     10                     11                     12
                      A                      A                      A
 Frequencies --    977.3679              1010.7672              1090.8591
 Red. masses --      1.7403                 2.9703                 3.2678
 Frc consts  --      0.9795                 1.7879                 2.2911
 IR Inten    --     40.3702               144.3263               107.5560

                     13                     14                     15
                      A                      A                      A
 Frequencies --   1134.0933              1159.6262              1169.6315
 Red. masses --      3.7791                 1.4853                 1.3824
 Frc consts  --      2.8638                 1.1768                 1.1143
 IR Inten    --    110.0746                40.7113                21.9636

                     16                     17                     18
                      A                      A                      A
 Frequencies --   1278.3914              1343.1409              1378.6693
 Red. masses --      1.5209                 1.4178                 1.2991
 Frc consts  --      1.4645                 1.5069                 1.4548
 IR Inten    --     92.9730                70.9757                29.4287

                     19                     20                     21
                      A                      A                      A
 Frequencies --   1442.7723              1471.7108              1498.6509
 Red. masses --      1.2137                 1.2052                 1.1507
 Frc consts  --      1.4886                 1.5380                 1.5227
 IR Inten    --     50.5813                19.4282                37.3951

                     22                     23                     24
                      A                      A                      A
 Frequencies --   1508.6942              1535.8847              3012.3579
 Red. masses --      1.1742                 1.0552                 1.0456
 Frc consts  --      1.5746                 1.4666                 5.5902
 IR Inten    --     27.4581                19.3697                48.0629

                     25                     26                     27
                      A                      A                      A
 Frequencies --   3029.2043              3087.8405              3125.2919
 Red. masses --      1.0846                 1.0917                 1.1025
 Frc consts  --      5.8640                 6.1330                 6.3449
 IR Inten    --     62.9955                34.0369                28.3375

                     28                     29                     30
                      A                      A                      A
 Frequencies --   3492.0994              3781.8519              3807.4204
 Red. masses --      1.0734                 1.0651                 1.0648
 Frc consts  --      7.7123                 8.9751                 9.0948
 IR Inten    --      0.3965                22.7860                28.0330

 - Thermochemistry -
 -------------------
 Temperature   298.150 Kelvin.  Pressure   1.00000 Atm.
 Atom     1 has atomic number  6 and mass  12.00000

 Molecular mass:    77.04768 amu.
 Principal axes and moments of inertia in atomic units:
                           1         2         3
     Eigenvalues --   205.24366 476.54004 621.21774
           X            0.99991   0.01175   0.00705
           Y           -0.01169   0.99989  -0.00929
           Z           -0.00716   0.00921   0.99993
 This molecule is an asymmetric top.
 Rotational symmetry number  1.
 Rotational temperatures (Kelvin)      0.42200     0.18176     0.13943
 Rotational constants (GHZ):           8.79316     3.78718     2.90517
 Zero-point vibrational energy     269351.3 (Joules/Mol)
                                   64.37650 (Kcal/Mol)
 Warning -- explicit consideration of   8 degrees of freedom as
           vibrations may cause significant error
 Vibrational temperatures:    175.14   285.98   378.64   441.22   560.41
          (Kelvin)            700.73   762.73   867.19  1145.23  1406.21
                             1454.27  1569.50  1631.71  1668.44  1682.84
                             1839.32  1932.48  1983.60  2075.82  2117.46
                             2156.22  2170.67  2209.79  4334.11  4358.34
                             4442.71  4496.59  5024.35  5441.23  5478.02

 Zero-point correction=                           0.102590 (Hartree/Particle)
 Thermal correction to Energy=                    0.108771
 Thermal correction to Enthalpy=                  0.109715
 Thermal correction to Gibbs Free Energy=         0.073479
 Sum of electronic and zero-point Energies=           -285.519150
 Sum of electronic and thermal Energies=              -285.512969
 Sum of electronic and thermal Enthalpies=            -285.512025
 Sum of electronic and thermal Free Energies=         -285.548261

                     E (Thermal)             CV                S
                      KCal/Mol        Cal/Mol-Kelvin    Cal/Mol-Kelvin
 Total                   68.255             21.330             76.266
 Electronic               0.000              0.000              0.000
 Translational            0.889              2.981             38.941
 Rotational               0.889              2.981             25.611
 Vibrational             66.478             15.368             11.715
 Vibration     1          0.609              1.931              3.073
 Vibration     2          0.637              1.842              2.145
 Vibration     3          0.670              1.740              1.641
 Vibration     4          0.697              1.661              1.380
 Vibration     5          0.757              1.493              1.002
 Vibration     6          0.843              1.279              0.691
 Vibration     7          0.885              1.183              0.587
 Vibration     8          0.961              1.026              0.445

 Optimization completed.
    -- Stationary point found.
 Normal termination of Gaussian 09 at Thu Sep  8 15:16:09 2022.
