 Gaussian 09, Revision D.01,
 Gaussian 09:  ES64L-G09RevD.01 24-Apr-2013

 -------------------------
 #P OPT Freq B3LYP/6-31G**
 -------------------------

 -------
 Frag_80
 -------
 Symbolic Z-matrix:
 Charge =  0 Multiplicity = 1

 SCF Done:  E(RB3LYP) =  -174.486170436     A.U. after   12 cycles
 Optimization completed.
    -- Stationary point found.

 1\1\GINC-FN13\FOpt\RB3LYP\6-31G(d,p)\C3H9N1\LIUJ201281\23-Jul-2021\0\\
 #P OPT Freq B3LYP/6-31G**\\Frag_80\\0,1\C,1.389,-0.0148,0.0612\N,0.000
 2,0.,-0.3722\C,-0.7074,-1.1953,0.061\C,-0.6817,1.2101,0.061\H,1.9087,0
 .8654,-0.3305\H,1.8899,-0.9057,-0.3308\H,1.5064,-0.0162,1.1637\H,-0.76
 87,-1.2953,1.1635\H,-1.729,-1.1837,-0.3322\H,-0.2042,-2.0856,-0.3294\H
 ,-1.7035,1.2202,-0.3319\H,-0.7407,1.3115,1.1635\H,-0.1599,2.0895,-0.32
 96\\Version=ES64L-G09RevD.01\State=1-A\HF=-174.4861704\RMSD=5.749e-09\
 RMSF=1.079e-04\Dipole=0.0000793,-0.0000305,0.2282179\Quadrupole=0.8441

 Normal termination of Gaussian 09 at Fri Jul 23 04:38:07 2021.

 ----------------------------------------------------------------------
 #P Geom=AllCheck Guess=TCheck SCRF=Check GenChk RB3LYP/6-31G(d,p) Freq
 ----------------------------------------------------------------------

 Structure from the checkpoint file:  "/vol2/users/liuj201281/HOFBenchmark/IsodesmicSplit/Sample60/Ring26/Running/Gau-20836.chk"
 -------
 Frag_80
 -------
 Charge =  0 Multiplicity = 1

                         Standard orientation:
 ---------------------------------------------------------------------
 Center     Atomic      Atomic             Coordinates (Angstroms)
 Number     Number       Type             X           Y           Z
 ---------------------------------------------------------------------
      1          6           0        1.388745   -0.030721    0.061197
      2          7           0        0.000206   -0.000005   -0.372203
      3          6           0       -0.721046   -1.187117    0.060997
      4          6           0       -0.667781    1.217830    0.060997
      5          1           0        1.918498    0.843466   -0.330503
      6          1           0        1.879402   -0.927303   -0.330803
      7          1           0        1.506121   -0.033466    1.163697
      8          1           0       -0.783488   -1.286408    1.163497
      9          1           0       -1.742446   -1.163810   -0.332203
     10          1           0       -0.228083   -2.083126   -0.329403
     11          1           0       -1.689398    1.239640   -0.331903
     12          1           0       -0.725615    1.319900    1.163497
     13          1           0       -0.135937    2.091192   -0.329603
 ---------------------------------------------------------------------

 SCF Done:  E(RB3LYP) =  -174.486170436     A.U. after    1 cycles

 The electronic state is 1-A.
 Alpha  occ. eigenvalues --  -14.32105 -10.19762 -10.19761 -10.19760  -0.91316
 Alpha  occ. eigenvalues --   -0.69913  -0.69908  -0.58608  -0.46058  -0.46054
 Alpha  occ. eigenvalues --   -0.45784  -0.38745  -0.38738  -0.36432  -0.35568
 Alpha  occ. eigenvalues --   -0.35564  -0.20724
 Alpha virt. eigenvalues --    0.08401   0.14622   0.14623   0.15754   0.15759
 Alpha virt. eigenvalues --    0.16000   0.17052   0.19302   0.19302   0.22762
 Alpha virt. eigenvalues --    0.25628   0.25629   0.51357   0.51361   0.55466

 Mulliken charges:
               1
     1  C   -0.154385
     2  N   -0.390173
     3  C   -0.154371
     4  C   -0.154360
     5  H    0.104632
     6  H    0.104632
     7  H    0.075164
     8  H    0.075202
     9  H    0.104637
    10  H    0.104606
    11  H    0.104611
    12  H    0.075193
    13  H    0.104613
 Sum of Mulliken charges =   0.00000

 Dipole moment (field-independent basis, Debye):
    X=              0.0002    Y=             -0.0001    Z=              0.5801  Tot=              0.5801
 Quadrupole moment (field-independent basis, Debye-Ang):
   XX=            -26.0125   YY=            -26.0119   ZZ=            -29.4194
   XY=              0.0001   XZ=              0.0004   YZ=              0.0000

  Exact polarizability:  43.936  -0.001  43.922   0.000   0.000  36.867
 Approx polarizability:  55.486  -0.001  55.470  -0.003   0.000  52.757

                      1                      2                      3
                      A                      A                      A
 Frequencies --    259.0146               270.5130               272.9740
 Red. masses --      1.0188                 1.0849                 1.0856
 Frc consts  --      0.0403                 0.0468                 0.0477
 IR Inten    --      0.0400                 0.6464                 0.6631

                      4                      5                      6
                      A                      A                      A
 Frequencies --    355.0550               423.8468               424.8974
 Red. masses --      2.2936                 2.0417                 2.0387
 Frc consts  --      0.1704                 0.2161                 0.2169
 IR Inten    --      9.2985                 0.0243                 0.0254

                      7                      8                      9
                      A                      A                      A
 Frequencies --    838.2282              1066.7650              1067.3194
 Red. masses --      3.8933                 2.0260                 2.0345
 Frc consts  --      1.6117                 1.3584                 1.3655
 IR Inten    --     20.0752                21.5777                21.8069

                     10                     11                     12
                      A                      A                      A
 Frequencies --   1074.9232              1127.2545              1128.1812
 Red. masses --      1.2082                 1.2815                 1.2808
 Frc consts  --      0.8225                 0.9594                 0.9605
 IR Inten    --      0.0409                 9.4655                 9.3546

                     13                     14                     15
                      A                      A                      A
 Frequencies --   1215.9716              1315.0248              1315.3709
 Red. masses --      1.5910                 2.6188                 2.6188
 Frc consts  --      1.3861                 2.6682                 2.6696
 IR Inten    --     14.5335                12.7213                12.7551

                     16                     17                     18
                      A                      A                      A
 Frequencies --   1454.2822              1454.3475              1493.2371
 Red. masses --      1.1655                 1.1666                 1.0434
 Frc consts  --      1.4523                 1.4538                 1.3707
 IR Inten    --      2.6621                 2.6592                10.6013

                     19                     20                     21
                      A                      A                      A
 Frequencies --   1494.2903              1496.6547              1504.0699
 Red. masses --      1.0435                 1.1682                 1.0475
 Frc consts  --      1.3728                 1.5417                 1.3962
 IR Inten    --     10.4348                 1.2810                 0.0046

                     22                     23                     24
                      A                      A                      A
 Frequencies --   1518.0219              1526.3519              1526.5854
 Red. masses --      1.0793                 1.0542                 1.0542
 Frc consts  --      1.4653                 1.4470                 1.4475
 IR Inten    --     16.3253                 5.8926                 5.9744

                     25                     26                     27
                      A                      A                      A
 Frequencies --   2912.9916              2913.8006              2929.9185
 Red. masses --      1.0615                 1.0613                 1.0633
 Frc consts  --      5.3069                 5.3091                 5.3782
 IR Inten    --     47.9891                47.8240               186.6981

                     28                     29                     30
                      A                      A                      A
 Frequencies --   3067.4309              3067.8762              3072.4232
 Red. masses --      1.0700                 1.0698                 1.0686
 Frc consts  --      5.9316                 5.9326                 5.9434
 IR Inten    --     33.3371                34.4757                45.8847

                     31                     32                     33
                      A                      A                      A
 Frequencies --   3112.2158              3116.8441              3117.1588
 Red. masses --      1.1047                 1.1037                 1.1037
 Frc consts  --      6.3041                 6.3174                 6.3185
 IR Inten    --      0.1206                49.5230                50.0530

 - Thermochemistry -
 -------------------
 Temperature   298.150 Kelvin.  Pressure   1.00000 Atm.
 Atom     1 has atomic number  6 and mass  12.00000

 Molecular mass:    59.07350 amu.
 Principal axes and moments of inertia in atomic units:
                           1         2         3
     Eigenvalues --   207.88438 207.96670 367.34765
           X            0.99988  -0.01541  -0.00006
           Y            0.01541   0.99988   0.00000
           Z            0.00006   0.00000   1.00000
 This molecule is an asymmetric top.
 Rotational symmetry number  1.
 Rotational temperatures (Kelvin)      0.41664     0.41648     0.23578
 Rotational constants (GHZ):           8.68147     8.67803     4.91290
 Zero-point vibrational energy     316614.7 (Joules/Mol)
                                   75.67272 (Kcal/Mol)
 Warning -- explicit consideration of   6 degrees of freedom as
           vibrations may cause significant error
 Vibrational temperatures:    372.66   389.21   392.75   510.84   609.82
          (Kelvin)            611.33  1206.02  1534.83  1535.63  1546.57
                             1621.87  1623.20  1749.51  1892.03  1892.52
                             2092.39  2092.48  2148.43  2149.95  2153.35
                             2164.02  2184.09  2196.08  2196.41  4191.14
                             4192.30  4215.49  4413.34  4413.98  4420.53
                             4477.78  4484.44  4484.89

 Zero-point correction=                           0.120592 (Hartree/Particle)
 Thermal correction to Energy=                    0.126020
 Thermal correction to Enthalpy=                  0.126964
 Thermal correction to Gibbs Free Energy=         0.093294
 Sum of electronic and zero-point Energies=           -174.365578
 Sum of electronic and thermal Energies=              -174.360151
 Sum of electronic and thermal Enthalpies=            -174.359207
 Sum of electronic and thermal Free Energies=         -174.392876

                     E (Thermal)             CV                S
                      KCal/Mol        Cal/Mol-Kelvin    Cal/Mol-Kelvin
 Total                   79.078             18.747             70.863
 Electronic               0.000              0.000              0.000
 Translational            0.889              2.981             38.149
 Rotational               0.889              2.981             24.278
 Vibrational             77.301             12.786              8.436
 Vibration     1          0.668              1.748              1.668
 Vibration     2          0.674              1.728              1.593
 Vibration     3          0.676              1.723              1.577
 Vibration     4          0.731              1.565              1.144
 Vibration     5          0.786              1.418              0.879
 Vibration     6          0.787              1.416              0.875

 1\1\GINC-FN13\Freq\RB3LYP\6-31G(d,p)\C3H9N1\LIUJ201281\23-Jul-2021\0\\
 #P Geom=AllCheck Guess=TCheck SCRF=Check GenChk RB3LYP/6-31G(d,p) Freq
 \\Frag_80\\0,1\C,1.389,-0.0148,0.0612\N,0.0002,0.,-0.3722\C,-0.7074,-1
 .1953,0.061\C,-0.6817,1.2101,0.061\H,1.9087,0.8654,-0.3305\H,1.8899,-0
 .9057,-0.3308\H,1.5064,-0.0162,1.1637\H,-0.7687,-1.2953,1.1635\H,-1.72
 9,-1.1837,-0.3322\H,-0.2042,-2.0856,-0.3294\H,-1.7035,1.2202,-0.3319\H
 ,-0.7407,1.3115,1.1635\H,-0.1599,2.0895,-0.3296\\Version=ES64L-G09RevD
 .01\State=1-A\HF=-174.4861704\RMSD=8.816e-10\RMSF=1.079e-04\ZeroPoint=

 Normal termination of Gaussian 09 at Fri Jul 23 04:38:20 2021.
