 Gaussian 09, Revision E.01,
 Gaussian 09:  ES64L-G09RevE.01 30-Nov-2015

 -------------------------
 #P OPT Freq B3LYP/6-31G**
 -------------------------

 --------
 Frag_288
 --------
 Symbolic Z-matrix:
 Charge =  0 Multiplicity = 1

 SCF Done:  E(RB3LYP) =  -267.930387121     A.U. after   12 cycles
 SCF Done:  E(RB3LYP) =  -267.933903981     A.U. after   11 cycles
 SCF Done:  E(RB3LYP) =  -267.934085210     A.U. after    9 cycles
 SCF Done:  E(RB3LYP) =  -267.934097447     A.U. after    7 cycles
 SCF Done:  E(RB3LYP) =  -267.934097794     A.U. after    7 cycles
 SCF Done:  E(RB3LYP) =  -267.934098165     A.U. after    7 cycles
 SCF Done:  E(RB3LYP) =  -267.934097784     A.U. after    7 cycles
 SCF Done:  E(RB3LYP) =  -267.934097821     A.U. after    7 cycles
 Optimization completed.
    -- Stationary point found.
 Normal termination of Gaussian 09 at Sat Aug 21 01:37:20 2021.

 ----------------------------------------------------------------------
 #P Geom=AllCheck Guess=TCheck SCRF=Check GenChk RB3LYP/6-31G(d,p) Freq
 ----------------------------------------------------------------------

 Structure from the checkpoint file:  "/public/home/users/caep010/.cache/gau_scr/Gau-11826.chk"
 --------
 Frag_288
 --------
 Charge =  0 Multiplicity = 1

                         Standard orientation:
 ---------------------------------------------------------------------
 Center     Atomic      Atomic             Coordinates (Angstroms)
 Number     Number       Type             X           Y           Z
 ---------------------------------------------------------------------
      1          6           0       -0.893407   -1.046016    0.326375
      2          6           0       -1.421427    0.396150    0.052601
      3          7           0       -0.364407    1.330680   -0.366771
      4          6           0        0.893407    1.046015    0.326375
      5          6           0        1.421427   -0.396150    0.052601
      6          7           0        0.364407   -1.330680   -0.366771
      7          1           0       -0.710474   -1.184147    1.399580
      8          1           0       -1.640004   -1.794679    0.039502
      9          1           0       -1.904798    0.793815    0.956047
     10          1           0       -2.185515    0.384621   -0.732694
     11          1           0       -0.215177    1.236596   -1.368898
     12          1           0        0.710474    1.184147    1.399580
     13          1           0        1.640004    1.794679    0.039502
     14          1           0        2.185515   -0.384621   -0.732694
     15          1           0        1.904798   -0.793815    0.956047
     16          1           0        0.215177   -1.236595   -1.368898
 ---------------------------------------------------------------------

 SCF Done:  E(RB3LYP) =  -267.934097821     A.U. after    1 cycles

 The electronic state is 1-A.
 Alpha  occ. eigenvalues --  -14.31535 -14.31535 -10.20228 -10.20227 -10.20180
 Alpha  occ. eigenvalues --  -10.20180  -0.92477  -0.86601  -0.74749  -0.66522
 Alpha  occ. eigenvalues --   -0.63241  -0.56228  -0.51530  -0.46044  -0.45180
 Alpha  occ. eigenvalues --   -0.43790  -0.40075  -0.39145  -0.37252  -0.37174
 Alpha  occ. eigenvalues --   -0.32770  -0.32581  -0.24476  -0.19791
 Alpha virt. eigenvalues --    0.06052   0.10658   0.12537   0.12825   0.13747
 Alpha virt. eigenvalues --    0.15665   0.16471   0.17665   0.18207   0.20972
 Alpha virt. eigenvalues --    0.21025   0.21783   0.24579   0.28315   0.30645

 Mulliken charges:
               1
     1  C   -0.076028
     2  C   -0.063047
     3  N   -0.480479
     4  C   -0.076028
     5  C   -0.063047
     6  N   -0.480479
     7  H    0.104515
     8  H    0.098408
     9  H    0.100278
    10  H    0.091926
    11  H    0.224427
    12  H    0.104515
    13  H    0.098408
    14  H    0.091926
    15  H    0.100278
    16  H    0.224427
 Sum of Mulliken charges =  -0.00000

 Dipole moment (field-independent basis, Debye):
    X=             -0.0000    Y=              0.0000    Z=             -0.8019  Tot=              0.8019
 Quadrupole moment (field-independent basis, Debye-Ang):
   XX=            -36.5743   YY=            -45.4848   ZZ=            -34.3469
   XY=              3.2107   XZ=              0.0000   YZ=             -0.0000

  Exact polarizability:  60.083   2.555  50.188   0.000  -0.000  52.068
 Approx polarizability:  77.986   2.793  67.884   0.000  -0.000  77.827

                      1                      2                      3
                      A                      A                      A
 Frequencies --     99.5314               254.9654               302.8722
 Red. masses --      1.7108                 1.5669                 2.1097
 Frc consts  --      0.0100                 0.0600                 0.1140
 IR Inten    --      0.8918                 2.9849                15.1762

                      4                      5                      6
                      A                      A                      A
 Frequencies --    463.0156               530.6072               665.7549
 Red. masses --      3.5670                 3.9911                 1.3850
 Frc consts  --      0.4506                 0.6620                 0.3617
 IR Inten    --      1.1456                 0.9932                22.0036

                      7                      8                      9
                      A                      A                      A
 Frequencies --    759.2812               775.4148               826.5484
 Red. masses --      1.5598                 1.8014                 1.8058
 Frc consts  --      0.5298                 0.6382                 0.7269
 IR Inten    --    186.5121                45.2313                 3.7545

                     10                     11                     12
                      A                      A                      A
 Frequencies --    831.0745               889.3760               927.1846
 Red. masses --      1.8558                 3.2639                 1.8492
 Frc consts  --      0.7552                 1.5211                 0.9366
 IR Inten    --     21.5072                 4.6417                17.6928

                     13                     14                     15
                      A                      A                      A
 Frequencies --    994.8055              1005.5251              1045.0766
 Red. masses --      1.5577                 2.7851                 1.8146
 Frc consts  --      0.9083                 1.6591                 1.1677
 IR Inten    --      0.0221                 8.2850                 0.0018

                     16                     17                     18
                      A                      A                      A
 Frequencies --   1130.6063              1151.1605              1187.3138
 Red. masses --      6.0205                 4.6007                 1.0337
 Frc consts  --      4.5342                 3.5920                 0.8585
 IR Inten    --     56.1789                 0.0196                 0.4332

                     19                     20                     21
                      A                      A                      A
 Frequencies --   1204.8533              1270.7333              1312.6813
 Red. masses --      2.0074                 1.1365                 1.2023
 Frc consts  --      1.7169                 1.0812                 1.2206
 IR Inten    --     10.2054                 0.0304                 0.6305

                     22                     23                     24
                      A                      A                      A
 Frequencies --   1353.6183              1356.6178              1368.2993
 Red. masses --      1.2945                 1.2291                 1.1702
 Frc consts  --      1.3974                 1.3328                 1.2908
 IR Inten    --      0.0006                 0.0554                 1.8873

                     25                     26                     27
                      A                      A                      A
 Frequencies --   1380.3651              1403.7319              1486.8108
 Red. masses --      1.3724                 1.3682                 1.1689
 Frc consts  --      1.5407                 1.5884                 1.5225
 IR Inten    --      0.7542                 6.3038                 0.0036

                     28                     29                     30
                      A                      A                      A
 Frequencies --   1496.8608              1501.9724              1502.6120
 Red. masses --      1.1602                 1.0910                 1.0976
 Frc consts  --      1.5316                 1.4501                 1.4602
 IR Inten    --     11.7465                 0.7761                 2.3048

                     31                     32                     33
                      A                      A                      A
 Frequencies --   1508.3893              1515.8819              3015.9999
 Red. masses --      1.0784                 1.0912                 1.0670
 Frc consts  --      1.4456                 1.4774                 5.7185
 IR Inten    --      0.3439                 2.1478                99.8139

                     34                     35                     36
                      A                      A                      A
 Frequencies --   3017.2506              3036.0942              3041.9858
 Red. masses --      1.0663                 1.0623                 1.0629
 Frc consts  --      5.7194                 5.7696                 5.7953
 IR Inten    --      6.6276                61.4037                47.3710

                     37                     38                     39
                      A                      A                      A
 Frequencies --   3069.1681              3069.9355              3090.9206
 Red. masses --      1.0993                 1.0999                 1.1036
 Frc consts  --      6.1013                 6.1073                 6.2121
 IR Inten    --      7.0473                13.6563                62.1028

                     40                     41                     42
                      A                      A                      A
 Frequencies --   3093.6172              3501.3609              3505.7953
 Red. masses --      1.1046                 1.0747                 1.0740
 Frc consts  --      6.2285                 7.7625                 7.7771
 IR Inten    --     61.9415                 0.2280                 3.8598

 - Thermochemistry -
 -------------------
 Temperature   298.150 Kelvin.  Pressure   1.00000 Atm.
 Atom     1 has atomic number  6 and mass  12.00000

 Molecular mass:    86.08440 amu.
 Principal axes and moments of inertia in atomic units:
                           1         2         3
     Eigenvalues --   388.71802 405.85704 672.87805
           X            0.79409   0.60780   0.00000
           Y           -0.60780   0.79409  -0.00000
           Z           -0.00000   0.00000   1.00000
 This molecule is an asymmetric top.
 Rotational symmetry number  1.
 Rotational temperatures (Kelvin)      0.22282     0.21341     0.12872
 Rotational constants (GHZ):           4.64280     4.44674     2.68212
 Zero-point vibrational energy     388461.4 (Joules/Mol)
                                   92.84450 (Kcal/Mol)
 Warning -- explicit consideration of   5 degrees of freedom as
           vibrations may cause significant error
 Vibrational temperatures:    143.20   366.84   435.76   666.18   763.42
          (Kelvin)            957.87  1092.43  1115.65  1189.22  1195.73
                             1279.61  1334.01  1431.30  1446.72  1503.63
                             1626.69  1656.26  1708.28  1733.51  1828.30
                             1888.65  1947.55  1951.87  1968.68  1986.04
                             2019.65  2139.19  2153.65  2161.00  2161.92
                             2170.23  2181.01  4339.35  4341.15  4368.26
                             4376.73  4415.84  4416.95  4447.14  4451.02
                             5037.67  5044.05

 Zero-point correction=                           0.147957 (Hartree/Particle)
 Thermal correction to Energy=                    0.153702
 Thermal correction to Enthalpy=                  0.154646
 Thermal correction to Gibbs Free Energy=         0.118781
 Sum of electronic and zero-point Energies=           -267.786141
 Sum of electronic and thermal Energies=              -267.780396
 Sum of electronic and thermal Enthalpies=            -267.779452
 Sum of electronic and thermal Free Energies=         -267.815317

                     E (Thermal)             CV                S
                      KCal/Mol        Cal/Mol-Kelvin    Cal/Mol-Kelvin
 Total                   96.449             21.672             75.485
 Electronic               0.000              0.000              0.000
 Translational            0.889              2.981             39.271
 Rotational               0.889              2.981             26.165
 Vibrational             94.672             15.710             10.048
 Vibration     1          0.604              1.949              3.463
 Vibration     2          0.665              1.754              1.696
 Vibration     3          0.694              1.668              1.401
 Vibration     4          0.821              1.332              0.757
 Vibration     5          0.886              1.182              0.586

 Optimization completed.
    -- Stationary point found.
 Normal termination of Gaussian 09 at Sat Aug 21 01:37:34 2021.
