 Gaussian 09, Revision E.01,
 Gaussian 09:  ES64L-G09RevE.01 30-Nov-2015

 ----------------------------
 #P OPT Freq B3LYP/6-31G(d,p)
 ----------------------------

 --------
 Frag_872
 --------
 Symbolic Z-matrix:
 Charge =  0 Multiplicity = 1

 SCF Done:  E(RB3LYP) =  -265.702285076     A.U. after   12 cycles
 SCF Done:  E(RB3LYP) =  -265.702330537     A.U. after    9 cycles
 SCF Done:  E(RB3LYP) =  -265.702340407     A.U. after    8 cycles
 SCF Done:  E(RB3LYP) =  -265.702341746     A.U. after    7 cycles
 SCF Done:  E(RB3LYP) =  -265.702342626     A.U. after    7 cycles
 SCF Done:  E(RB3LYP) =  -265.702343868     A.U. after    9 cycles
 SCF Done:  E(RB3LYP) =  -265.702344180     A.U. after    7 cycles
 Optimization completed.
    -- Stationary point found.
 Normal termination of Gaussian 09 at Thu Sep  8 15:18:30 2022.

 ----------------------------------------------------------------------
 #P Geom=AllCheck Guess=TCheck SCRF=Check GenChk RB3LYP/6-31G(d,p) Freq
 ----------------------------------------------------------------------

 Structure from the checkpoint file:  "B3LYP6-31Gdp.Frag_872.chk"
 --------
 Frag_872
 --------
 Charge =  0 Multiplicity = 1

                         Standard orientation:
 ---------------------------------------------------------------------
 Center     Atomic      Atomic             Coordinates (Angstroms)
 Number     Number       Type             X           Y           Z
 ---------------------------------------------------------------------
      1          6           0       -1.687196   -0.731106   -0.053207
      2          6           0       -0.427647    0.030063    0.329385
      3          7           0       -0.464168    1.387726   -0.199188
      4          8           0        0.651663   -0.689789   -0.262085
      5          7           0        1.890381   -0.052969    0.120945
      6          1           0       -2.566214   -0.281816    0.419682
      7          1           0       -1.817147   -0.702842   -1.138033
      8          1           0       -1.613458   -1.771632    0.272143
      9          1           0       -0.281451    0.001445    1.424656
     10          1           0        0.319548    1.903299    0.195499
     11          1           0       -1.311317    1.853626    0.117598
     12          1           0        2.453994   -0.829886    0.469012
     13          1           0        2.308308    0.209075   -0.773245
 ---------------------------------------------------------------------

 SCF Done:  E(RB3LYP) =  -265.702344180     A.U. after    1 cycles

 The electronic state is 1-A.
 Alpha  occ. eigenvalues --  -19.16113 -14.36622 -14.30359 -10.24959 -10.17104
 Alpha  occ. eigenvalues --   -1.05231  -0.87614  -0.80584  -0.71281  -0.57904
 Alpha  occ. eigenvalues --   -0.50809  -0.48761  -0.48060  -0.45770  -0.40138
 Alpha  occ. eigenvalues --   -0.38067  -0.36726  -0.34709  -0.26508  -0.25859
 Alpha  occ. eigenvalues --   -0.23093
 Alpha virt. eigenvalues --    0.07938   0.08841   0.12376   0.14720   0.14921
 Alpha virt. eigenvalues --    0.15626   0.17326   0.18642   0.19794   0.22150
 Alpha virt. eigenvalues --    0.25856   0.28443   0.53845   0.55189   0.57112

 Mulliken charges:
               1
     1  C   -0.332021
     2  C    0.329887
     3  N   -0.600199
     4  O   -0.431550
     5  N   -0.373046
     6  H    0.097401
     7  H    0.129100
     8  H    0.114944
     9  H    0.062113
    10  H    0.247024
    11  H    0.230459
    12  H    0.260281
    13  H    0.265604
 Sum of Mulliken charges =  -0.00000

 Dipole moment (field-independent basis, Debye):
    X=              0.5062    Y=              0.2159    Z=              1.0679  Tot=              1.2014
 Quadrupole moment (field-independent basis, Debye-Ang):
   XX=            -24.3443   YY=            -30.2292   ZZ=            -32.6956
   XY=             -1.8063   XZ=             -2.1723   YZ=              0.7748

  Exact polarizability:  51.374  -0.063  40.160  -0.426  -1.408  33.868
 Approx polarizability:  62.963  -0.112  53.628  -0.111  -1.615  47.428

                      1                      2                      3
                      A                      A                      A
 Frequencies --    128.2376               160.7676               218.6055
 Red. masses --      2.1074                 1.3846                 1.0378
 Frc consts  --      0.0204                 0.0211                 0.0292
 IR Inten    --     36.9002                37.5875                 4.6364

                      4                      5                      6
                      A                      A                      A
 Frequencies --    272.0590               307.5428               379.2899
 Red. masses --      1.4944                 1.7747                 2.7661
 Frc consts  --      0.0652                 0.0989                 0.2345
 IR Inten    --     17.9729                13.7150                 2.1787

                      7                      8                      9
                      A                      A                      A
 Frequencies --    524.1630               564.4620               836.3193
 Red. masses --      3.1323                 3.6693                 2.0538
 Frc consts  --      0.5070                 0.6888                 0.8464
 IR Inten    --     13.2156                 7.1173                34.6611

                     10                     11                     12
                      A                      A                      A
 Frequencies --    879.6020               928.2570               969.3896
 Red. masses --      1.6928                 3.1881                 1.9111
 Frc consts  --      0.7716                 1.6185                 1.0581
 IR Inten    --    104.0888                12.0546                46.7549

                     13                     14                     15
                      A                      A                      A
 Frequencies --   1014.2525              1116.0421              1170.4210
 Red. masses --      1.7153                 1.9648                 1.8557
 Frc consts  --      1.0396                 1.4419                 1.4978
 IR Inten    --     14.6859                44.4950                60.3902

                     16                     17                     18
                      A                      A                      A
 Frequencies --   1246.3874              1265.5755              1312.3077
 Red. masses --      1.4375                 1.5414                 1.1236
 Frc consts  --      1.3157                 1.4546                 1.1401
 IR Inten    --     27.3888                34.0753                 1.4389

                     19                     20                     21
                      A                      A                      A
 Frequencies --   1399.4006              1407.3641              1442.7030
 Red. masses --      1.2728                 1.1989                 1.6665
 Frc consts  --      1.4685                 1.3991                 2.0437
 IR Inten    --      2.0040                37.9744                37.9113

                     22                     23                     24
                      A                      A                      A
 Frequencies --   1498.6785              1510.5624              1645.4252
 Red. masses --      1.0451                 1.0547                 1.0930
 Frc consts  --      1.3830                 1.4179                 1.7435
 IR Inten    --      2.4711                 1.2135                58.7996

                     25                     26                     27
                      A                      A                      A
 Frequencies --   1657.1887              2941.2568              3058.0597
 Red. masses --      1.0754                 1.0829                 1.0360
 Frc consts  --      1.7400                 5.5195                 5.7081
 IR Inten    --      6.0409                99.8987                14.1370

                     28                     29                     30
                      A                      A                      A
 Frequencies --   3132.2327              3149.4453              3434.5908
 Red. masses --      1.1012                 1.1038                 1.0477
 Frc consts  --      6.3654                 6.4509                 7.2816
 IR Inten    --     22.9886                19.0568                 2.0184

                     31                     32                     33
                      A                      A                      A
 Frequencies --   3493.0053              3523.9387              3579.0471
 Red. masses --      1.0495                 1.0958                 1.0920
 Frc consts  --      7.5445                 8.0178                 8.2414
 IR Inten    --      1.3509                 0.0419                 0.3692

 - Thermochemistry -
 -------------------
 Temperature   298.150 Kelvin.  Pressure   1.00000 Atm.
 Atom     1 has atomic number  6 and mass  12.00000

 Molecular mass:    76.06366 amu.
 Principal axes and moments of inertia in atomic units:
                           1         2         3
     Eigenvalues --   215.19655 463.37285 623.87764
           X            0.99977   0.02103  -0.00521
           Y           -0.02101   0.99977   0.00529
           Z            0.00532  -0.00518   0.99997
 This molecule is an asymmetric top.
 Rotational symmetry number  1.
 Rotational temperatures (Kelvin)      0.40249     0.18692     0.13883
 Rotational constants (GHZ):           8.38648     3.89479     2.89278
 Zero-point vibrational energy     300062.8 (Joules/Mol)
                                   71.71673 (Kcal/Mol)
 Warning -- explicit consideration of   8 degrees of freedom as
           vibrations may cause significant error
 Vibrational temperatures:    184.51   231.31   314.52   391.43   442.48
          (Kelvin)            545.71   754.15   812.13  1203.28  1265.55
                             1335.55  1394.73  1459.28  1605.73  1683.97
                             1793.27  1820.88  1888.12  2013.42  2024.88
                             2075.73  2156.26  2173.36  2367.40  2384.32
                             4231.81  4399.86  4506.58  4531.34  4941.60
                             5025.65  5070.16  5149.44

 Zero-point correction=                           0.114288 (Hartree/Particle)
 Thermal correction to Energy=                    0.120911
 Thermal correction to Enthalpy=                  0.121855
 Thermal correction to Gibbs Free Energy=         0.084762
 Sum of electronic and zero-point Energies=           -265.588056
 Sum of electronic and thermal Energies=              -265.581433
 Sum of electronic and thermal Enthalpies=            -265.580489
 Sum of electronic and thermal Free Energies=         -265.617582

                     E (Thermal)             CV                S
                      KCal/Mol        Cal/Mol-Kelvin    Cal/Mol-Kelvin
 Total                   75.873             22.663             78.069
 Electronic               0.000              0.000              0.000
 Translational            0.889              2.981             38.903
 Rotational               0.889              2.981             25.634
 Vibrational             74.095             16.701             13.532
 Vibration     1          0.611              1.925              2.972
 Vibration     2          0.622              1.890              2.541
 Vibration     3          0.646              1.813              1.971
 Vibration     4          0.675              1.725              1.583
 Vibration     5          0.697              1.659              1.376
 Vibration     6          0.749              1.514              1.042
 Vibration     7          0.879              1.197              0.600
 Vibration     8          0.920              1.108              0.515

 Optimization completed.
    -- Stationary point found.
 Normal termination of Gaussian 09 at Thu Sep  8 15:18:39 2022.
