 Gaussian 09, Revision E.01,
 Gaussian 09:  ES64L-G09RevE.01 30-Nov-2015

 ----------------------------
 #P OPT Freq B3LYP/6-31G(d,p)
 ----------------------------

 --------
 Frag_724
 --------
 Symbolic Z-matrix:
 Charge =  0 Multiplicity = 1

 SCF Done:  E(RB3LYP) =  -267.934846670     A.U. after   12 cycles
 SCF Done:  E(RB3LYP) =  -267.934889201     A.U. after   10 cycles
 SCF Done:  E(RB3LYP) =  -267.934891460     A.U. after    8 cycles
 SCF Done:  E(RB3LYP) =  -267.934891809     A.U. after    8 cycles
 Optimization completed.
    -- Stationary point found.
 Normal termination of Gaussian 09 at Thu Sep  8 15:14:48 2022.

 ----------------------------------------------------------------------
 #P Geom=AllCheck Guess=TCheck SCRF=Check GenChk RB3LYP/6-31G(d,p) Freq
 ----------------------------------------------------------------------

 Structure from the checkpoint file:  "B3LYP6-31Gdp.Frag_724.chk"
 --------
 Frag_724
 --------
 Charge =  0 Multiplicity = 1

                         Standard orientation:
 ---------------------------------------------------------------------
 Center     Atomic      Atomic             Coordinates (Angstroms)
 Number     Number       Type             X           Y           Z
 ---------------------------------------------------------------------
      1          6           0        2.183727   -0.087572   -0.056874
      2          6           0        0.995086   -0.677514    0.066571
      3          6           0       -0.360253    0.016017    0.012378
      4          6           0       -1.334257   -0.817294   -0.843844
      5          7           0       -0.959731    0.152237    1.354827
      6          7           0       -0.195270    1.389762   -0.469010
      7          1           0        3.107419   -0.652311    0.030156
      8          1           0        2.262919    0.980096   -0.234809
      9          1           0        0.944102   -1.750303    0.258437
     10          1           0       -0.971749   -0.893863   -1.873965
     11          1           0       -1.446265   -1.836863   -0.455110
     12          1           0       -2.320743   -0.344086   -0.845308
     13          1           0       -0.288947    0.639446    1.946845
     14          1           0       -1.095554   -0.769723    1.764651
     15          1           0       -1.101225    1.850029   -0.415299
     16          1           0        0.089237    1.381763   -1.445702
 ---------------------------------------------------------------------

 SCF Done:  E(RB3LYP) =  -267.934891809     A.U. after    1 cycles

 The electronic state is 1-A.
 Alpha  occ. eigenvalues --  -14.31094 -14.30798 -10.24464 -10.18032 -10.17387
 Alpha  occ. eigenvalues --  -10.17200  -0.91916  -0.83144  -0.75671  -0.71383
 Alpha  occ. eigenvalues --   -0.60675  -0.54481  -0.49998  -0.48636  -0.43289
 Alpha  occ. eigenvalues --   -0.43208  -0.41153  -0.38793  -0.37262  -0.36641
 Alpha  occ. eigenvalues --   -0.34449  -0.26914  -0.23720  -0.23003
 Alpha virt. eigenvalues --    0.02164   0.07495   0.12249   0.12643   0.14564
 Alpha virt. eigenvalues --    0.15176   0.15801   0.17708   0.18410   0.20211
 Alpha virt. eigenvalues --    0.20940   0.24059   0.25252   0.27229   0.31194

 Mulliken charges:
               1
     1  C   -0.250265
     2  C   -0.026344
     3  C    0.214749
     4  C   -0.305461
     5  N   -0.574003
     6  N   -0.590868
     7  H    0.090426
     8  H    0.113305
     9  H    0.069704
    10  H    0.101573
    11  H    0.091011
    12  H    0.108993
    13  H    0.245201
    14  H    0.231619
    15  H    0.244851
    16  H    0.235508
 Sum of Mulliken charges =  -0.00000

 Dipole moment (field-independent basis, Debye):
    X=             -0.0953    Y=             -1.0076    Z=             -0.5090  Tot=              1.1329
 Quadrupole moment (field-independent basis, Debye-Ang):
   XX=            -39.3274   YY=            -37.5391   ZZ=            -35.7119
   XY=             -0.1703   XZ=              1.4341   YZ=             -3.0363

  Exact polarizability:  69.113   3.215  55.306  -2.574  -2.563  46.902
 Approx polarizability:  96.459   8.630  79.409  -7.530  -4.303  64.717

                      1                      2                      3
                      A                      A                      A
 Frequencies --    119.1464               248.8346               275.9602
 Red. masses --      2.5033                 1.0502                 1.8158
 Frc consts  --      0.0209                 0.0383                 0.0815
 IR Inten    --      0.0868                 5.9571                 9.5869

                      4                      5                      6
                      A                      A                      A
 Frequencies --    294.3400               314.6324               336.3795
 Red. masses --      1.1304                 1.6927                 1.4704
 Frc consts  --      0.0577                 0.0987                 0.0980
 IR Inten    --     34.1677                 5.0699                18.0326

                      7                      8                      9
                      A                      A                      A
 Frequencies --    384.3625               423.5605               479.8260
 Red. masses --      2.2666                 2.2545                 2.5744
 Frc consts  --      0.1973                 0.2383                 0.3492
 IR Inten    --     14.4430                 4.9170                 1.8969

                     10                     11                     12
                      A                      A                      A
 Frequencies --    562.9329               706.3228               747.1549
 Red. masses --      2.6794                 1.7373                 3.3588
 Frc consts  --      0.5003                 0.5107                 1.1047
 IR Inten    --      2.7597                16.4934                 4.1986

                     13                     14                     15
                      A                      A                      A
 Frequencies --    879.0812               906.0319               934.4173
 Red. masses --      1.6401                 2.0005                 1.3060
 Frc consts  --      0.7468                 0.9676                 0.6719
 IR Inten    --    135.3014                88.5904                91.1224

                     16                     17                     18
                      A                      A                      A
 Frequencies --    957.0729               993.5585              1009.2959
 Red. masses --      1.3729                 1.4799                 1.7645
 Frc consts  --      0.7409                 0.8608                 1.0590
 IR Inten    --     22.0215                39.4858                 9.4196

                     19                     20                     21
                      A                      A                      A
 Frequencies --   1040.8617              1051.4514              1121.6722
 Red. masses --      1.0980                 1.3420                 1.6478
 Frc consts  --      0.7009                 0.8742                 1.2215
 IR Inten    --      8.9163                17.4544                18.9812

                     22                     23                     24
                      A                      A                      A
 Frequencies --   1259.7517              1294.2719              1334.3545
 Red. masses --      2.4616                 1.6697                 1.5011
 Frc consts  --      2.3017                 1.6479                 1.5747
 IR Inten    --     58.5039                12.1119                 5.5431

                     25                     26                     27
                      A                      A                      A
 Frequencies --   1359.8488              1415.3138              1446.9184
 Red. masses --      1.6793                 1.2739                 1.2124
 Frc consts  --      1.8296                 1.5035                 1.4955
 IR Inten    --      7.4050                 9.2533                 9.8503

                     28                     29                     30
                      A                      A                      A
 Frequencies --   1499.1372              1510.0265              1641.0020
 Red. masses --      1.0592                 1.0564                 1.1167
 Frc consts  --      1.4025                 1.4192                 1.7718
 IR Inten    --      0.5529                 2.4924                38.3593

                     31                     32                     33
                      A                      A                      A
 Frequencies --   1653.9162              1717.9376              3034.6015
 Red. masses --      1.1024                 4.6005                 1.0370
 Frc consts  --      1.7767                 7.9996                 5.6263
 IR Inten    --     28.1979                 4.5007                20.7255

                     34                     35                     36
                      A                      A                      A
 Frequencies --   3103.8559              3127.9710              3134.3145
 Red. masses --      1.0991                 1.1038                 1.0826
 Frc consts  --      6.2385                 6.3628                 6.2661
 IR Inten    --     28.0509                23.7409                22.4336

                     37                     38                     39
                      A                      A                      A
 Frequencies --   3161.3038              3248.6425              3482.0410
 Red. masses --      1.0668                 1.1157                 1.0494
 Frc consts  --      6.2815                 6.9378                 7.4968
 IR Inten    --     10.9338                 9.7944                 0.4191

                     40                     41                     42
                      A                      A                      A
 Frequencies --   3491.2745              3572.4411              3585.0796
 Red. masses --      1.0489                 1.0924                 1.0932
 Frc consts  --      7.5329                 8.2143                 8.2781
 IR Inten    --      0.3725                 0.1401                 0.3076

 - Thermochemistry -
 -------------------
 Temperature   298.150 Kelvin.  Pressure   1.00000 Atm.
 Atom     1 has atomic number  6 and mass  12.00000

 Molecular mass:    86.08440 amu.
 Principal axes and moments of inertia in atomic units:
                           1         2         3
     Eigenvalues --   383.19541 655.01331 673.38215
           X            0.99944   0.02474   0.02260
           Y           -0.02136   0.99001  -0.13938
           Z           -0.02582   0.13882   0.98998
 This molecule is an asymmetric top.
 Rotational symmetry number  1.
 Rotational temperatures (Kelvin)      0.22603     0.13223     0.12863
 Rotational constants (GHZ):           4.70972     2.75527     2.68011
 Zero-point vibrational energy     375991.7 (Joules/Mol)
                                   89.86417 (Kcal/Mol)
 Warning -- explicit consideration of  10 degrees of freedom as
           vibrations may cause significant error
 Vibrational temperatures:    171.42   358.02   397.04   423.49   452.69
          (Kelvin)            483.97   553.01   609.41   690.36   809.93
                             1016.24  1074.99  1264.80  1303.58  1344.42
                             1377.01  1429.51  1452.15  1497.57  1512.80
                             1613.83  1812.50  1862.17  1919.84  1956.52
                             2036.32  2081.79  2156.92  2172.59  2361.03
                             2379.61  2471.73  4366.11  4465.75  4500.45
                             4509.57  4548.41  4674.07  5009.87  5023.16
                             5139.94  5158.12

 Zero-point correction=                           0.143208 (Hartree/Particle)
 Thermal correction to Energy=                    0.150555
 Thermal correction to Enthalpy=                  0.151500
 Thermal correction to Gibbs Free Energy=         0.112963
 Sum of electronic and zero-point Energies=           -267.791684
 Sum of electronic and thermal Energies=              -267.784336
 Sum of electronic and thermal Enthalpies=            -267.783392
 Sum of electronic and thermal Free Energies=         -267.821929

                     E (Thermal)             CV                S
                      KCal/Mol        Cal/Mol-Kelvin    Cal/Mol-Kelvin
 Total                   94.475             27.808             81.107
 Electronic               0.000              0.000              0.000
 Translational            0.889              2.981             39.271
 Rotational               0.889              2.981             26.627
 Vibrational             92.697             21.846             15.208
 Vibration     1          0.609              1.933              3.114
 Vibration     2          0.662              1.765              1.739
 Vibration     3          0.678              1.718              1.559
 Vibration     4          0.689              1.684              1.449
 Vibration     5          0.702              1.646              1.338
 Vibration     6          0.717              1.603              1.229
 Vibration     7          0.753              1.504              1.022
 Vibration     8          0.786              1.419              0.880
 Vibration     9          0.836              1.295              0.711
 Vibration    10          0.919              1.111              0.518

 Optimization completed.
    -- Stationary point found.
 Normal termination of Gaussian 09 at Thu Sep  8 15:15:04 2022.
