 Gaussian 09, Revision D.01,
 Gaussian 09:  ES64L-G09RevD.01 24-Apr-2013

 -------------------------
 #P OPT Freq B3LYP/6-31G**
 -------------------------

 -------
 Frag_99
 -------
 Symbolic Z-matrix:
 Charge =  0 Multiplicity = 1

 SCF Done:  E(RB3LYP) =  -158.472760588     A.U. after   11 cycles
 SCF Done:  E(RB3LYP) =  -158.472765975     A.U. after    6 cycles
 SCF Done:  E(RB3LYP) =  -158.472766166     A.U. after    6 cycles
 SCF Done:  E(RB3LYP) =  -158.472761220     A.U. after    6 cycles
 Optimization completed.
    -- Stationary point found.
 Normal termination of Gaussian 09 at Fri Jul 23 08:49:50 2021.

 ----------------------------------------------------------------------
 #P Geom=AllCheck Guess=TCheck SCRF=Check GenChk RB3LYP/6-31G(d,p) Freq
 ----------------------------------------------------------------------

 Structure from the checkpoint file:  "/vol2/users/liuj201281/HOFBenchmark/IsodesmicSplit/Sample60/Ring26/Running/Gau-522961.chk"
 -------
 Frag_99
 -------
 Charge =  0 Multiplicity = 1

                         Standard orientation:
 ---------------------------------------------------------------------
 Center     Atomic      Atomic             Coordinates (Angstroms)
 Number     Number       Type             X           Y           Z
 ---------------------------------------------------------------------
      1          6           0        0.919248    1.136490    0.095745
      2          6           0       -0.000011   -0.000008   -0.372801
      3          6           0        0.524646   -1.364325    0.095785
      4          6           0       -1.443886    0.227821    0.095747
      5          1           0        0.568323    2.109379   -0.265503
      6          1           0        1.944443    0.995389   -0.263746
      7          1           0        0.955193    1.182626    1.191248
      8          1           0        0.000032   -0.000024   -1.472715
      9          1           0        1.542835   -1.546370   -0.265161
     10          1           0        0.546146   -1.418629    1.191275
     11          1           0       -0.109746   -2.181684   -0.264192
     12          1           0       -2.110556   -0.563432   -0.264303
     13          1           0       -1.834992    1.185437   -0.265011
     14          1           0       -1.501663    0.237443    1.191251
 ---------------------------------------------------------------------

 SCF Done:  E(RB3LYP) =  -158.472761220     A.U. after    1 cycles

 The electronic state is 1-A.
 Alpha  occ. eigenvalues --  -10.18513 -10.16864 -10.16864 -10.16862  -0.79513
 Alpha  occ. eigenvalues --   -0.67650  -0.67649  -0.55453  -0.45640  -0.42455
 Alpha  occ. eigenvalues --   -0.42452  -0.37788  -0.37785  -0.35811  -0.32243
 Alpha  occ. eigenvalues --   -0.32242  -0.31678
 Alpha virt. eigenvalues --    0.08599   0.13758   0.15454   0.15456   0.15854
 Alpha virt. eigenvalues --    0.15855   0.17585   0.19680   0.19682   0.22620
 Alpha virt. eigenvalues --    0.22679   0.25888   0.25893   0.51000   0.51005

 Mulliken charges:
               1
     1  C   -0.302993
     2  C   -0.051954
     3  C   -0.302977
     4  C   -0.303040
     5  H    0.096947
     6  H    0.096939
     7  H    0.097704
     8  H    0.086187
     9  H    0.096942
    10  H    0.097699
    11  H    0.096942
    12  H    0.096940
    13  H    0.096954
    14  H    0.097712
 Sum of Mulliken charges =   0.00000

 Dipole moment (field-independent basis, Debye):
    X=             -0.0002    Y=              0.0000    Z=             -0.0762  Tot=              0.0762
 Quadrupole moment (field-independent basis, Debye-Ang):
   XX=            -28.4168   YY=            -28.4169   ZZ=            -27.9856
   XY=              0.0000   XZ=             -0.0003   YZ=              0.0003

  Exact polarizability:  46.227   0.000  46.228   0.000   0.000  41.354
 Approx polarizability:  58.531   0.000  58.531  -0.001   0.001  58.994

                      1                      2                      3
                      A                      A                      A
 Frequencies --    216.3864               259.9689               260.8990
 Red. masses --      1.0126                 1.0593                 1.0648
 Frc consts  --      0.0279                 0.0422                 0.0427
 IR Inten    --      0.0000                 0.0180                 0.0182

                      4                      5                      6
                      A                      A                      A
 Frequencies --    363.0947               367.1723               430.7637
 Red. masses --      2.0698                 2.0579                 1.9235
 Frc consts  --      0.1608                 0.1635                 0.2103
 IR Inten    --      0.0024                 0.0034                 0.2881

                      7                      8                      9
                      A                      A                      A
 Frequencies --    799.7043               927.7421               929.1678
 Red. masses --      2.8140                 1.2191                 1.2203
 Frc consts  --      1.0603                 0.6182                 0.6207
 IR Inten    --      0.5659                 1.3100                 1.3081

                     10                     11                     12
                      A                      A                      A
 Frequencies --    959.7894               975.6127               977.3310
 Red. masses --      1.2016                 1.7681                 1.7718
 Frc consts  --      0.6522                 0.9915                 0.9971
 IR Inten    --      0.0017                 0.0446                 0.0455

                     13                     14                     15
                      A                      A                      A
 Frequencies --   1197.5385              1198.1716              1216.4600
 Red. masses --      1.7236                 1.7160                 1.9169
 Frc consts  --      1.4563                 1.4515                 1.6713
 IR Inten    --      2.4633                 2.4524                 0.3396

                     16                     17                     18
                      A                      A                      A
 Frequencies --   1366.0237              1366.2212              1415.2351
 Red. masses --      1.3850                 1.3872                 1.2725
 Frc consts  --      1.5227                 1.5256                 1.5017
 IR Inten    --      4.5321                 4.5341                 4.4828

                     19                     20                     21
                      A                      A                      A
 Frequencies --   1416.2337              1443.5599              1496.7534
 Red. masses --      1.2719                 1.2314                 1.0487
 Frc consts  --      1.5031                 1.5118                 1.3842
 IR Inten    --      4.3698                 2.1872                 0.0016

                     22                     23                     24
                      A                      A                      A
 Frequencies --   1502.8607              1503.2754              1521.8811
 Red. masses --      1.0407                 1.0408                 1.0591
 Frc consts  --      1.3849                 1.3858                 1.4453
 IR Inten    --      0.3805                 0.4094                 2.4372

                     25                     26                     27
                      A                      A                      A
 Frequencies --   1522.1546              1529.2320              3011.9861
 Red. masses --      1.0594                 1.0445                 1.0838
 Frc consts  --      1.4461                 1.4392                 5.7932
 IR Inten    --      2.3633                12.6064                17.2778

                     28                     29                     30
                      A                      A                      A
 Frequencies --   3028.6466              3029.0070              3036.4766
 Red. masses --      1.0355                 1.0355                 1.0367
 Frc consts  --      5.5963                 5.5976                 5.6319
 IR Inten    --     33.7305                33.7359                13.4499

                     31                     32                     33
                      A                      A                      A
 Frequencies --   3095.3913              3095.5819              3104.1536
 Red. masses --      1.1016                 1.1016                 1.1033
 Frc consts  --      6.2187                 6.2197                 6.2635
 IR Inten    --      6.0790                 5.4637                 1.1924

                     34                     35                     36
                      A                      A                      A
 Frequencies --   3104.8880              3108.3635              3108.8411
 Red. masses --      1.1005                 1.1021                 1.1021
 Frc consts  --      6.2505                 6.2737                 6.2757
 IR Inten    --    102.1580                59.3039                58.7831

 - Thermochemistry -
 -------------------
 Temperature   298.150 Kelvin.  Pressure   1.00000 Atm.
 Atom     1 has atomic number  6 and mass  12.00000

 Molecular mass:    58.07825 amu.
 Principal axes and moments of inertia in atomic units:
                           1         2         3
     Eigenvalues --   233.09332 233.10851 402.68388
           X            0.99968   0.02530   0.00000
           Y           -0.02530   0.99968   0.00001
           Z            0.00000  -0.00001   1.00000
 This molecule is an asymmetric top.
 Rotational symmetry number  1.
 Rotational temperatures (Kelvin)      0.37158     0.37156     0.21509
 Rotational constants (GHZ):           7.74257     7.74206     4.48178
 Zero-point vibrational energy     346238.6 (Joules/Mol)
                                   82.75300 (Kcal/Mol)
 Warning -- explicit consideration of   6 degrees of freedom as
           vibrations may cause significant error
 Vibrational temperatures:    311.33   374.04   375.38   522.41   528.28
          (Kelvin)            619.77  1150.59  1334.81  1336.86  1380.92
                             1403.69  1406.16  1722.99  1723.90  1750.21
                             1965.40  1965.69  2036.21  2037.64  2076.96
                             2153.49  2162.28  2162.88  2189.64  2190.04
                             2200.22  4333.57  4357.54  4358.06  4368.81
                             4453.57  4453.85  4466.18  4467.24  4472.24
                             4472.92

 Zero-point correction=                           0.131875 (Hartree/Particle)
 Thermal correction to Energy=                    0.137572
 Thermal correction to Enthalpy=                  0.138516
 Thermal correction to Gibbs Free Energy=         0.104254
 Sum of electronic and zero-point Energies=           -158.340886
 Sum of electronic and thermal Energies=              -158.335190
 Sum of electronic and thermal Enthalpies=            -158.334245
 Sum of electronic and thermal Free Energies=         -158.368507

                     E (Thermal)             CV                S
                      KCal/Mol        Cal/Mol-Kelvin    Cal/Mol-Kelvin
 Total                   86.327             20.134             72.109
 Electronic               0.000              0.000              0.000
 Translational            0.889              2.981             38.098
 Rotational               0.889              2.981             24.596
 Vibrational             84.550             14.172              9.415
 Vibration     1          0.645              1.816              1.989
 Vibration     2          0.668              1.746              1.662
 Vibration     3          0.669              1.744              1.656
 Vibration     4          0.737              1.548              1.109
 Vibration     5          0.740              1.540              1.092
 Vibration     6          0.792              1.403              0.856

 Normal termination of Gaussian 09 at Fri Jul 23 08:50:36 2021.
