 Gaussian 09, Revision E.01,
 Gaussian 09:  ES64L-G09RevE.01 30-Nov-2015

 ----------------------------
 #P OPT Freq B3LYP/6-31G(d,p)
 ----------------------------

 --------
 Frag_779
 --------
 Symbolic Z-matrix:
 Charge =  0 Multiplicity = 1

 SCF Done:  E(RB3LYP) =  -228.551361541     A.U. after   14 cycles
 SCF Done:  E(RB3LYP) =  -228.551426764     A.U. after   11 cycles
 SCF Done:  E(RB3LYP) =  -228.551432384     A.U. after   11 cycles
 SCF Done:  E(RB3LYP) =  -228.551437736     A.U. after    8 cycles
 Optimization completed.
    -- Stationary point found.
 Normal termination of Gaussian 09 at Thu Sep  8 15:02:31 2022.

 ----------------------------------------------------------------------
 #P Geom=AllCheck Guess=TCheck SCRF=Check GenChk RB3LYP/6-31G(d,p) Freq
 ----------------------------------------------------------------------

 Structure from the checkpoint file:  "B3LYP6-31Gdp.Frag_779.chk"
 --------
 Frag_779
 --------
 Charge =  0 Multiplicity = 1

                         Standard orientation:
 ---------------------------------------------------------------------
 Center     Atomic      Atomic             Coordinates (Angstroms)
 Number     Number       Type             X           Y           Z
 ---------------------------------------------------------------------
      1          6           0       -1.691332   -0.702752    0.000027
      2          7           0       -0.493883   -0.133173   -0.000017
      3          6           0       -0.466433    1.352970   -0.000006
      4          7           0        0.612525   -0.846157   -0.000048
      5          6           0        1.851408   -0.095381    0.000025
      6          1           0       -2.572053   -0.083365    0.000017
      7          1           0       -1.730007   -1.781057    0.000038
      8          1           0        0.060196    1.703449    0.888677
      9          1           0       -1.484174    1.736314    0.000021
     10          1           0        0.060156    1.703461   -0.888709
     11          1           0        2.009853    0.542292   -0.888262
     12          1           0        2.653858   -0.836971   -0.000012
     13          1           0        2.009819    0.542168    0.888408
 ---------------------------------------------------------------------

 SCF Done:  E(RB3LYP) =  -228.551437736     A.U. after    1 cycles

 The electronic state is 1-A.
 Alpha  occ. eigenvalues --  -14.44625 -14.30593 -10.23697 -10.19528 -10.19107
 Alpha  occ. eigenvalues --   -1.02500  -0.81824  -0.74382  -0.67380  -0.56477
 Alpha  occ. eigenvalues --   -0.50630  -0.48707  -0.48287  -0.42536  -0.40439
 Alpha  occ. eigenvalues --   -0.39698  -0.37938  -0.36007  -0.24437  -0.16800
 Alpha virt. eigenvalues --   -0.00324   0.08286   0.10096   0.12517   0.13705
 Alpha virt. eigenvalues --    0.15717   0.16713   0.18027   0.20834   0.22999
 Alpha virt. eigenvalues --    0.23619   0.29620   0.36039   0.48859   0.49508

 Mulliken charges:
               1
     1  C   -0.137493
     2  N   -0.087405
     3  C   -0.190943
     4  N   -0.342017
     5  C   -0.180397
     6  H    0.100564
     7  H    0.121290
     8  H    0.149077
     9  H    0.128296
    10  H    0.149077
    11  H    0.083642
    12  H    0.122664
    13  H    0.083645
 Sum of Mulliken charges =   0.00000

 Dipole moment (field-independent basis, Debye):
    X=             -0.7200    Y=              3.0160    Z=              0.0001  Tot=              3.1008
 Quadrupole moment (field-independent basis, Debye-Ang):
   XX=            -29.2836   YY=            -31.7478   ZZ=            -33.0591
   XY=              0.2383   XZ=              0.0001   YZ=             -0.0002

  Exact polarizability:  80.388   4.003  46.832  -0.001  -0.000  30.759
 Approx polarizability: 146.672   3.791  63.784  -0.003   0.000  43.625

                      1                      2                      3
                      A                      A                      A
 Frequencies --     71.0940               184.6833               262.0993
 Red. masses --      2.0220                 1.2682                 1.0986
 Frc consts  --      0.0060                 0.0255                 0.0445
 IR Inten    --      1.0046                 2.7033                 1.3841

                      4                      5                      6
                      A                      A                      A
 Frequencies --    357.8570               475.4748               511.7203
 Red. masses --      2.6188                 1.4164                 2.3730
 Frc consts  --      0.1976                 0.1887                 0.3661
 IR Inten    --      0.2926                18.0791                 0.5174

                      7                      8                      9
                      A                      A                      A
 Frequencies --    541.7196               574.8229               698.1096
 Red. masses --      1.4810                 3.1255                 1.5014
 Frc consts  --      0.2561                 0.6085                 0.4311
 IR Inten    --     33.4456                 6.3391                36.3344

                     10                     11                     12
                      A                      A                      A
 Frequencies --    828.9748               981.2079              1097.1732
 Red. masses --      4.2616                 2.2615                 1.2943
 Frc consts  --      1.7255                 1.2828                 0.9180
 IR Inten    --      4.9854                17.7472                 0.1150

                     13                     14                     15
                      A                      A                      A
 Frequencies --   1101.0673              1137.3315              1151.0843
 Red. masses --      1.3605                 1.4015                 1.5628
 Frc consts  --      0.9718                 1.0681                 1.2200
 IR Inten    --     19.2320                 0.1680                18.4922

                     16                     17                     18
                      A                      A                      A
 Frequencies --   1203.9433              1350.5064              1433.1151
 Red. masses --      2.7497                 3.2925                 1.1705
 Frc consts  --      2.3482                 3.5380                 1.4164
 IR Inten    --     50.6167                85.6459                13.7913

                     19                     20                     21
                      A                      A                      A
 Frequencies --   1453.8293              1481.2207              1485.4450
 Red. masses --      1.2651                 1.2043                 1.0449
 Frc consts  --      1.5755                 1.5568                 1.3584
 IR Inten    --     90.2451                 9.0852                 2.6433

                     22                     23                     24
                      A                      A                      A
 Frequencies --   1498.0932              1520.0842              1520.5957
 Red. masses --      1.0571                 1.0451                 1.0954
 Frc consts  --      1.3978                 1.4228                 1.4923
 IR Inten    --     21.0223                11.5950                 3.5272

                     25                     26                     27
                      A                      A                      A
 Frequencies --   1618.9353              2934.9439              2968.0004
 Red. masses --      4.1192                 1.0429                 1.1014
 Frc consts  --      6.3609                 5.2927                 5.7166
 IR Inten    --    174.9647               127.1846                80.8319

                     28                     29                     30
                      A                      A                      A
 Frequencies --   3087.0828              3118.4219              3166.4568
 Red. masses --      1.0322                 1.0898                 1.1051
 Frc consts  --      5.7956                 6.2440                 6.5284
 IR Inten    --      8.6833                27.7552                 7.9032

                     31                     32                     33
                      A                      A                      A
 Frequencies --   3193.4611              3223.1132              3350.7528
 Red. masses --      1.1054                 1.0508                 1.1256
 Frc consts  --      6.6420                 6.4317                 7.4459
 IR Inten    --      6.6728                 2.7910                 1.5988

 - Thermochemistry -
 -------------------
 Temperature   298.150 Kelvin.  Pressure   1.00000 Atm.
 Atom     1 has atomic number  6 and mass  12.00000

 Molecular mass:    72.06875 amu.
 Principal axes and moments of inertia in atomic units:
                           1         2         3
     Eigenvalues --   195.21136 418.07638 590.55765
           X            0.99989   0.01483   0.00000
           Y           -0.01483   0.99989  -0.00000
           Z           -0.00000   0.00000   1.00000
 This molecule is an asymmetric top.
 Rotational symmetry number  1.
 Rotational temperatures (Kelvin)      0.44369     0.20717     0.14666
 Rotational constants (GHZ):           9.24506     4.31677     3.05599
 Zero-point vibrational energy     296568.7 (Joules/Mol)
                                   70.88163 (Kcal/Mol)
 Warning -- explicit consideration of   8 degrees of freedom as
           vibrations may cause significant error
 Vibrational temperatures:    102.29   265.72   377.10   514.88   684.10
          (Kelvin)            736.25   779.41   827.04  1004.42  1192.71
                             1411.74  1578.59  1584.19  1636.36  1656.15
                             1732.20  1943.08  2061.93  2091.73  2131.14
                             2137.22  2155.42  2187.06  2187.80  2329.28
                             4222.72  4270.29  4441.62  4486.71  4555.82
                             4594.67  4637.34  4820.98

 Zero-point correction=                           0.112957 (Hartree/Particle)
 Thermal correction to Energy=                    0.119197
 Thermal correction to Enthalpy=                  0.120142
 Thermal correction to Gibbs Free Energy=         0.083701
 Sum of electronic and zero-point Energies=           -228.438481
 Sum of electronic and thermal Energies=              -228.432240
 Sum of electronic and thermal Enthalpies=            -228.431296
 Sum of electronic and thermal Free Energies=         -228.467737

                     E (Thermal)             CV                S
                      KCal/Mol        Cal/Mol-Kelvin    Cal/Mol-Kelvin
 Total                   74.798             21.683             76.695
 Electronic               0.000              0.000              0.000
 Translational            0.889              2.981             38.742
 Rotational               0.889              2.981             25.381
 Vibrational             73.020             15.721             12.573
 Vibration     1          0.598              1.968              4.123
 Vibration     2          0.631              1.861              2.281
 Vibration     3          0.669              1.742              1.648
 Vibration     4          0.733              1.559              1.131
 Vibration     5          0.832              1.304              0.722
 Vibration     6          0.867              1.224              0.629
 Vibration     7          0.897              1.158              0.562
 Vibration     8          0.931              1.086              0.495

 Optimization completed.
    -- Stationary point found.
 Normal termination of Gaussian 09 at Thu Sep  8 15:02:41 2022.
