 Gaussian 09, Revision E.01,
 Gaussian 09:  ES64L-G09RevE.01 30-Nov-2015

 ----------------------------
 #P OPT Freq B3LYP/6-31G(d,p)
 ----------------------------

 --------
 Frag_772
 --------
 Symbolic Z-matrix:
 Charge =  0 Multiplicity = 1

 SCF Done:  E(RB3LYP) =  -153.485378900     A.U. after   11 cycles
 SCF Done:  E(RB3LYP) =  -153.485574717     A.U. after   10 cycles
 SCF Done:  E(RB3LYP) =  -153.485576664     A.U. after    7 cycles
 Optimization completed.
    -- Stationary point found.
 Normal termination of Gaussian 09 at Thu Sep  8 15:02:21 2022.

 ----------------------------------------------------------------------
 #P Geom=AllCheck Guess=TCheck SCRF=Check GenChk RB3LYP/6-31G(d,p) Freq
 ----------------------------------------------------------------------

 Structure from the checkpoint file:  "B3LYP6-31Gdp.Frag_772.chk"
 --------
 Frag_772
 --------
 Charge =  0 Multiplicity = 1

                         Standard orientation:
 ---------------------------------------------------------------------
 Center     Atomic      Atomic             Coordinates (Angstroms)
 Number     Number       Type             X           Y           Z
 ---------------------------------------------------------------------
      1          6           0       -0.000000    0.000000    1.896811
      2          6           0       -0.000000    0.000000    0.684330
      3          6           0        0.000000   -0.000000   -0.684330
      4          6           0        0.000000   -0.000000   -1.896811
      5          1           0       -0.000000    0.000000    2.962237
      6          1           0        0.000000   -0.000000   -2.962237
 ---------------------------------------------------------------------

 SCF Done:  E(RB3LYP) =  -153.485576664     A.U. after    1 cycles

 The electronic state is 1-SGG.
 Alpha  occ. eigenvalues --  -10.21549 -10.21488 -10.20766 -10.20765  -0.79860
 Alpha  occ. eigenvalues --   -0.74132  -0.62827  -0.53621  -0.51131  -0.35049
 Alpha  occ. eigenvalues --   -0.35049  -0.25828  -0.25828
 Alpha virt. eigenvalues --   -0.02149  -0.02149   0.10737   0.11838   0.16258
 Alpha virt. eigenvalues --    0.16258   0.26767   0.41624   0.43032   0.43848
 Alpha virt. eigenvalues --    0.50328   0.50328   0.56030   0.56030   0.66824

 Mulliken charges:
               1
     1  C   -0.868373
     2  C    0.667988
     3  C    0.667988
     4  C   -0.868373
     5  H    0.200384
     6  H    0.200384
 Sum of Mulliken charges =  -0.00000

 Dipole moment (field-independent basis, Debye):
    X=             -0.0000    Y=              0.0000    Z=              0.0000  Tot=              0.0000
 Quadrupole moment (field-independent basis, Debye-Ang):
   XX=            -23.7011   YY=            -23.7011   ZZ=            -11.4577
   XY=              0.0000   XZ=             -0.0000   YZ=              0.0000

  Exact polarizability:  13.569   0.000  13.569   0.000  -0.000  80.433
 Approx polarizability:  17.539  -0.000  17.539  -0.000   0.000 173.473

                      1                      2                      3
                     PIU                    PIU                    PIU
 Frequencies --    272.8150               272.8150               617.6795
 Red. masses --      3.5312                 3.5312                 1.3232
 Frc consts  --      0.1548                 0.1548                 0.2974
 IR Inten    --      5.1404                 5.1404                95.3555

                      4                      5                      6
                     PIU                    PIG                    PIG
 Frequencies --    617.6795               619.5839               619.5839
 Red. masses --      1.3232                 1.2484                 1.2484
 Frc consts  --      0.2974                 0.2824                 0.2824
 IR Inten    --     95.3555                 0.0000                 0.0000

                      7                      8                      9
                     PIG                    PIG                    SGG
 Frequencies --    739.6728               739.6728               924.8847
 Red. masses --      7.4022                 7.4022                 6.9871
 Frc consts  --      2.3861                 2.3861                 3.5214
 IR Inten    --      0.0000                 0.0000                 0.0000

                     10                     11                     12
                     SGU                    SGG                    SGG
 Frequencies --   2126.8134              2300.6012              3488.9387
 Red. masses --      5.7476                 6.7477                 1.1526
 Frc consts  --     15.3177                21.0421                 8.2666
 IR Inten    --      0.6428                 0.0000                 0.0000

                     13
                     SGU
 Frequencies --   3491.0187
 Red. masses --      1.1561
 Frc consts  --      8.3016
 IR Inten    --    181.1282

 - Thermochemistry -
 -------------------
 Temperature   298.150 Kelvin.  Pressure   1.00000 Atm.
 Atom     1 has atomic number  6 and mass  12.00000

 Molecular mass:    50.01565 amu.
 Principal axes and moments of inertia in atomic units:
                           1         2         3
     Eigenvalues --     0.00000 411.65727 411.65727
           X           -0.00000   0.99667   0.08155
           Y            0.00000  -0.08155   0.99667
           Z            1.00000   0.00000   0.00000
 This molecule is a prolate symmetric top.
 Rotational symmetry number  2.
 Rotational temperature (Kelvin)      0.21040
 Rotational constant (GHZ):           4.384087
 Zero-point vibrational energy     100676.3 (Joules/Mol)
                                   24.06221 (Kcal/Mol)
 Warning -- explicit consideration of   6 degrees of freedom as
           vibrations may cause significant error
 Vibrational temperatures:    392.52   392.52   888.70   888.70   891.44
          (Kelvin)            891.44  1064.22  1064.22  1330.70  3060.01
                             3310.05  5019.80  5022.79

 Zero-point correction=                           0.038346 (Hartree/Particle)
 Thermal correction to Energy=                    0.042462
 Thermal correction to Enthalpy=                  0.043406
 Thermal correction to Gibbs Free Energy=         0.015769
 Sum of electronic and zero-point Energies=           -153.447231
 Sum of electronic and thermal Energies=              -153.443115
 Sum of electronic and thermal Enthalpies=            -153.442171
 Sum of electronic and thermal Free Energies=         -153.469808

                     E (Thermal)             CV                S
                      KCal/Mol        Cal/Mol-Kelvin    Cal/Mol-Kelvin
 Total                   26.645             14.374             58.166
 Electronic               0.000              0.000              0.000
 Translational            0.889              2.981             37.653
 Rotational               0.592              1.987             15.030
 Vibrational             25.164              9.406              5.484
 Vibration     1          0.676              1.723              1.578
 Vibration     2          0.676              1.723              1.578
 Vibration     3          0.977              0.995              0.420
 Vibration     4          0.977              0.995              0.420
 Vibration     5          0.980              0.991              0.417
 Vibration     6          0.980              0.991              0.417

 Optimization completed.
    -- Stationary point found.
 Normal termination of Gaussian 09 at Thu Sep  8 15:02:26 2022.
