 Gaussian 09, Revision E.01,
 Gaussian 09:  ES64L-G09RevE.01 30-Nov-2015

 -------------------------
 #P OPT Freq B3LYP/6-31G**
 -------------------------

 --------
 Frag_226
 --------
 Symbolic Z-matrix:
 Charge =  0 Multiplicity = 1

 SCF Done:  E(RB3LYP) =  -337.174959359     A.U. after   17 cycles
 SCF Done:  E(RB3LYP) =  -337.200404435     A.U. after   14 cycles
 SCF Done:  E(RB3LYP) =  -337.207022814     A.U. after   14 cycles
 SCF Done:  E(RB3LYP) =  -337.208566393     A.U. after   13 cycles
 SCF Done:  E(RB3LYP) =  -337.208955317     A.U. after   12 cycles
 SCF Done:  E(RB3LYP) =  -337.209119925     A.U. after   11 cycles
 SCF Done:  E(RB3LYP) =  -337.209222201     A.U. after   11 cycles
 SCF Done:  E(RB3LYP) =  -337.209265729     A.U. after   11 cycles
 SCF Done:  E(RB3LYP) =  -337.209272592     A.U. after    9 cycles
 SCF Done:  E(RB3LYP) =  -337.209273442     A.U. after    8 cycles
 Optimization completed.
    -- Stationary point found.
 Normal termination of Gaussian 09 at Sat Aug 21 01:36:25 2021.

 ----------------------------------------------------------------------
 #P Geom=AllCheck Guess=TCheck SCRF=Check GenChk RB3LYP/6-31G(d,p) Freq
 ----------------------------------------------------------------------

 Structure from the checkpoint file:  "/public/home/users/caep010/.cache/gau_scr/Gau-97489.chk"
 --------
 Frag_226
 --------
 Charge =  0 Multiplicity = 1

                         Standard orientation:
 ---------------------------------------------------------------------
 Center     Atomic      Atomic             Coordinates (Angstroms)
 Number     Number       Type             X           Y           Z
 ---------------------------------------------------------------------
      1          8           0        1.974506   -0.040847    0.000007
      2          7           0        0.764547    0.095194    0.000047
      3          6           0       -0.080875    1.122395   -0.000065
      4          6           0       -1.389054    0.591824    0.000083
      5          7           0       -1.383384   -0.717742   -0.000060
      6          8           0       -0.076435   -1.108460   -0.000003
      7          1           0        0.290860    2.132850   -0.000151
      8          1           0       -2.324000    1.134123    0.000097
 ---------------------------------------------------------------------

 SCF Done:  E(RB3LYP) =  -337.209273442     A.U. after    1 cycles

 The electronic state is 1-A.
 Alpha  occ. eigenvalues --  -19.27435 -19.18919 -14.55601 -14.41884 -10.26638
 Alpha  occ. eigenvalues --  -10.26326  -1.22086  -1.12642  -0.90288  -0.88084
 Alpha  occ. eigenvalues --   -0.68113  -0.65161  -0.55928  -0.53941  -0.50587
 Alpha  occ. eigenvalues --   -0.49938  -0.42990  -0.42691  -0.37642  -0.33417
 Alpha  occ. eigenvalues --   -0.29762  -0.25543
 Alpha virt. eigenvalues --   -0.06328   0.02091   0.02613   0.09827   0.11981
 Alpha virt. eigenvalues --    0.12905   0.18021   0.27273   0.33763   0.37901
 Alpha virt. eigenvalues --    0.49658   0.50397   0.55283   0.57594   0.57717

 Mulliken charges:
               1
     1  O   -0.438623
     2  N    0.332563
     3  C    0.079932
     4  C    0.071330
     5  N   -0.119231
     6  O   -0.236524
     7  H    0.163067
     8  H    0.147485
 Sum of Mulliken charges =   0.00000

 Dipole moment (field-independent basis, Debye):
    X=             -1.8620    Y=              3.3160    Z=              0.0001  Tot=              3.8030
 Quadrupole moment (field-independent basis, Debye-Ang):
   XX=            -36.2337   YY=            -30.6569   ZZ=            -33.0921
   XY=             -2.5764   XZ=             -0.0003   YZ=             -0.0002

  Exact polarizability:  58.285  -1.859  40.739  -0.000  -0.000  17.071
 Approx polarizability: 128.365  -0.666  78.345   0.002   0.001  25.520

                      1                      2                      3
                      A                      A                      A
 Frequencies --    303.2265               445.4709               600.9350
 Red. masses --      7.5997                12.2491                10.0371
 Frc consts  --      0.4117                 1.4322                 2.1356
 IR Inten    --      0.6466                 6.3143                 0.1389

                      4                      5                      6
                      A                      A                      A
 Frequencies --    608.5783               653.4734               746.6740
 Red. masses --      7.1767                 3.6652                 1.3657
 Frc consts  --      1.5661                 0.9221                 0.4486
 IR Inten    --      9.9082                 0.4988                44.8042

                      7                      8                      9
                      A                      A                      A
 Frequencies --    780.5129               881.5416               917.6098
 Red. masses --     10.3865                 1.2557                 6.0619
 Frc consts  --      3.7280                 0.5749                 3.0073
 IR Inten    --     33.3889                 7.9878                35.0958

                     10                     11                     12
                      A                      A                      A
 Frequencies --   1025.1224              1076.5201              1189.2310
 Red. masses --     11.0095                 1.4381                 2.0858
 Frc consts  --      6.8166                 0.9819                 1.7380
 IR Inten    --     22.9718                 3.1604                22.0172

                     13                     14                     15
                      A                      A                      A
 Frequencies --   1282.3173              1424.8272              1551.9924
 Red. masses --      2.6055                 3.2540                 5.4779
 Frc consts  --      2.5242                 3.8922                 7.7739
 IR Inten    --      0.9117                 7.4154                29.3549

                     16                     17                     18
                      A                      A                      A
 Frequencies --   1729.2302              3273.3036              3319.8686
 Red. masses --     12.8477                 1.0967                 1.0994
 Frc consts  --     22.6351                 6.9234                 7.1389
 IR Inten    --    402.2060                 0.1856                10.0589

 - Thermochemistry -
 -------------------
 Temperature   298.150 Kelvin.  Pressure   1.00000 Atm.
 Atom     1 has atomic number  8 and mass  15.99491

 Molecular mass:    86.01163 amu.
 Principal axes and moments of inertia in atomic units:
                           1         2         3
     Eigenvalues --   185.84225 450.69766 636.53991
           X            0.99961  -0.02803  -0.00000
           Y            0.02803   0.99961  -0.00000
           Z            0.00000   0.00000   1.00000
 This molecule is an asymmetric top.
 Rotational symmetry number  1.
 Rotational temperatures (Kelvin)      0.46606     0.19218     0.13607
 Rotational constants (GHZ):           9.71115     4.00433     2.83524
 Zero-point vibrational energy     130455.4 (Joules/Mol)
                                   31.17958 (Kcal/Mol)
 Warning -- explicit consideration of   4 degrees of freedom as
           vibrations may cause significant error
 Vibrational temperatures:    436.27   640.93   864.61   875.61   940.20
          (Kelvin)           1074.30  1122.98  1268.34  1320.23  1474.92
                             1548.87  1711.04  1844.97  2050.01  2232.97
                             2487.97  4709.55  4776.54

 Zero-point correction=                           0.049688 (Hartree/Particle)
 Thermal correction to Energy=                    0.054042
 Thermal correction to Enthalpy=                  0.054987
 Thermal correction to Gibbs Free Energy=         0.022097
 Sum of electronic and zero-point Energies=           -337.159586
 Sum of electronic and thermal Energies=              -337.155231
 Sum of electronic and thermal Enthalpies=            -337.154287
 Sum of electronic and thermal Free Energies=         -337.187177

                     E (Thermal)             CV                S
                      KCal/Mol        Cal/Mol-Kelvin    Cal/Mol-Kelvin
 Total                   33.912             15.605             69.223
 Electronic               0.000              0.000              0.000
 Translational            0.889              2.981             39.269
 Rotational               0.889              2.981             25.481
 Vibrational             32.135              9.644              4.473
 Vibration     1          0.695              1.668              1.399
 Vibration     2          0.805              1.371              0.810
 Vibration     3          0.959              1.030              0.448
 Vibration     4          0.967              1.014              0.435

 Optimization completed.
    -- Stationary point found.
 Normal termination of Gaussian 09 at Sat Aug 21 01:36:32 2021.
