 Gaussian 09, Revision E.01,
 Gaussian 09:  ES64L-G09RevE.01 30-Nov-2015

 --------------------------------
 #P OPT=calcfc Freq B3LYP/6-31G**
 --------------------------------

 --------
 Frag_423
 --------
 Symbolic Z-matrix:
 Charge =  0 Multiplicity = 1

 SCF Done:  E(RB3LYP) =  -229.837260475     A.U. after   12 cycles
 SCF Done:  E(RB3LYP) =  -229.843815574     A.U. after   13 cycles
 SCF Done:  E(RB3LYP) =  -229.843578479     A.U. after   12 cycles
 SCF Done:  E(RB3LYP) =  -229.844065393     A.U. after   10 cycles
 SCF Done:  E(RB3LYP) =  -229.844331532     A.U. after   10 cycles
 SCF Done:  E(RB3LYP) =  -229.844349423     A.U. after    9 cycles
 SCF Done:  E(RB3LYP) =  -229.844352702     A.U. after    9 cycles
 SCF Done:  E(RB3LYP) =  -229.844369396     A.U. after   10 cycles
 SCF Done:  E(RB3LYP) =  -229.780814427     A.U. after   12 cycles
 SCF Done:  E(RB3LYP) =  -229.844370802     A.U. after    7 cycles
 SCF Done:  E(RB3LYP) =  -229.848049235     A.U. after   11 cycles
 SCF Done:  E(RB3LYP) =  -229.851108686     A.U. after    8 cycles
 SCF Done:  E(RB3LYP) =  -229.849849173     A.U. after   12 cycles
 SCF Done:  E(RB3LYP) =  -229.851144852     A.U. after    9 cycles
 SCF Done:  E(RB3LYP) =  -229.850636530     A.U. after   12 cycles
 SCF Done:  E(RB3LYP) =  -229.851075752     A.U. after   12 cycles
 SCF Done:  E(RB3LYP) =  -229.851233639     A.U. after    7 cycles
 SCF Done:  E(RB3LYP) =  -229.851281127     A.U. after   10 cycles
 SCF Done:  E(RB3LYP) =  -229.851282604     A.U. after    7 cycles
 Optimization completed.
    -- Stationary point found.
 Normal termination of Gaussian 09 at Fri Sep 10 15:39:42 2021.

 ----------------------------------------------------------------------
 #P Geom=AllCheck Guess=TCheck SCRF=Check GenChk RB3LYP/6-31G(d,p) Freq
 ----------------------------------------------------------------------

 Structure from the checkpoint file:  "/public/home/users/caep010/.cache/gau_scr/Gau-3081.chk"
 --------
 Frag_423
 --------
 Charge =  0 Multiplicity = 1

                         Standard orientation:
 ---------------------------------------------------------------------
 Center     Atomic      Atomic             Coordinates (Angstroms)
 Number     Number       Type             X           Y           Z
 ---------------------------------------------------------------------
      1          6           0        1.760287   -0.718687   -0.002621
      2          6           0        0.455668    0.019887   -0.332724
      3          7           0        0.430862    1.427560    0.100799
      4          6           0       -0.770476   -0.690358    0.276117
      5          7           0       -2.067061   -0.094643   -0.039190
      6          1           0        1.916063   -0.765041    1.082528
      7          1           0        1.748983   -1.747587   -0.380687
      8          1           0        2.625249   -0.210258   -0.442628
      9          1           0        0.325019    0.030997   -1.424729
     10          1           0        1.142179    1.959681   -0.395495
     11          1           0        0.680800    1.478616    1.088403
     12          1           0       -0.776108   -1.740880   -0.038146
     13          1           0       -0.653398   -0.699017    1.370586
     14          1           0       -1.974659    0.911701    0.098000
     15          1           0       -2.253604   -0.213681   -1.033729
 ---------------------------------------------------------------------

 SCF Done:  E(RB3LYP) =  -229.851282604     A.U. after    1 cycles

 The electronic state is 1-A.
 Alpha  occ. eigenvalues --  -14.31523 -14.29572 -10.21009 -10.19689 -10.17693
 Alpha  occ. eigenvalues --   -0.89378  -0.85215  -0.73714  -0.65529  -0.58007
 Alpha  occ. eigenvalues --   -0.50338  -0.46820  -0.43610  -0.42319  -0.41194
 Alpha  occ. eigenvalues --   -0.37862  -0.37076  -0.34741  -0.33401  -0.24079
 Alpha  occ. eigenvalues --   -0.22181
 Alpha virt. eigenvalues --    0.07220   0.10625   0.12219   0.12878   0.15132
 Alpha virt. eigenvalues --    0.17182   0.17449   0.18041   0.18353   0.21528
 Alpha virt. eigenvalues --    0.24131   0.25803   0.26108   0.27898   0.51993

 Mulliken charges:
               1
     1  C   -0.315563
     2  C    0.038719
     3  N   -0.595877
     4  C   -0.038467
     5  N   -0.596235
     6  H    0.097343
     7  H    0.101848
     8  H    0.094632
     9  H    0.084805
    10  H    0.236882
    11  H    0.232461
    12  H    0.093775
    13  H    0.089476
    14  H    0.249742
    15  H    0.226460
 Sum of Mulliken charges =  -0.00000

 Dipole moment (field-independent basis, Debye):
    X=              2.3561    Y=              0.3650    Z=             -0.6683  Tot=              2.4761
 Quadrupole moment (field-independent basis, Debye-Ang):
   XX=            -36.9637   YY=            -32.6435   ZZ=            -30.7293
   XY=              0.7309   XZ=              2.6590   YZ=              1.0048

  Exact polarizability:  50.900  -0.345  47.986   1.205   0.834  44.532
 Approx polarizability:  62.373  -0.098  64.747   1.345   1.851  64.799

                      1                      2                      3
                      A                      A                      A
 Frequencies --    150.1550               237.7510               252.1799
 Red. masses --      2.1708                 1.1782                 2.0534
 Frc consts  --      0.0288                 0.0392                 0.0769
 IR Inten    --      1.1390                 1.5799                 7.4883

                      4                      5                      6
                      A                      A                      A
 Frequencies --    277.7674               326.7730               368.9538
 Red. masses --      1.0813                 1.1567                 2.3695
 Frc consts  --      0.0492                 0.0728                 0.1900
 IR Inten    --     32.4505                50.8093                 9.4121

                      7                      8                      9
                      A                      A                      A
 Frequencies --    460.2821               501.4141               813.8948
 Red. masses --      1.8703                 2.7404                 2.5103
 Frc consts  --      0.2335                 0.4059                 0.9797
 IR Inten    --      2.9360                12.5091                37.0072

                     10                     11                     12
                      A                      A                      A
 Frequencies --    870.8276               884.2091               934.3381
 Red. masses --      1.4510                 1.4336                 1.4449
 Frc consts  --      0.6483                 0.6604                 0.7432
 IR Inten    --     53.8364                34.3013                74.6107

                     13                     14                     15
                      A                      A                      A
 Frequencies --    959.1185              1024.3748              1078.5555
 Red. masses --      1.4936                 1.5127                 2.4127
 Frc consts  --      0.8095                 0.9352                 1.6536
 IR Inten    --    179.3509                 9.5869                19.9836

                     16                     17                     18
                      A                      A                      A
 Frequencies --   1097.4061              1156.8462              1185.7046
 Red. masses --      1.3228                 1.9855                 1.9949
 Frc consts  --      0.9386                 1.5655                 1.6524
 IR Inten    --      3.8281                21.0803                 2.0764

                     19                     20                     21
                      A                      A                      A
 Frequencies --   1299.6119              1331.8792              1388.8963
 Red. masses --      1.5699                 1.2963                 1.2559
 Frc consts  --      1.5622                 1.3548                 1.4275
 IR Inten    --      2.0637                17.3566                 1.2366

                     22                     23                     24
                      A                      A                      A
 Frequencies --   1408.1592              1411.9086              1422.9598
 Red. masses --      1.2407                 1.3172                 1.2676
 Frc consts  --      1.4496                 1.5471                 1.5122
 IR Inten    --      4.6244                 2.9592                 8.8033

                     25                     26                     27
                      A                      A                      A
 Frequencies --   1497.3969              1508.4547              1512.3324
 Red. masses --      1.0850                 1.0498                 1.0649
 Frc consts  --      1.4334                 1.4074                 1.4350
 IR Inten    --      0.2091                 2.4426                 4.9850

                     28                     29                     30
                      A                      A                      A
 Frequencies --   1663.9843              1683.0020              3005.0014
 Red. masses --      1.0925                 1.0840                 1.0701
 Frc consts  --      1.7822                 1.8090                 5.6934
 IR Inten    --     25.2739                20.1996                12.9154

                     31                     32                     33
                      A                      A                      A
 Frequencies --   3020.9902              3028.5079              3073.3408
 Red. masses --      1.0784                 1.0388                 1.0970
 Frc consts  --      5.7987                 5.6134                 6.1050
 IR Inten    --     42.4974                41.6848                27.1692

                     34                     35                     36
                      A                      A                      A
 Frequencies --   3098.1992              3104.1197              3468.9131
 Red. masses --      1.1014                 1.1024                 1.0503
 Frc consts  --      6.2292                 6.2582                 7.4467
 IR Inten    --     51.3795                38.4030                 0.0677

                     37                     38                     39
                      A                      A                      A
 Frequencies --   3468.9834              3548.5743              3558.8156
 Red. masses --      1.0495                 1.0911                 1.0910
 Frc consts  --      7.4411                 8.0953                 8.1408
 IR Inten    --      5.7354                 2.2660                 0.1135

 - Thermochemistry -
 -------------------
 Temperature   298.150 Kelvin.  Pressure   1.00000 Atm.
 Atom     1 has atomic number  6 and mass  12.00000

 Molecular mass:    74.08440 amu.
 Principal axes and moments of inertia in atomic units:
                           1         2         3
     Eigenvalues --   232.34096 518.38369 677.19122
           X            0.99980  -0.01702   0.01064
           Y            0.01699   0.99985   0.00278
           Z           -0.01069  -0.00260   0.99994
 This molecule is an asymmetric top.
 Rotational symmetry number  1.
 Rotational temperatures (Kelvin)      0.37279     0.16708     0.12790
 Rotational constants (GHZ):           7.76764     3.48148     2.66504
 Zero-point vibrational energy     365366.9 (Joules/Mol)
                                   87.32479 (Kcal/Mol)
 Warning -- explicit consideration of   8 degrees of freedom as
           vibrations may cause significant error
 Vibrational temperatures:    216.04   342.07   362.83   399.64   470.15
          (Kelvin)            530.84   662.24   721.42  1171.01  1252.93
                             1272.18  1344.30  1379.96  1473.85  1551.80
                             1578.92  1664.44  1705.96  1869.85  1916.27
                             1998.31  2026.02  2031.42  2047.32  2154.42
                             2170.33  2175.91  2394.10  2421.46  4323.52
                             4346.53  4357.34  4421.85  4457.61  4466.13
                             4990.99  4991.09  5105.60  5120.34

 Zero-point correction=                           0.139161 (Hartree/Particle)
 Thermal correction to Energy=                    0.145754
 Thermal correction to Enthalpy=                  0.146699
 Thermal correction to Gibbs Free Energy=         0.109891
 Sum of electronic and zero-point Energies=           -229.712122
 Sum of electronic and thermal Energies=              -229.705528
 Sum of electronic and thermal Enthalpies=            -229.704584
 Sum of electronic and thermal Free Energies=         -229.741392

                     E (Thermal)             CV                S
                      KCal/Mol        Cal/Mol-Kelvin    Cal/Mol-Kelvin
 Total                   91.462             23.811             77.469
 Electronic               0.000              0.000              0.000
 Translational            0.889              2.981             38.824
 Rotational               0.889              2.981             25.903
 Vibrational             89.685             17.849             12.742
 Vibration     1          0.618              1.902              2.670
 Vibration     2          0.656              1.783              1.820
 Vibration     3          0.664              1.759              1.715
 Vibration     4          0.679              1.715              1.547
 Vibration     5          0.710              1.622              1.276
 Vibration     6          0.741              1.536              1.084
 Vibration     7          0.818              1.338              0.765
 Vibration     8          0.857              1.247              0.655

 Optimization completed.
    -- Stationary point found.
 Normal termination of Gaussian 09 at Fri Sep 10 15:39:53 2021.
