 Gaussian 09, Revision E.01,
 Gaussian 09:  ES64L-G09RevE.01 30-Nov-2015

 --------------------------------
 #P OPT=calcfc Freq B3LYP/6-31G**
 --------------------------------

 --------
 Frag_215
 --------
 Symbolic Z-matrix:
 Charge =  0 Multiplicity = 1

 SCF Done:  E(RB3LYP) =  -301.391558126     A.U. after   17 cycles
 SCF Done:  E(RB3LYP) =  -301.412853331     A.U. after   14 cycles
 SCF Done:  E(RB3LYP) =  -301.418046353     A.U. after   15 cycles
 SCF Done:  E(RB3LYP) =  -301.416791659     A.U. after   14 cycles
 SCF Done:  E(RB3LYP) =  -301.420335292     A.U. after   12 cycles
 SCF Done:  E(RB3LYP) =  -301.416821781     A.U. after   13 cycles
 SCF Done:  E(RB3LYP) =  -301.421047908     A.U. after    9 cycles
 SCF Done:  E(RB3LYP) =  -301.408962042     A.U. after   13 cycles
 SCF Done:  E(RB3LYP) =  -301.421220034     A.U. after    9 cycles
 SCF Done:  E(RB3LYP) =  -301.421506127     A.U. after   12 cycles
 SCF Done:  E(RB3LYP) =  -301.421528966     A.U. after   11 cycles
 SCF Done:  E(RB3LYP) =  -301.421533010     A.U. after    9 cycles
 Optimization completed.
    -- Stationary point found.
 Normal termination of Gaussian 09 at Sat Aug 21 02:20:31 2021.

 ----------------------------------------------------------------------
 #P Geom=AllCheck Guess=TCheck SCRF=Check GenChk RB3LYP/6-31G(d,p) Freq
 ----------------------------------------------------------------------

 Structure from the checkpoint file:  "/public/home/users/caep010/.cache/gau_scr/Gau-22165.chk"
 --------
 Frag_215
 --------
 Charge =  0 Multiplicity = 1

                         Standard orientation:
 ---------------------------------------------------------------------
 Center     Atomic      Atomic             Coordinates (Angstroms)
 Number     Number       Type             X           Y           Z
 ---------------------------------------------------------------------
      1          8           0       -2.062739    0.005474    0.030324
      2          6           0       -0.845952    0.064969   -0.034372
      3          6           0        0.079576    1.201878   -0.027493
      4          6           0        1.335089    0.706274    0.029232
      5          7           0        1.335115   -0.680887    0.122810
      6          7           0       -0.001754   -1.074641   -0.117879
      7          1           0       -0.225331    2.236660   -0.018177
      8          1           0        2.286901    1.221990    0.020423
      9          1           0        1.990915   -1.161371   -0.489603
     10          1           0       -0.296378   -1.891099    0.406041
 ---------------------------------------------------------------------

 SCF Done:  E(RB3LYP) =  -301.421533010     A.U. after    1 cycles

 The electronic state is 1-A.
 Alpha  occ. eigenvalues --  -19.10281 -14.40922 -14.38859 -10.28086 -10.24855
 Alpha  occ. eigenvalues --  -10.19141  -1.05192  -1.00000  -0.83278  -0.78462
 Alpha  occ. eigenvalues --   -0.62029  -0.59726  -0.55567  -0.49136  -0.45456
 Alpha  occ. eigenvalues --   -0.43265  -0.42113  -0.39974  -0.35347  -0.28858
 Alpha  occ. eigenvalues --   -0.24377  -0.22481
 Alpha virt. eigenvalues --   -0.01865   0.06864   0.07597   0.10809   0.12536
 Alpha virt. eigenvalues --    0.15330   0.16102   0.21687   0.26479   0.31339
 Alpha virt. eigenvalues --    0.38518   0.42262   0.52637   0.52859   0.57946

 Mulliken charges:
               1
     1  O   -0.518747
     2  C    0.549181
     3  C   -0.173498
     4  C    0.112089
     5  N   -0.365587
     6  N   -0.408897
     7  H    0.109845
     8  H    0.126750
     9  H    0.284303
    10  H    0.284560
 Sum of Mulliken charges =  -0.00000

 Dipole moment (field-independent basis, Debye):
    X=              4.7648    Y=             -0.6671    Z=             -0.1686  Tot=              4.8143
 Quadrupole moment (field-independent basis, Debye-Ang):
   XX=            -36.9198   YY=            -27.9974   ZZ=            -35.2968
   XY=              0.0378   XZ=             -2.1235   YZ=             -0.5112

  Exact polarizability:  61.586  -2.955  47.695  -1.084  -0.591  20.733
 Approx polarizability: 112.602 -12.865  73.548  -0.601  -1.308  31.048

                      1                      2                      3
                      A                      A                      A
 Frequencies --    257.7161               465.8595               504.7465
 Red. masses --      5.0366                 4.2103                 2.8808
 Frc consts  --      0.1971                 0.5384                 0.4324
 IR Inten    --      0.3525                10.1796                13.7766

                      4                      5                      6
                      A                      A                      A
 Frequencies --    542.1504               689.3572               719.5269
 Red. masses --      1.4827                 1.7311                 2.9652
 Frc consts  --      0.2568                 0.4847                 0.9045
 IR Inten    --    114.0957               229.7291                50.6117

                      7                      8                      9
                      A                      A                      A
 Frequencies --    751.1791               811.5928               860.5223
 Red. masses --      3.8679                 1.8278                 5.0297
 Frc consts  --      1.2859                 0.7094                 2.1944
 IR Inten    --     71.2503                96.4438                 9.1967

                     10                     11                     12
                      A                      A                      A
 Frequencies --    917.6470               943.5389              1061.1970
 Red. masses --      1.3078                 2.7849                 2.3704
 Frc consts  --      0.6489                 1.4608                 1.5728
 IR Inten    --      6.8489                10.7719                 2.5135

                     13                     14                     15
                      A                      A                      A
 Frequencies --   1101.4497              1188.4358              1232.1442
 Red. masses --      1.3739                 2.4828                 2.1808
 Frc consts  --      0.9820                 2.0661                 1.9507
 IR Inten    --      1.4365                 9.3893                46.4319

                     16                     17                     18
                      A                      A                      A
 Frequencies --   1353.2781              1379.8340              1450.1847
 Red. masses --      1.5519                 1.6627                 1.6531
 Frc consts  --      1.6745                 1.8651                 2.0483
 IR Inten    --     21.1915                 0.5851                15.8175

                     19                     20                     21
                      A                      A                      A
 Frequencies --   1635.7934              1820.8638              3246.7861
 Red. masses --      4.8969                10.8730                 1.0943
 Frc consts  --      7.7201                21.2400                 6.7969
 IR Inten    --     38.6910               445.6594                 2.4574

                     22                     23                     24
                      A                      A                      A
 Frequencies --   3291.8931              3515.7294              3594.2444
 Red. masses --      1.1018                 1.0767                 1.0782
 Frc consts  --      7.0347                 7.8411                 8.2065
 IR Inten    --      0.2451                13.4674                34.9216

 - Thermochemistry -
 -------------------
 Temperature   298.150 Kelvin.  Pressure   1.00000 Atm.
 Atom     1 has atomic number  8 and mass  15.99491

 Molecular mass:    84.03236 amu.
 Principal axes and moments of inertia in atomic units:
                           1         2         3
     Eigenvalues --   208.52501 475.58631 678.01670
           X            0.99994   0.00737  -0.00793
           Y           -0.00740   0.99997  -0.00385
           Z            0.00790   0.00391   0.99996
 This molecule is an asymmetric top.
 Rotational symmetry number  1.
 Rotational temperatures (Kelvin)      0.41536     0.18212     0.12775
 Rotational constants (GHZ):           8.65479     3.79477     2.66179
 Zero-point vibrational energy     199391.6 (Joules/Mol)
                                   47.65573 (Kcal/Mol)
 Warning -- explicit consideration of   4 degrees of freedom as
           vibrations may cause significant error
 Vibrational temperatures:    370.80   670.27   726.22   780.03   991.83
          (Kelvin)           1035.24  1080.78  1167.70  1238.10  1320.29
                             1357.54  1526.82  1584.74  1709.89  1772.78
                             1947.06  1985.27  2086.49  2353.54  2619.81
                             4671.40  4736.29  5058.34  5171.31

 Zero-point correction=                           0.075944 (Hartree/Particle)
 Thermal correction to Energy=                    0.080582
 Thermal correction to Enthalpy=                  0.081526
 Thermal correction to Gibbs Free Energy=         0.048130
 Sum of electronic and zero-point Energies=           -301.345589
 Sum of electronic and thermal Energies=              -301.340951
 Sum of electronic and thermal Enthalpies=            -301.340007
 Sum of electronic and thermal Free Energies=         -301.373403

                     E (Thermal)             CV                S
                      KCal/Mol        Cal/Mol-Kelvin    Cal/Mol-Kelvin
 Total                   50.566             17.305             70.287
 Electronic               0.000              0.000              0.000
 Translational            0.889              2.981             39.199
 Rotational               0.889              2.981             25.711
 Vibrational             48.788             11.343              5.376
 Vibration     1          0.667              1.750              1.677
 Vibration     2          0.823              1.326              0.749
 Vibration     3          0.860              1.239              0.646
 Vibration     4          0.897              1.157              0.561

 Normal termination of Gaussian 09 at Sat Aug 21 02:20:39 2021.
