 Gaussian 09, Revision E.01,
 Gaussian 09:  ES64L-G09RevE.01 30-Nov-2015

 ----------------------------
 #P OPT Freq B3LYP/6-31G(d,p)
 ----------------------------

 --------
 Frag_832
 --------
 Symbolic Z-matrix:
 Charge =  0 Multiplicity = 1

 SCF Done:  E(RB3LYP) =  -328.263335470     A.U. after   14 cycles
 SCF Done:  E(RB3LYP) =  -328.263382311     A.U. after   10 cycles
 SCF Done:  E(RB3LYP) =  -328.263385559     A.U. after    8 cycles
 SCF Done:  E(RB3LYP) =  -328.263386507     A.U. after    9 cycles
 SCF Done:  E(RB3LYP) =  -328.263388289     A.U. after    8 cycles
 Optimization completed.
    -- Stationary point found.
 Normal termination of Gaussian 09 at Thu Sep  8 15:00:23 2022.

 ----------------------------------------------------------------------
 #P Geom=AllCheck Guess=TCheck SCRF=Check GenChk RB3LYP/6-31G(d,p) Freq
 ----------------------------------------------------------------------

 Structure from the checkpoint file:  "B3LYP6-31Gdp.Frag_832.chk"
 --------
 Frag_832
 --------
 Charge =  0 Multiplicity = 1

                         Standard orientation:
 ---------------------------------------------------------------------
 Center     Atomic      Atomic             Coordinates (Angstroms)
 Number     Number       Type             X           Y           Z
 ---------------------------------------------------------------------
      1          6           0       -1.494794    1.356351    0.136077
      2          6           0       -0.843494    0.094121   -0.431464
      3          6           0       -1.619321   -1.173168   -0.090947
      4          7           0        0.650405   -0.101368   -0.050265
      5          6           0        1.458108    1.069693   -0.535477
      6          6           0        0.840149   -0.238893    1.435086
      7          8           0        1.121958   -1.218964   -0.663183
      8          1           0       -0.981036    2.275368   -0.156897
      9          1           0       -2.518526    1.423223   -0.246383
     10          1           0       -1.562379    1.326666    1.228327
     11          1           0       -0.765175    0.165596   -1.519842
     12          1           0       -1.882978   -1.223554    0.971271
     13          1           0       -2.552127   -1.192785   -0.662283
     14          1           0       -1.005559   -2.032442   -0.364867
     15          1           0        1.283438    1.154913   -1.607489
     16          1           0        2.499126    0.799974   -0.365794
     17          1           0        1.207286    2.001290   -0.020619
     18          1           0        0.294778   -1.124441    1.753501
     19          1           0        0.505605    0.647217    1.982878
     20          1           0        1.905163   -0.408363    1.585868
 ---------------------------------------------------------------------

 SCF Done:  E(RB3LYP) =  -328.263388289     A.U. after    1 cycles

 The electronic state is 1-A.
 Alpha  occ. eigenvalues --  -19.04197 -14.45666 -10.22793 -10.21614 -10.21556
 Alpha  occ. eigenvalues --  -10.19305 -10.17156  -1.03457  -0.81944  -0.77920
 Alpha  occ. eigenvalues --   -0.72881  -0.69302  -0.65209  -0.56972  -0.50680
 Alpha  occ. eigenvalues --   -0.48402  -0.46179  -0.45480  -0.42438  -0.41271
 Alpha  occ. eigenvalues --   -0.40080  -0.39274  -0.38271  -0.37687  -0.35821
 Alpha  occ. eigenvalues --   -0.34509  -0.33961  -0.18298  -0.18163
 Alpha virt. eigenvalues --    0.06720   0.09906   0.11484   0.12362   0.12458
 Alpha virt. eigenvalues --    0.13658   0.13885   0.15162   0.16424   0.17988
 Alpha virt. eigenvalues --    0.18380   0.18901   0.19222   0.20202   0.21465

 Mulliken charges:
               1
     1  C   -0.336320
     2  C    0.091583
     3  C   -0.334318
     4  N   -0.121235
     5  C   -0.141320
     6  C   -0.147533
     7  O   -0.574188
     8  H    0.109929
     9  H    0.120613
    10  H    0.111936
    11  H    0.116376
    12  H    0.092989
    13  H    0.103324
    14  H    0.162887
    15  H    0.133623
    16  H    0.138736
    17  H    0.098388
    18  H    0.140322
    19  H    0.097760
    20  H    0.136446
 Sum of Mulliken charges =  -0.00000

 Dipole moment (field-independent basis, Debye):
    X=             -1.5887    Y=              3.4812    Z=              1.8005  Tot=              4.2291
 Quadrupole moment (field-independent basis, Debye-Ang):
   XX=            -44.8842   YY=            -48.3465   ZZ=            -44.2346
   XY=              4.5116   XZ=              2.8883   YZ=             -3.3025

  Exact polarizability:  71.329   0.455  66.771   0.261   0.889  61.730
 Approx polarizability:  94.116  -3.931  96.937  -2.001   5.756  90.249

                      1                      2                      3
                      A                      A                      A
 Frequencies --     82.6679               216.5028               247.7884
 Red. masses --      2.4264                 1.0220                 1.1257
 Frc consts  --      0.0098                 0.0282                 0.0407
 IR Inten    --      2.5415                 0.2101                 0.8553

                      4                      5                      6
                      A                      A                      A
 Frequencies --    267.2274               283.9139               309.3600
 Red. masses --      1.1993                 1.2041                 2.0924
 Frc consts  --      0.0505                 0.0572                 0.1180
 IR Inten    --      0.8513                 0.7063                 5.1079

                      7                      8                      9
                      A                      A                      A
 Frequencies --    310.2783               366.4084               394.9993
 Red. masses --      2.4020                 2.2823                 2.3589
 Frc consts  --      0.1362                 0.1805                 0.2168
 IR Inten    --      5.7464                 4.1431                 4.7246

                     10                     11                     12
                      A                      A                      A
 Frequencies --    434.9976               479.4566               487.0989
 Red. masses --      3.0116                 3.4586                 2.9964
 Frc consts  --      0.3358                 0.4684                 0.4189
 IR Inten    --     10.0605                 8.8802                10.4195

                     13                     14                     15
                      A                      A                      A
 Frequencies --    555.6198               666.9929               866.8135
 Red. masses --      2.7551                 3.0413                 2.4484
 Frc consts  --      0.5011                 0.7972                 1.0839
 IR Inten    --      7.9560                 2.2670                 2.5601

                     16                     17                     18
                      A                      A                      A
 Frequencies --    884.2886               926.0984               941.6377
 Red. masses --      2.5737                 1.9682                 1.2472
 Frc consts  --      1.1858                 0.9946                 0.6515
 IR Inten    --      1.9756                 1.1656                 0.7475

                     19                     20                     21
                      A                      A                      A
 Frequencies --    954.2329               989.4900              1085.3153
 Red. masses --      1.6589                 2.7886                 1.2605
 Frc consts  --      0.8900                 1.6087                 0.8748
 IR Inten    --      6.4695                18.9323                 3.2732

                     22                     23                     24
                      A                      A                      A
 Frequencies --   1127.6362              1152.9678              1194.5148
 Red. masses --      1.5082                 1.9482                 1.9613
 Frc consts  --      1.1299                 1.5259                 1.6488
 IR Inten    --     16.1738                 6.5249                15.7244

                     25                     26                     27
                      A                      A                      A
 Frequencies --   1203.0162              1236.0604              1265.2721
 Red. masses --      1.7532                 2.2216                 1.9154
 Frc consts  --      1.4949                 1.9998                 1.8066
 IR Inten    --      7.7809                 1.6265                 0.1730

                     28                     29                     30
                      A                      A                      A
 Frequencies --   1348.1875              1384.0958              1404.3292
 Red. masses --      1.4159                 1.2244                 1.3520
 Frc consts  --      1.5163                 1.3820                 1.5709
 IR Inten    --      3.6117                 5.0056                15.8089

                     31                     32                     33
                      A                      A                      A
 Frequencies --   1417.4090              1426.8292              1449.6453
 Red. masses --      1.1779                 1.2364                 1.1904
 Frc consts  --      1.3942                 1.4830                 1.4738
 IR Inten    --      1.8658                13.1213                 2.2055

                     34                     35                     36
                      A                      A                      A
 Frequencies --   1477.5697              1492.1906              1499.9833
 Red. masses --      1.0480                 1.0534                 1.0556
 Frc consts  --      1.3480                 1.3820                 1.3993
 IR Inten    --      0.4301                 9.0522                 5.8211

                     37                     38                     39
                      A                      A                      A
 Frequencies --   1505.1609              1508.9720              1518.8297
 Red. masses --      1.0538                 1.0496                 1.0498
 Frc consts  --      1.4066                 1.4081                 1.4268
 IR Inten    --      7.3562                 5.7296                 2.3830

                     40                     41                     42
                      A                      A                      A
 Frequencies --   1524.5814              1534.8210              3048.8261
 Red. masses --      1.0451                 1.0497                 1.0375
 Frc consts  --      1.4312                 1.4570                 5.6823
 IR Inten    --     10.3885                 6.3876                16.1489

                     43                     44                     45
                      A                      A                      A
 Frequencies --   3053.6461              3058.3029              3068.5466
 Red. masses --      1.0375                 1.0388                 1.0380
 Frc consts  --      5.6998                 5.7245                 5.7584
 IR Inten    --     14.8196                12.5374                47.3895

                     46                     47                     48
                      A                      A                      A
 Frequencies --   3089.2792              3113.9977              3121.8829
 Red. masses --      1.0866                 1.1011                 1.0990
 Frc consts  --      6.1100                 6.2911                 6.3107
 IR Inten    --      2.8576                 1.0548                47.8654

                     49                     50                     51
                      A                      A                      A
 Frequencies --   3136.7982              3163.6563              3164.3238
 Red. masses --      1.1006                 1.1004                 1.0988
 Frc consts  --      6.3806                 6.4890                 6.4822
 IR Inten    --     34.9118                 0.1591                 5.5817

                     52                     53                     54
                      A                      A                      A
 Frequencies --   3170.7941              3192.4938              3203.7360
 Red. masses --      1.0980                 1.1063                 1.1053
 Frc consts  --      6.5039                 6.6434                 6.6843
 IR Inten    --     21.2997                 7.5712                 6.6339

 - Thermochemistry -
 -------------------
 Temperature   298.150 Kelvin.  Pressure   1.00000 Atm.
 Atom     1 has atomic number  6 and mass  12.00000

 Molecular mass:   103.09971 amu.
 Principal axes and moments of inertia in atomic units:
                           1         2         3
     Eigenvalues --   557.51224 776.48600 938.55279
           X            0.99732   0.07194   0.01369
           Y           -0.07115   0.99615  -0.05119
           Z           -0.01732   0.05008   0.99859
 This molecule is an asymmetric top.
 Rotational symmetry number  1.
 Warning -- assumption of classical behavior for rotation
           may cause significant error
 Rotational temperatures (Kelvin)      0.15536     0.11155     0.09228
 Rotational constants (GHZ):           3.23713     2.32424     1.92290
 Zero-point vibrational energy     478563.3 (Joules/Mol)
                                  114.37939 (Kcal/Mol)
 Warning -- explicit consideration of  13 degrees of freedom as
           vibrations may cause significant error
 Vibrational temperatures:    118.94   311.50   356.51   384.48   408.49
          (Kelvin)            445.10   446.42   527.18   568.32   625.86
                              689.83   700.83   799.41   959.65  1247.15
                             1272.29  1332.45  1354.80  1372.93  1423.65
                             1561.52  1622.41  1658.86  1718.64  1730.87
                             1778.41  1820.44  1939.74  1991.40  2020.51
                             2039.33  2052.89  2085.71  2125.89  2146.93
                             2158.14  2165.59  2171.07  2185.25  2193.53
                             2208.26  4386.58  4393.51  4400.21  4414.95
                             4444.78  4480.34  4491.69  4513.15  4551.79
                             4552.75  4562.06  4593.28  4609.46

 Zero-point correction=                           0.182275 (Hartree/Particle)
 Thermal correction to Energy=                    0.190849
 Thermal correction to Enthalpy=                  0.191794
 Thermal correction to Gibbs Free Energy=         0.150361
 Sum of electronic and zero-point Energies=           -328.081113
 Sum of electronic and thermal Energies=              -328.072539
 Sum of electronic and thermal Enthalpies=            -328.071595
 Sum of electronic and thermal Free Energies=         -328.113028

                     E (Thermal)             CV                S
                      KCal/Mol        Cal/Mol-Kelvin    Cal/Mol-Kelvin
 Total                  119.760             32.823             87.203
 Electronic               0.000              0.000              0.000
 Translational            0.889              2.981             39.809
 Rotational               0.889              2.981             27.499
 Vibrational            117.982             26.861             19.896
 Vibration     1          0.600              1.961              3.827
 Vibration     2          0.645              1.816              1.988
 Vibration     3          0.661              1.766              1.746
 Vibration     4          0.672              1.733              1.614
 Vibration     5          0.682              1.703              1.510
 Vibration     6          0.699              1.656              1.366
 Vibration     7          0.699              1.654              1.361
 Vibration     8          0.739              1.541              1.095
 Vibration     9          0.762              1.481              0.981
 Vibration    10          0.796              1.394              0.842
 Vibration    11          0.836              1.296              0.712
 Vibration    12          0.843              1.279              0.691
 Vibration    13          0.911              1.127              0.533

 Optimization completed.
    -- Stationary point found.
 Normal termination of Gaussian 09 at Thu Sep  8 15:00:44 2022.
