 Gaussian 09, Revision E.01,
 Gaussian 09:  ES64L-G09RevE.01 30-Nov-2015

 ----------------------------
 #P OPT Freq B3LYP/6-31G(d,p)
 ----------------------------

 --------
 Frag_532
 --------
 Symbolic Z-matrix:
 Charge =  0 Multiplicity = 1

 SCF Done:  E(RB3LYP) =  -265.643532287     A.U. after   14 cycles
 SCF Done:  E(RB3LYP) =  -265.643595264     A.U. after   10 cycles
 SCF Done:  E(RB3LYP) =  -265.643601257     A.U. after    9 cycles
 SCF Done:  E(RB3LYP) =  -265.643604819     A.U. after    8 cycles
 SCF Done:  E(RB3LYP) =  -265.643607659     A.U. after    8 cycles
 SCF Done:  E(RB3LYP) =  -265.643609547     A.U. after    8 cycles
 SCF Done:  E(RB3LYP) =  -265.643612115     A.U. after    9 cycles
 SCF Done:  E(RB3LYP) =  -265.643615148     A.U. after   10 cycles
 SCF Done:  E(RB3LYP) =  -265.643615679     A.U. after    8 cycles
 SCF Done:  E(RB3LYP) =  -265.643615731     A.U. after    7 cycles
 Optimization completed.
    -- Stationary point found.
 Normal termination of Gaussian 09 at Thu Sep  8 15:04:31 2022.

 ----------------------------------------------------------------------
 #P Geom=AllCheck Guess=TCheck SCRF=Check GenChk RB3LYP/6-31G(d,p) Freq
 ----------------------------------------------------------------------

 Structure from the checkpoint file:  "B3LYP6-31Gdp.Frag_532.chk"
 --------
 Frag_532
 --------
 Charge =  0 Multiplicity = 1

                         Standard orientation:
 ---------------------------------------------------------------------
 Center     Atomic      Atomic             Coordinates (Angstroms)
 Number     Number       Type             X           Y           Z
 ---------------------------------------------------------------------
      1          6           0       -0.883446    1.323344   -0.107324
      2          6           0       -0.405086   -0.101516    0.253842
      3          8           0       -1.442397   -1.041380    0.017906
      4          7           0        0.716310   -0.565180   -0.508675
      5          7           0        1.866486    0.013034    0.114089
      6          1           0       -0.079601    2.060281    0.028752
      7          1           0       -1.721964    1.660451    0.518120
      8          1           0       -1.183262    1.341464   -1.159299
      9          1           0       -0.156536   -0.087025    1.358657
     10          1           0       -2.283613   -0.585987    0.150101
     11          1           0        1.930606   -0.143368    1.150769
     12          1           0        2.002206    1.044621    0.006218
     13          1           0        2.682958   -0.425339   -0.313571
 ---------------------------------------------------------------------

 SCF Done:  E(RB3LYP) =  -265.643615731     A.U. after    1 cycles

 The electronic state is 1-A.
 Alpha  occ. eigenvalues --  -19.11396 -14.46259 -14.25653 -10.23059 -10.16233
 Alpha  occ. eigenvalues --   -1.00925  -0.98639  -0.77876  -0.69469  -0.59334
 Alpha  occ. eigenvalues --   -0.55780  -0.55097  -0.48026  -0.43488  -0.41601
 Alpha  occ. eigenvalues --   -0.37995  -0.35519  -0.31316  -0.25142  -0.23138
 Alpha  occ. eigenvalues --   -0.15025
 Alpha virt. eigenvalues --    0.02241   0.08304   0.08917   0.10437   0.15751
 Alpha virt. eigenvalues --    0.16483   0.17647   0.19998   0.22091   0.24538
 Alpha virt. eigenvalues --    0.26929   0.33888   0.54884   0.56950   0.59173

 Mulliken charges:
               1
     1  C   -0.341967
     2  C    0.340726
     3  O   -0.535054
     4  N   -0.478823
     5  N   -0.371727
     6  H    0.061966
     7  H    0.079373
     8  H    0.122030
     9  H   -0.012717
    10  H    0.292373
    11  H    0.253824
    12  H    0.264948
    13  H    0.325048
 Sum of Mulliken charges =  -0.00000

 Dipole moment (field-independent basis, Debye):
    X=              3.5490    Y=              3.2125    Z=              2.1680  Tot=              5.2551
 Quadrupole moment (field-independent basis, Debye-Ang):
   XX=            -16.3819   YY=            -36.0212   ZZ=            -33.4520
   XY=             -0.1268   XZ=              1.3989   YZ=             -1.2858

  Exact polarizability:  57.163   0.668  40.498   2.645   1.375  39.708
 Approx polarizability:  74.818   4.330  57.485   4.888   6.658  60.193

                      1                      2                      3
                      A                      A                      A
 Frequencies --    125.4363               186.6378               254.4825
 Red. masses --      3.2104                 1.0847                 1.1467
 Frc consts  --      0.0298                 0.0223                 0.0438
 IR Inten    --     15.9664               109.1042                 1.9392

                      4                      5                      6
                      A                      A                      A
 Frequencies --    274.0414               333.7257               413.2136
 Red. masses --      1.0644                 2.3883                 2.8879
 Frc consts  --      0.0471                 0.1567                 0.2905
 IR Inten    --      2.6237                17.3941                12.6244

                      7                      8                      9
                      A                      A                      A
 Frequencies --    470.8668               559.9017               794.9929
 Red. masses --      2.8945                 3.3877                 3.1501
 Frc consts  --      0.3781                 0.6257                 1.1730
 IR Inten    --     24.1510                11.5462                31.0379

                     10                     11                     12
                      A                      A                      A
 Frequencies --    857.4808               973.3571              1042.3831
 Red. masses --      3.4885                 1.7000                 2.2420
 Frc consts  --      1.5113                 0.9490                 1.4353
 IR Inten    --      2.2330                13.2140                68.2558

                     13                     14                     15
                      A                      A                      A
 Frequencies --   1094.3390              1109.2579              1138.4374
 Red. masses --      1.5288                 1.4157                 2.3089
 Frc consts  --      1.0787                 1.0263                 1.7631
 IR Inten    --     32.7265                67.6063               121.6577

                     16                     17                     18
                      A                      A                      A
 Frequencies --   1216.2289              1300.0468              1363.6421
 Red. masses --      2.0811                 1.2289                 1.2881
 Frc consts  --      1.8137                 1.2237                 1.4112
 IR Inten    --      8.7268                82.8545                46.8472

                     19                     20                     21
                      A                      A                      A
 Frequencies --   1400.2481              1428.6223              1491.2554
 Red. masses --      1.2542                 1.3756                 1.0684
 Frc consts  --      1.4488                 1.6541                 1.3999
 IR Inten    --      8.6129                76.1710                 3.4682

                     22                     23                     24
                      A                      A                      A
 Frequencies --   1503.2075              1518.4359              1608.2367
 Red. masses --      1.0890                 1.1234                 1.0630
 Frc consts  --      1.4499                 1.5261                 1.6198
 IR Inten    --      8.9650                39.4999                19.5845

                     25                     26                     27
                      A                      A                      A
 Frequencies --   1681.9896              2626.1637              2963.7949
 Red. masses --      1.0500                 1.0755                 1.0913
 Frc consts  --      1.7501                 4.3702                 5.6477
 IR Inten    --     39.1953               272.8925                97.5607

                     28                     29                     30
                      A                      A                      A
 Frequencies --   3006.3184              3047.3199              3059.2539
 Red. masses --      1.0387                 1.0439                 1.0936
 Frc consts  --      5.5313                 5.7115                 6.0304
 IR Inten    --     31.0472               275.5231                19.6854

                     31                     32                     33
                      A                      A                      A
 Frequencies --   3123.0972              3501.7819              3818.5930
 Red. masses --      1.0992                 1.0770                 1.0659
 Frc consts  --      6.3165                 7.7808                 9.1574
 IR Inten    --     26.8185                34.6466                 5.3869

 - Thermochemistry -
 -------------------
 Temperature   298.150 Kelvin.  Pressure   1.00000 Atm.
 Atom     1 has atomic number  6 and mass  12.00000

 Molecular mass:    76.06366 amu.
 Principal axes and moments of inertia in atomic units:
                           1         2         3
     Eigenvalues --   223.92882 482.08215 637.47254
           X            0.99935  -0.03402   0.01189
           Y            0.03423   0.99925  -0.01792
           Z           -0.01127   0.01831   0.99977
 This molecule is an asymmetric top.
 Rotational symmetry number  1.
 Rotational temperatures (Kelvin)      0.38679     0.17967     0.13587
 Rotational constants (GHZ):           8.05944     3.74364     2.83109
 Zero-point vibrational energy     294800.5 (Joules/Mol)
                                   70.45900 (Kcal/Mol)
 Warning -- explicit consideration of   8 degrees of freedom as
           vibrations may cause significant error
 Vibrational temperatures:    180.47   268.53   366.14   394.28   480.16
          (Kelvin)            594.52   677.47   805.57  1143.82  1233.72
                             1400.44  1499.75  1574.51  1595.97  1637.96
                             1749.88  1870.47  1961.97  2014.64  2055.47
                             2145.58  2162.78  2184.69  2313.89  2420.00
                             3778.46  4264.23  4325.42  4384.41  4401.58
                             4493.43  5038.28  5494.10

 Zero-point correction=                           0.112284 (Hartree/Particle)
 Thermal correction to Energy=                    0.118781
 Thermal correction to Enthalpy=                  0.119725
 Thermal correction to Gibbs Free Energy=         0.082901
 Sum of electronic and zero-point Energies=           -265.531332
 Sum of electronic and thermal Energies=              -265.524835
 Sum of electronic and thermal Enthalpies=            -265.523890
 Sum of electronic and thermal Free Energies=         -265.560715

                     E (Thermal)             CV                S
                      KCal/Mol        Cal/Mol-Kelvin    Cal/Mol-Kelvin
 Total                   74.536             22.450             77.504
 Electronic               0.000              0.000              0.000
 Translational            0.889              2.981             38.903
 Rotational               0.889              2.981             25.734
 Vibrational             72.759             16.488             12.867
 Vibration     1          0.610              1.928              3.015
 Vibration     2          0.632              1.858              2.261
 Vibration     3          0.665              1.755              1.699
 Vibration     4          0.676              1.721              1.571
 Vibration     5          0.715              1.608              1.242
 Vibration     6          0.777              1.442              0.915
 Vibration     7          0.828              1.315              0.735
 Vibration     8          0.916              1.118              0.524

 Optimization completed.
    -- Stationary point found.
 Normal termination of Gaussian 09 at Thu Sep  8 15:04:40 2022.
