 Gaussian 09, Revision E.01,
 Gaussian 09:  ES64L-G09RevE.01 30-Nov-2015

 ----------------------------
 #P OPT Freq B3LYP/6-31G(d,p)
 ----------------------------

 --------
 Frag_949
 --------
 Symbolic Z-matrix:
 Charge =  0 Multiplicity = 1

 SCF Done:  E(RB3LYP) =  -284.336484123     A.U. after   14 cycles
 SCF Done:  E(RB3LYP) =  -284.336566631     A.U. after    9 cycles
 SCF Done:  E(RB3LYP) =  -284.336573207     A.U. after    8 cycles
 SCF Done:  E(RB3LYP) =  -284.336574252     A.U. after    8 cycles
 Optimization completed.
    -- Stationary point found.
 Normal termination of Gaussian 09 at Thu Sep  8 15:22:28 2022.

 ----------------------------------------------------------------------
 #P Geom=AllCheck Guess=TCheck SCRF=Check GenChk RB3LYP/6-31G(d,p) Freq
 ----------------------------------------------------------------------

 Structure from the checkpoint file:  "B3LYP6-31Gdp.Frag_949.chk"
 --------
 Frag_949
 --------
 Charge =  0 Multiplicity = 1

                         Standard orientation:
 ---------------------------------------------------------------------
 Center     Atomic      Atomic             Coordinates (Angstroms)
 Number     Number       Type             X           Y           Z
 ---------------------------------------------------------------------
      1          6           0        0.615684    1.421885    0.000014
      2          6           0        0.528810    0.093334   -0.000024
      3          8           0        1.602072   -0.736688   -0.000034
      4          8           0       -0.608953   -0.688673   -0.000115
      5          7           0       -1.822640    0.085411    0.000050
      6          1           0       -0.275723    2.028327   -0.000128
      7          1           0        1.594512    1.880350    0.000149
      8          1           0        1.267945   -1.645375    0.000585
      9          1           0       -2.320220   -0.274830   -0.815207
     10          1           0       -2.319947   -0.274770    0.815504
 ---------------------------------------------------------------------

 SCF Done:  E(RB3LYP) =  -284.336574252     A.U. after    1 cycles

 The electronic state is 1-A.
 Alpha  occ. eigenvalues --  -19.20926 -19.17545 -14.39358 -10.28419 -10.14304
 Alpha  occ. eigenvalues --   -1.11298  -1.04236  -0.84168  -0.72825  -0.58377
 Alpha  occ. eigenvalues --   -0.54608  -0.52691  -0.48452  -0.41750  -0.41201
 Alpha  occ. eigenvalues --   -0.38387  -0.37704  -0.31597  -0.28021  -0.20254
 Alpha virt. eigenvalues --    0.05869   0.07472   0.07785   0.10592   0.13658
 Alpha virt. eigenvalues --    0.16614   0.18463   0.24749   0.32664   0.36274
 Alpha virt. eigenvalues --    0.54625   0.55756   0.58875   0.60858   0.64828

 Mulliken charges:
               1
     1  C   -0.331769
     2  C    0.597781
     3  O   -0.532150
     4  O   -0.472440
     5  N   -0.336282
     6  H    0.112491
     7  H    0.095081
     8  H    0.321725
     9  H    0.272785
    10  H    0.272779
 Sum of Mulliken charges =  -0.00000

 Dipole moment (field-independent basis, Debye):
    X=             -2.6231    Y=             -2.0459    Z=              0.0013  Tot=              3.3266
 Quadrupole moment (field-independent basis, Debye-Ang):
   XX=            -25.1330   YY=            -27.3091   ZZ=            -29.3856
   XY=              0.9299   XZ=              0.0012   YZ=             -0.0024

  Exact polarizability:  42.734   1.450  43.578   0.000  -0.002  20.411
 Approx polarizability:  54.392  -0.625  68.653   0.000  -0.001  28.064

                      1                      2                      3
                      A                      A                      A
 Frequencies --     88.9904               137.5392               197.1678
 Red. masses --      2.0979                 1.0890                 1.6257
 Frc consts  --      0.0098                 0.0121                 0.0372
 IR Inten    --     55.1222                27.8536                74.2700

                      4                      5                      6
                      A                      A                      A
 Frequencies --    324.1862               455.0445               561.1887
 Red. masses --      3.5683                 2.8334                 4.3287
 Frc consts  --      0.2210                 0.3457                 0.8032
 IR Inten    --      0.8944                 2.9838                 4.0095

                      7                      8                      9
                      A                      A                      A
 Frequencies --    638.6839               724.5296               766.2127
 Red. masses --      5.3441                 1.0528                 1.3522
 Frc consts  --      1.2844                 0.3256                 0.4677
 IR Inten    --      0.2101                 0.2928                93.8480

                     10                     11                     12
                      A                      A                      A
 Frequencies --    887.8008               947.3857               986.6680
 Red. masses --      4.8371                 2.2366                 3.3636
 Frc consts  --      2.2463                 1.1827                 1.9293
 IR Inten    --     68.5183                19.6241                43.1864

                     13                     14                     15
                      A                      A                      A
 Frequencies --   1186.6429              1254.7143              1338.7637
 Red. masses --      1.4597                 1.4955                 1.1100
 Frc consts  --      1.2111                 1.3871                 1.1722
 IR Inten    --     65.4212                 2.3726                 0.9268

                     16                     17                     18
                      A                      A                      A
 Frequencies --   1360.9978              1421.4990              1656.7790
 Red. masses --      3.0641                 1.1712                 1.0918
 Frc consts  --      3.3440                 1.3944                 1.7658
 IR Inten    --    395.5459                13.0325                12.4788

                     19                     20                     21
                      A                      A                      A
 Frequencies --   1791.5339              3218.4352              3325.2264
 Red. masses --      5.5590                 1.0593                 1.1178
 Frc consts  --     10.5122                 6.4648                 7.2818
 IR Inten    --    251.8977                 3.2088                 0.9012

                     22                     23                     24
                      A                      A                      A
 Frequencies --   3443.5427              3539.4063              3803.6100
 Red. masses --      1.0476                 1.0965                 1.0650
 Frc consts  --      7.3193                 8.0929                 9.0784
 IR Inten    --      0.2032                 0.5884                69.2943

 - Thermochemistry -
 -------------------
 Temperature   298.150 Kelvin.  Pressure   1.00000 Atm.
 Atom     1 has atomic number  6 and mass  12.00000

 Molecular mass:    75.03203 amu.
 Principal axes and moments of inertia in atomic units:
                           1         2         3
     Eigenvalues --   187.79815 420.81158 599.03918
           X            0.99971   0.02401   0.00000
           Y           -0.02401   0.99971  -0.00002
           Z           -0.00000   0.00002   1.00000
 This molecule is an asymmetric top.
 Rotational symmetry number  1.
 Rotational temperatures (Kelvin)      0.46121     0.20583     0.14459
 Rotational constants (GHZ):           9.61001     4.28872     3.01273
 Zero-point vibrational energy     203703.4 (Joules/Mol)
                                   48.68628 (Kcal/Mol)
 Warning -- explicit consideration of   6 degrees of freedom as
           vibrations may cause significant error
 Vibrational temperatures:    128.04   197.89   283.68   466.43   654.71
          (Kelvin)            807.42   918.92  1042.44  1102.41  1277.35
                             1363.08  1419.59  1707.31  1805.25  1926.18
                             1958.17  2045.22  2383.73  2577.61  4630.60
                             4784.25  4954.48  5092.41  5472.54

 Zero-point correction=                           0.077587 (Hartree/Particle)
 Thermal correction to Energy=                    0.083771
 Thermal correction to Enthalpy=                  0.084715
 Thermal correction to Gibbs Free Energy=         0.048175
 Sum of electronic and zero-point Energies=           -284.258988
 Sum of electronic and thermal Energies=              -284.252803
 Sum of electronic and thermal Enthalpies=            -284.251859
 Sum of electronic and thermal Free Energies=         -284.288399

                     E (Thermal)             CV                S
                      KCal/Mol        Cal/Mol-Kelvin    Cal/Mol-Kelvin
 Total                   52.567             20.364             76.905
 Electronic               0.000              0.000              0.000
 Translational            0.889              2.981             38.862
 Rotational               0.889              2.981             25.363
 Vibrational             50.790             14.402             12.681
 Vibration     1          0.602              1.957              3.682
 Vibration     2          0.614              1.916              2.838
 Vibration     3          0.637              1.844              2.159
 Vibration     4          0.709              1.627              1.289
 Vibration     5          0.813              1.350              0.781
 Vibration     6          0.917              1.115              0.521

 Optimization completed.
    -- Stationary point found.
 Normal termination of Gaussian 09 at Thu Sep  8 15:22:35 2022.
