 Gaussian 09, Revision E.01,
 Gaussian 09:  ES64L-G09RevE.01 30-Nov-2015

 ----------------------------
 #P OPT Freq B3LYP/6-31G(d,p)
 ----------------------------

 --------
 Frag_830
 --------
 Symbolic Z-matrix:
 Charge =  0 Multiplicity = 1

 SCF Done:  E(RB3LYP) =  -339.710995420     A.U. after   14 cycles
 SCF Done:  E(RB3LYP) =  -339.711122422     A.U. after   11 cycles
 SCF Done:  E(RB3LYP) =  -339.711131992     A.U. after   10 cycles
 SCF Done:  E(RB3LYP) =  -339.711138473     A.U. after    9 cycles
 SCF Done:  E(RB3LYP) =  -339.711148027     A.U. after    8 cycles
 SCF Done:  E(RB3LYP) =  -339.711150354     A.U. after    8 cycles
 SCF Done:  E(RB3LYP) =  -339.711151206     A.U. after    9 cycles
 Optimization completed.
    -- Stationary point found.
 Normal termination of Gaussian 09 at Thu Sep  8 15:06:08 2022.

 ----------------------------------------------------------------------
 #P Geom=AllCheck Guess=TCheck SCRF=Check GenChk RB3LYP/6-31G(d,p) Freq
 ----------------------------------------------------------------------

 Structure from the checkpoint file:  "B3LYP6-31Gdp.Frag_830.chk"
 --------
 Frag_830
 --------
 Charge =  0 Multiplicity = 1

                         Standard orientation:
 ---------------------------------------------------------------------
 Center     Atomic      Atomic             Coordinates (Angstroms)
 Number     Number       Type             X           Y           Z
 ---------------------------------------------------------------------
      1          6           0       -1.732538    0.859570   -0.027077
      2          6           0       -0.702523   -0.241829   -0.031227
      3          8           0       -0.963677   -1.435467    0.105759
      4          7           0        0.610008    0.125748   -0.268930
      5          7           0        1.067702    1.372302    0.120548
      6          8           0        1.542700   -0.920622   -0.012338
      7          1           0       -1.487889    1.649001   -0.738132
      8          1           0       -1.780969    1.316028    0.967366
      9          1           0       -2.702344    0.417007   -0.256768
     10          1           0        1.461594    1.306234    1.061925
     11          1           0        1.816663    1.644802   -0.511384
     12          1           0        0.927163   -1.677156    0.118128
 ---------------------------------------------------------------------

 SCF Done:  E(RB3LYP) =  -339.711151206     A.U. after    1 cycles

 The electronic state is 1-A.
 Alpha  occ. eigenvalues --  -19.17838 -19.13473 -14.43629 -14.38219 -10.30027
 Alpha  occ. eigenvalues --  -10.19694  -1.10855  -1.02757  -0.95283  -0.79886
 Alpha  occ. eigenvalues --   -0.72927  -0.59699  -0.53803  -0.53473  -0.50168
 Alpha  occ. eigenvalues --   -0.44912  -0.43071  -0.41136  -0.39129  -0.37936
 Alpha  occ. eigenvalues --   -0.33948  -0.30449  -0.27318  -0.23481
 Alpha virt. eigenvalues --    0.00042   0.07185   0.09514   0.12067   0.14135
 Alpha virt. eigenvalues --    0.15488   0.16208   0.17521   0.19367   0.24021
 Alpha virt. eigenvalues --    0.34189   0.35293   0.51548   0.52954   0.56845

 Mulliken charges:
               1
     1  C   -0.369142
     2  C    0.571995
     3  O   -0.520373
     4  N   -0.108021
     5  N   -0.429365
     6  O   -0.451104
     7  H    0.142612
     8  H    0.141007
     9  H    0.141725
    10  H    0.262833
    11  H    0.280145
    12  H    0.337690
 Sum of Mulliken charges =  -0.00000

 Dipole moment (field-independent basis, Debye):
    X=              0.6509    Y=              2.6647    Z=              0.5936  Tot=              2.8065
 Quadrupole moment (field-independent basis, Debye-Ang):
   XX=            -33.8105   YY=            -36.3068   ZZ=            -33.8057
   XY=              0.1873   XZ=              0.9959   YZ=              0.1637

  Exact polarizability:  50.908   2.554  49.098  -0.304  -0.318  29.243
 Approx polarizability:  69.690   8.261  76.117  -2.936  -2.402  42.536

                      1                      2                      3
                      A                      A                      A
 Frequencies --     93.3003               140.6284               237.7517
 Red. masses --      1.0420                 4.9687                 3.4776
 Frc consts  --      0.0053                 0.0579                 0.1158
 IR Inten    --      0.0407                 4.8644                20.0190

                      4                      5                      6
                      A                      A                      A
 Frequencies --    296.2036               403.7132               427.1520
 Red. masses --      3.4901                 3.4021                 1.1414
 Frc consts  --      0.1804                 0.3267                 0.1227
 IR Inten    --     17.5931                42.1845                 9.2559

                      7                      8                      9
                      A                      A                      A
 Frequencies --    459.7439               496.0253               608.7987
 Red. masses --      1.8318                 1.8981                 3.2058
 Frc consts  --      0.2281                 0.2752                 0.7001
 IR Inten    --     51.1152                41.1952                31.3699

                     10                     11                     12
                      A                      A                      A
 Frequencies --    626.8914               746.1777               935.5176
 Red. masses --      3.6847                 5.1083                 1.6454
 Frc consts  --      0.8532                 1.6758                 0.8485
 IR Inten    --     18.1132                23.0136               112.5694

                     13                     14                     15
                      A                      A                      A
 Frequencies --    974.6989              1055.7593              1074.3007
 Red. masses --      2.8858                 1.6955                 2.5843
 Frc consts  --      1.6153                 1.1135                 1.7573
 IR Inten    --     35.8585                18.6781                46.6983

                     16                     17                     18
                      A                      A                      A
 Frequencies --   1212.7311              1335.8036              1359.0718
 Red. masses --      2.8548                 1.2814                 1.6759
 Frc consts  --      2.4738                 1.3472                 1.8238
 IR Inten    --     16.4264                13.0962               157.9297

                     19                     20                     21
                      A                      A                      A
 Frequencies --   1412.0980              1474.4378              1486.9288
 Red. masses --      1.3933                 1.0938                 1.0578
 Frc consts  --      1.6369                 1.4010                 1.3780
 IR Inten    --     59.4026                37.5122                13.9314

                     22                     23                     24
                      A                      A                      A
 Frequencies --   1512.3060              1716.3361              1756.3888
 Red. masses --      1.8521                 1.1183                 8.3047
 Frc consts  --      2.4958                 1.9410                15.0944
 IR Inten    --     48.7318                10.9242               210.9139

                     25                     26                     27
                      A                      A                      A
 Frequencies --   3066.9698              3141.6431              3181.9229
 Red. masses --      1.0406                 1.0935                 1.1060
 Frc consts  --      5.7673                 6.3591                 6.5977
 IR Inten    --      2.6757                 6.0776                 5.6398

                     28                     29                     30
                      A                      A                      A
 Frequencies --   3432.1451              3539.6089              3546.7265
 Red. masses --      1.0522                 1.0645                 1.0892
 Frc consts  --      7.3027                 7.8578                 8.0725
 IR Inten    --      4.4828                77.9679                 1.8900

 - Thermochemistry -
 -------------------
 Temperature   298.150 Kelvin.  Pressure   1.00000 Atm.
 Atom     1 has atomic number  6 and mass  12.00000

 Molecular mass:    90.04293 amu.
 Principal axes and moments of inertia in atomic units:
                           1         2         3
     Eigenvalues --   352.07568 498.85723 819.64597
           X            0.99788  -0.06483   0.00592
           Y            0.06481   0.99789   0.00345
           Z           -0.00613  -0.00305   0.99998
 This molecule is an asymmetric top.
 Rotational symmetry number  1.
 Rotational temperatures (Kelvin)      0.24601     0.17362     0.10567
 Rotational constants (GHZ):           5.12600     3.61775     2.20185
 Zero-point vibrational energy     249731.1 (Joules/Mol)
                                   59.68717 (Kcal/Mol)
 Warning -- explicit consideration of   9 degrees of freedom as
           vibrations may cause significant error
 Vibrational temperatures:    134.24   202.33   342.07   426.17   580.85
          (Kelvin)            614.58   661.47   713.67   875.92   901.96
                             1073.58  1346.00  1402.37  1519.00  1545.68
                             1744.85  1921.92  1955.40  2031.69  2121.38
                             2139.36  2175.87  2469.42  2527.05  4412.68
                             4520.12  4578.07  4938.09  5092.70  5102.94

 Zero-point correction=                           0.095118 (Hartree/Particle)
 Thermal correction to Energy=                    0.101960
 Thermal correction to Enthalpy=                  0.102905
 Thermal correction to Gibbs Free Energy=         0.064714
 Sum of electronic and zero-point Energies=           -339.616034
 Sum of electronic and thermal Energies=              -339.609191
 Sum of electronic and thermal Enthalpies=            -339.608247
 Sum of electronic and thermal Free Energies=         -339.646438

                     E (Thermal)             CV                S
                      KCal/Mol        Cal/Mol-Kelvin    Cal/Mol-Kelvin
 Total                   63.981             23.825             80.380
 Electronic               0.000              0.000              0.000
 Translational            0.889              2.981             39.405
 Rotational               0.889              2.981             26.468
 Vibrational             62.204             17.864             14.506
 Vibration     1          0.602              1.954              3.590
 Vibration     2          0.615              1.913              2.795
 Vibration     3          0.656              1.783              1.820
 Vibration     4          0.690              1.681              1.438
 Vibration     5          0.769              1.462              0.949
 Vibration     6          0.789              1.411              0.868
 Vibration     7          0.818              1.339              0.767
 Vibration     8          0.852              1.259              0.668
 Vibration     9          0.968              1.013              0.435

 Normal termination of Gaussian 09 at Thu Sep  8 15:06:18 2022.
