 Gaussian 09, Revision E.01,
 Gaussian 09:  ES64L-G09RevE.01 30-Nov-2015

 --------------------------------
 #P OPT=calcfc Freq B3LYP/6-31G**
 --------------------------------

 --------
 Frag_396
 --------
 Symbolic Z-matrix:
 Charge =  0 Multiplicity = 1

 SCF Done:  E(RB3LYP) =  -289.028352776     A.U. after   13 cycles
 SCF Done:  E(RB3LYP) =  -289.034249014     A.U. after   11 cycles
 SCF Done:  E(RB3LYP) =  -289.034904252     A.U. after   12 cycles
 SCF Done:  E(RB3LYP) =  -289.034971610     A.U. after   10 cycles
 SCF Done:  E(RB3LYP) =  -289.034976886     A.U. after    9 cycles
 Optimization completed.
    -- Stationary point found.
 Normal termination of Gaussian 09 at Fri Sep 10 20:44:30 2021.

 ----------------------------------------------------------------------
 #P Geom=AllCheck Guess=TCheck SCRF=Check GenChk RB3LYP/6-31G(d,p) Freq
 ----------------------------------------------------------------------

 Structure from the checkpoint file:  "/public/home/users/caep010/.cache/gau_scr/Gau-191469.chk"
 --------
 Frag_396
 --------
 Charge =  0 Multiplicity = 1

                         Standard orientation:
 ---------------------------------------------------------------------
 Center     Atomic      Atomic             Coordinates (Angstroms)
 Number     Number       Type             X           Y           Z
 ---------------------------------------------------------------------
      1          6           0        0.506716    1.486805   -0.384953
      2          6           0        0.414565    0.011251    0.005309
      3          6           0        1.655691   -0.762165   -0.454023
      4          8           0        0.344306    0.001228    1.447437
      5          6           0       -0.864976   -0.648127   -0.550059
      6          7           0       -2.053589    0.057834   -0.078556
      7          1           0        1.383423    1.942248    0.084218
      8          1           0        0.595856    1.590613   -1.470737
      9          1           0       -0.389834    2.018344   -0.062711
     10          1           0        2.556659   -0.323043   -0.016169
     11          1           0        1.602175   -1.813714   -0.144461
     12          1           0        1.756838   -0.743697   -1.544031
     13          1           0        0.427145   -0.919653    1.732621
     14          1           0       -0.833520   -1.719402   -0.266910
     15          1           0       -0.842740   -0.616547   -1.646774
     16          1           0       -2.894085   -0.454645   -0.329791
     17          1           0       -2.013217    0.098251    0.937495
 ---------------------------------------------------------------------

 SCF Done:  E(RB3LYP) =  -289.034976886     A.U. after    1 cycles

 The electronic state is 1-A.
 Alpha  occ. eigenvalues --  -19.13977 -14.30406 -10.23705 -10.20251 -10.17666
 Alpha  occ. eigenvalues --  -10.16102  -1.01323  -0.87118  -0.77159  -0.68578
 Alpha  occ. eigenvalues --   -0.65681  -0.56318  -0.48876  -0.47674  -0.45775
 Alpha  occ. eigenvalues --   -0.42614  -0.42057  -0.38674  -0.37585  -0.36882
 Alpha  occ. eigenvalues --   -0.35153  -0.34212  -0.31377  -0.26709  -0.22713
 Alpha virt. eigenvalues --    0.06296   0.10598   0.12060   0.12719   0.15469
 Alpha virt. eigenvalues --    0.15876   0.17122   0.18430   0.19112   0.20148
 Alpha virt. eigenvalues --    0.21813   0.23023   0.24586   0.25276   0.26236

 Mulliken charges:
               1
     1  C   -0.290969
     2  C    0.242946
     3  C   -0.319222
     4  O   -0.551208
     5  C   -0.030458
     6  N   -0.604928
     7  H    0.102392
     8  H    0.092954
     9  H    0.132429
    10  H    0.114666
    11  H    0.085739
    12  H    0.104469
    13  H    0.296230
    14  H    0.052271
    15  H    0.094813
    16  H    0.233444
    17  H    0.244434
 Sum of Mulliken charges =  -0.00000

 Dipole moment (field-independent basis, Debye):
    X=              0.0608    Y=             -2.2960    Z=             -0.2594  Tot=              2.3114
 Quadrupole moment (field-independent basis, Debye-Ang):
   XX=            -36.9444   YY=            -38.2281   ZZ=            -38.6532
   XY=              2.2976   XZ=             -1.3855   YZ=             -2.0303

  Exact polarizability:  58.214  -0.106  53.604  -0.654  -0.250  51.776
 Approx polarizability:  72.762  -0.591  72.613  -0.132   0.360  75.635

                      1                      2                      3
                      A                      A                      A
 Frequencies --    147.6014               217.0533               245.1365
 Red. masses --      2.3131                 1.0874                 1.9130
 Frc consts  --      0.0297                 0.0302                 0.0677
 IR Inten    --      4.4029                 3.4374                 3.0963

                      4                      5                      6
                      A                      A                      A
 Frequencies --    264.2045               287.8751               344.0844
 Red. masses --      1.1920                 1.2086                 1.9547
 Frc consts  --      0.0490                 0.0590                 0.1364
 IR Inten    --      1.9333                23.9293                12.4967

                      7                      8                      9
                      A                      A                      A
 Frequencies --    369.5052               377.2956               414.1460
 Red. masses --      1.1587                 2.9620                 2.1954
 Frc consts  --      0.0932                 0.2484                 0.2219
 IR Inten    --    128.8512                 4.9158                 2.2635

                     10                     11                     12
                      A                      A                      A
 Frequencies --    456.3651               553.7501               744.7898
 Red. masses --      2.5920                 3.3133                 3.3039
 Frc consts  --      0.3181                 0.5986                 1.0798
 IR Inten    --      9.5877                26.0516                 8.3919

                     13                     14                     15
                      A                      A                      A
 Frequencies --    868.3090               891.6201               935.3984
 Red. masses --      1.2998                 1.8710                 2.1382
 Frc consts  --      0.5774                 0.8764                 1.1023
 IR Inten    --     96.7290                 9.7291                42.2164

                     16                     17                     18
                      A                      A                      A
 Frequencies --    945.4383               992.1453              1040.8290
 Red. masses --      1.5285                 1.4881                 1.5390
 Frc consts  --      0.8050                 0.8631                 0.9823
 IR Inten    --     13.6628                12.3040                16.4922

                     19                     20                     21
                      A                      A                      A
 Frequencies --   1092.5179              1133.2207              1155.6631
 Red. masses --      1.8123                 1.6288                 1.5070
 Frc consts  --      1.2745                 1.2324                 1.1859
 IR Inten    --      6.3272                 6.9363                35.7732

                     22                     23                     24
                      A                      A                      A
 Frequencies --   1253.2527              1257.9831              1300.9167
 Red. masses --      2.2835                 2.1384                 1.2585
 Frc consts  --      2.1132                 1.9939                 1.2549
 IR Inten    --     31.0026                30.2584                29.9761

                     25                     26                     27
                      A                      A                      A
 Frequencies --   1385.1295              1419.4542              1421.7393
 Red. masses --      1.3594                 1.4454                 1.4125
 Frc consts  --      1.5366                 1.7158                 1.6822
 IR Inten    --     14.7911                18.4231                 5.9794

                     28                     29                     30
                      A                      A                      A
 Frequencies --   1445.5103              1494.1651              1497.9774
 Red. masses --      1.3651                 1.0659                 1.0451
 Frc consts  --      1.6806                 1.4021                 1.3817
 IR Inten    --      7.9406                 1.7965                 0.0895

                     31                     32                     33
                      A                      A                      A
 Frequencies --   1513.4486              1520.1671              1526.5519
 Red. masses --      1.0705                 1.0711                 1.0762
 Frc consts  --      1.4447                 1.4583                 1.4776
 IR Inten    --      3.4229                 2.5146                 5.1505

                     34                     35                     36
                      A                      A                      A
 Frequencies --   1650.6007              2906.1444              3033.4728
 Red. masses --      1.0905                 1.0742                 1.0393
 Frc consts  --      1.7505                 5.3455                 5.6346
 IR Inten    --     36.5398               103.4416                25.8563

                     37                     38                     39
                      A                      A                      A
 Frequencies --   3053.1562              3059.6089              3102.5976
 Red. masses --      1.0799                 1.0430                 1.0971
 Frc consts  --      5.9312                 5.7528                 6.2225
 IR Inten    --     22.0254                23.0087                35.7821

                     40                     41                     42
                      A                      A                      A
 Frequencies --   3125.7985              3131.9582              3158.8412
 Red. masses --      1.1030                 1.1024                 1.1012
 Frc consts  --      6.3496                 6.3713                 6.4742
 IR Inten    --      0.9056                47.6671                11.3351

                     43                     44                     45
                      A                      A                      A
 Frequencies --   3496.2830              3586.5410              3791.5838
 Red. masses --      1.0491                 1.0929                 1.0660
 Frc consts  --      7.5557                 8.2829                 9.0291
 IR Inten    --      3.2386                 0.9921                 5.4055

 - Thermochemistry -
 -------------------
 Temperature   298.150 Kelvin.  Pressure   1.00000 Atm.
 Atom     1 has atomic number  6 and mass  12.00000

 Molecular mass:    89.08406 amu.
 Principal axes and moments of inertia in atomic units:
                           1         2         3
     Eigenvalues --   393.59432 676.80540 694.29849
           X            0.99960   0.00136  -0.02814
           Y           -0.00566   0.98815  -0.15336
           Z            0.02760   0.15346   0.98777
 This molecule is an asymmetric top.
 Rotational symmetry number  1.
 Rotational temperatures (Kelvin)      0.22006     0.12797     0.12475
 Rotational constants (GHZ):           4.58528     2.66656     2.59937
 Zero-point vibrational energy     404396.6 (Joules/Mol)
                                   96.65311 (Kcal/Mol)
 Warning -- explicit consideration of  11 degrees of freedom as
           vibrations may cause significant error
 Vibrational temperatures:    212.37   312.29   352.70   380.13   414.19
          (Kelvin)            495.06   531.63   542.84   595.86   656.61
                              796.72  1071.59  1249.30  1282.84  1345.83
                             1360.27  1427.47  1497.52  1571.89  1630.45
                             1662.74  1803.15  1809.95  1871.73  1992.89
                             2042.28  2045.56  2079.76  2149.77  2155.25
                             2177.51  2187.18  2196.37  2374.84  4181.29
                             4364.49  4392.81  4402.09  4463.94  4497.32
                             4506.18  4544.86  5030.37  5160.23  5455.24

 Zero-point correction=                           0.154027 (Hartree/Particle)
 Thermal correction to Energy=                    0.161753
 Thermal correction to Enthalpy=                  0.162697
 Thermal correction to Gibbs Free Energy=         0.123462
 Sum of electronic and zero-point Energies=           -288.880950
 Sum of electronic and thermal Energies=              -288.873224
 Sum of electronic and thermal Enthalpies=            -288.872280
 Sum of electronic and thermal Free Energies=         -288.911515

                     E (Thermal)             CV                S
                      KCal/Mol        Cal/Mol-Kelvin    Cal/Mol-Kelvin
 Total                  101.501             28.934             82.577
 Electronic               0.000              0.000              0.000
 Translational            0.889              2.981             39.374
 Rotational               0.889              2.981             26.717
 Vibrational             99.724             22.972             16.487
 Vibration     1          0.617              1.905              2.703
 Vibration     2          0.646              1.815              1.984
 Vibration     3          0.660              1.771              1.765
 Vibration     4          0.671              1.739              1.634
 Vibration     5          0.685              1.696              1.486
 Vibration     6          0.723              1.587              1.193
 Vibration     7          0.742              1.535              1.082
 Vibration     8          0.748              1.519              1.050
 Vibration     9          0.778              1.440              0.912
 Vibration    10          0.815              1.347              0.777
 Vibration    11          0.909              1.131              0.536

 Optimization completed.
    -- Stationary point found.
 Normal termination of Gaussian 09 at Fri Sep 10 20:44:44 2021.
