 Gaussian 09, Revision D.01,
 Gaussian 09:  ES64L-G09RevD.01 24-Apr-2013

 -------------------------
 #P OPT Freq B3LYP/6-31G**
 -------------------------

 ------
 Frag_9
 ------
 Symbolic Z-matrix:
 Charge =  0 Multiplicity = 1

 SCF Done:  E(RB3LYP) =  -234.641458843     A.U. after   13 cycles
 Optimization completed.
    -- Stationary point found.
 Normal termination of Gaussian 09 at Fri Jul 23 06:08:49 2021.

 ----------------------------------------------------------------------
 #P Geom=AllCheck Guess=TCheck SCRF=Check GenChk RB3LYP/6-31G(d,p) Freq
 ----------------------------------------------------------------------

 Structure from the checkpoint file:  "/vol2/users/liuj201281/HOFBenchmark/IsodesmicSplit/Sample60/Ring26/Running/Gau-335209.chk"
 ------
 Frag_9
 ------
 Charge =  0 Multiplicity = 1

                         Standard orientation:
 ---------------------------------------------------------------------
 Center     Atomic      Atomic             Coordinates (Angstroms)
 Number     Number       Type             X           Y           Z
 ---------------------------------------------------------------------
      1          6           0       -1.234000    1.371400    0.000000
      2          6           0       -0.047400    0.739700    0.000000
      3          6           0        1.234000    1.543000    0.000000
      4          6           0        0.047400   -0.739700    0.000000
      5          6           0        1.234000   -1.371400    0.000000
      6          6           0       -1.234000   -1.543000    0.000000
      7          1           0       -2.180400    0.842700    0.000100
      8          1           0       -1.290600    2.455500    0.000000
      9          1           0        1.846500    1.319600    0.881000
     10          1           0        1.021100    2.614500   -0.000100
     11          1           0        1.846500    1.319500   -0.881000
     12          1           0        1.290600   -2.455500    0.000000
     13          1           0        2.180400   -0.842700    0.000100
     14          1           0       -1.846500   -1.319500   -0.881000
     15          1           0       -1.021100   -2.614500   -0.000100
     16          1           0       -1.846500   -1.319600    0.881000
 ---------------------------------------------------------------------

 SCF Done:  E(RB3LYP) =  -234.641458843     A.U. after    1 cycles

 The electronic state is 1-A.
 Alpha  occ. eigenvalues --  -10.19531 -10.19501 -10.17844 -10.17844 -10.17483
 Alpha  occ. eigenvalues --  -10.17483  -0.82339  -0.75130  -0.69600  -0.66606
 Alpha  occ. eigenvalues --   -0.58774  -0.49598  -0.47659  -0.44492  -0.42037
 Alpha  occ. eigenvalues --   -0.40203  -0.39957  -0.38408  -0.37452  -0.35336
 Alpha  occ. eigenvalues --   -0.32754  -0.28478  -0.22504
 Alpha virt. eigenvalues --   -0.01816   0.08762   0.10102   0.12730   0.13678
 Alpha virt. eigenvalues --    0.14131   0.16830   0.17098   0.17783   0.19773
 Alpha virt. eigenvalues --    0.19824   0.21468   0.25096   0.27222   0.34074

 Mulliken charges:
               1
     1  C   -0.296426
     2  C    0.148509
     3  C   -0.379943
     4  C    0.148509
     5  C   -0.296426
     6  C   -0.379943
     7  H    0.093471
     8  H    0.090684
     9  H    0.119308
    10  H    0.105096
    11  H    0.119301
    12  H    0.090684
    13  H    0.093471
    14  H    0.119301
    15  H    0.105096
    16  H    0.119308
 Sum of Mulliken charges =   0.00000

 Dipole moment (field-independent basis, Debye):
    X=              0.0000    Y=              0.0000    Z=              0.0001  Tot=              0.0001
 Quadrupole moment (field-independent basis, Debye-Ang):
   XX=            -36.3168   YY=            -36.3119   ZZ=            -40.4359
   XY=              0.6095   XZ=              0.0000   YZ=              0.0000

  Exact polarizability:  82.207 -12.915  76.322   0.000   0.000  35.664
 Approx polarizability: 134.948 -36.627 107.316   0.000   0.000  51.654

                      1                      2                      3
                      A                      A                      B
 Frequencies --     90.8189               217.4797               231.2468
 Red. masses --      2.8177                 1.0172                 1.0468
 Frc consts  --      0.0137                 0.0283                 0.0330
 IR Inten    --      0.1020                 0.9261                 0.0000

                      4                      5                      6
                      B                      A                      A
 Frequencies --    300.7979               343.3368               403.9302
 Red. masses --      2.7296                 2.6803                 2.5910
 Frc consts  --      0.1455                 0.1862                 0.2491
 IR Inten    --      0.4875                 3.9683                 0.0000

                      7                      8                      9
                      B                      A                      B
 Frequencies --    476.5233               492.2434               566.7944
 Red. masses --      2.0786                 2.9001                 1.8759
 Frc consts  --      0.2781                 0.4140                 0.3551
 IR Inten    --      1.7520                 0.0000                 0.0000

                     10                     11                     12
                      A                      A                      B
 Frequencies --    675.1660               738.5651               798.4822
 Red. masses --      1.0158                 3.2784                 1.2248
 Frc consts  --      0.2728                 1.0536                 0.4601
 IR Inten    --      1.3960                 0.0000                 0.0000

                     13                     14                     15
                      A                      B                      B
 Frequencies --    924.4853               926.6552               928.4365
 Red. masses --      1.3460                 1.3517                 2.3758
 Frc consts  --      0.6778                 0.6839                 1.2066
 IR Inten    --     75.0343                 0.0000                 0.2500

                     16                     17                     18
                      A                      B                      A
 Frequencies --    983.9326              1018.9648              1049.9711
 Red. masses --      1.5684                 1.2550                 1.4172
 Frc consts  --      0.8946                 0.7678                 0.9205
 IR Inten    --      0.0000                 1.1524                 0.0000

                     19                     20                     21
                      A                      B                      B
 Frequencies --   1073.3979              1079.3837              1211.5592
 Red. masses --      1.4224                 1.5876                 2.1552
 Frc consts  --      0.9656                 1.0898                 1.8639
 IR Inten    --      1.3277                 0.0000                 8.4973

                     22                     23                     24
                      A                      A                      B
 Frequencies --   1371.7557              1425.6127              1426.2039
 Red. masses --      2.6035                 1.4862                 1.2314
 Frc consts  --      2.8865                 1.7796                 1.4757
 IR Inten    --      0.0000                 0.0000                 6.0715

                     25                     26                     27
                      B                      A                      A
 Frequencies --   1449.0916              1463.4818              1496.1959
 Red. masses --      1.2869                 1.2047                 1.0434
 Frc consts  --      1.5921                 1.5202                 1.3762
 IR Inten    --      3.3320                 0.0000                12.2820

                     28                     29                     30
                      B                      B                      A
 Frequencies --   1496.5784              1508.6665              1524.7456
 Red. masses --      1.0448                 1.0509                 1.0669
 Frc consts  --      1.3788                 1.4092                 1.4614
 IR Inten    --      0.0000                17.2261                 0.0000

                     31                     32                     33
                      B                      A                      A
 Frequencies --   1680.0932              1711.0699              3039.9451
 Red. masses --      3.8651                 4.9166                 1.0378
 Frc consts  --      6.4280                 8.4810                 5.6507
 IR Inten    --     23.2488                 0.0000                 0.0001

                     34                     35                     36
                      B                      B                      A
 Frequencies --   3040.4559              3094.7833              3095.1109
 Red. masses --      1.0376                 1.1003                 1.1006
 Frc consts  --      5.6512                 6.2091                 6.2118
 IR Inten    --     39.2648                 0.0002                41.3439

                     37                     38                     39
                      A                      B                      B
 Frequencies --   3131.3939              3132.2536              3168.5243
 Red. masses --      1.1010                 1.1009                 1.0614
 Frc consts  --      6.3608                 6.3635                 6.2785
 IR Inten    --      0.0001                37.2394                13.8401

                     40                     41                     42
                      A                      A                      B
 Frequencies --   3169.0622              3251.5728              3252.4393
 Red. masses --      1.0603                 1.1148                 1.1145
 Frc consts  --      6.2742                 6.9445                 6.9461
 IR Inten    --      0.0000                 0.0000                28.8221

 - Thermochemistry -
 -------------------
 Temperature   298.150 Kelvin.  Pressure   1.00000 Atm.
 Atom     1 has atomic number  6 and mass  12.00000

 Molecular mass:    82.07825 amu.
 Principal axes and moments of inertia in atomic units:
                           1         2         3
     Eigenvalues --   368.88720 552.38619 898.92611
           X            0.18522   0.98270   0.00000
           Y            0.98270  -0.18522   0.00000
           Z            0.00000   0.00000   1.00000
 This molecule is an asymmetric top.
 Rotational symmetry number  2.
 Rotational temperatures (Kelvin)      0.23480     0.15680     0.09635
 Rotational constants (GHZ):           4.89239     3.26717     2.00766
 Zero-point vibrational energy     373601.0 (Joules/Mol)
                                   89.29278 (Kcal/Mol)
 Warning -- explicit consideration of   9 degrees of freedom as
           vibrations may cause significant error
 Vibrational temperatures:    130.67   312.90   332.71   432.78   493.98
          (Kelvin)            581.16   685.61   708.23   815.49   971.41
                             1062.63  1148.84  1330.13  1333.25  1335.81
                             1415.66  1466.06  1510.67  1544.38  1552.99
                             1743.16  1973.65  2051.14  2051.99  2084.92
                             2105.62  2152.69  2153.24  2170.63  2193.77
                             2417.28  2461.84  4373.80  4374.53  4452.70
                             4453.17  4505.37  4506.61  4558.79  4559.57
                             4678.28  4679.53

 Zero-point correction=                           0.142297 (Hartree/Particle)
 Thermal correction to Energy=                    0.149352
 Thermal correction to Enthalpy=                  0.150296
 Thermal correction to Gibbs Free Energy=         0.112676
 Sum of electronic and zero-point Energies=           -234.499162
 Sum of electronic and thermal Energies=              -234.492107
 Sum of electronic and thermal Enthalpies=            -234.491163
 Sum of electronic and thermal Free Energies=         -234.528783

                     E (Thermal)             CV                S
                      KCal/Mol        Cal/Mol-Kelvin    Cal/Mol-Kelvin
 Total                   93.720             26.333             79.178
 Electronic               0.000              0.000              0.000
 Translational            0.889              2.981             39.129
 Rotational               0.889              2.981             25.330
 Vibrational             91.942             20.371             14.719
 Vibration     1          0.602              1.956              3.642
 Vibration     2          0.646              1.814              1.980
 Vibration     3          0.653              1.793              1.869
 Vibration     4          0.693              1.672              1.412
 Vibration     5          0.722              1.589              1.197
 Vibration     6          0.769              1.462              0.948
 Vibration     7          0.833              1.302              0.720
 Vibration     8          0.848              1.267              0.678
 Vibration     9          0.923              1.103              0.510

 Optimization completed.
    -- Stationary point found.
 Normal termination of Gaussian 09 at Fri Jul 23 06:09:49 2021.
