 Gaussian 09, Revision D.01,
 Gaussian 09:  ES64L-G09RevD.01 24-Apr-2013

 -------------------------
 #P OPT Freq B3LYP/6-31G**
 -------------------------

 -------
 Frag_81
 -------
 Symbolic Z-matrix:
 Charge =  0 Multiplicity = 1

 SCF Done:  E(RB3LYP) =  -157.232790287     A.U. after   13 cycles
 Optimization completed.
    -- Stationary point found.
 Normal termination of Gaussian 09 at Thu Jul 22 22:50:40 2021.

 ----------------------------------------------------------------------
 #P Geom=AllCheck Guess=TCheck SCRF=Check GenChk RB3LYP/6-31G(d,p) Freq
 ----------------------------------------------------------------------

 Structure from the checkpoint file:  "/vol2/users/liuj201281/HOFBenchmark/IsodesmicSplit/Sample60/Ring26/Running/Gau-307484.chk"
 -------
 Frag_81
 -------
 Charge =  0 Multiplicity = 1

                         Standard orientation:
 ---------------------------------------------------------------------
 Center     Atomic      Atomic             Coordinates (Angstroms)
 Number     Number       Type             X           Y           Z
 ---------------------------------------------------------------------
      1          6           0        1.862200    0.019021   -0.278422
      2          6           0        0.723300   -0.298080    0.337178
      3          6           0       -0.539501    0.519018    0.308578
      4          6           0       -1.730300   -0.244583   -0.294022
      5          1           0        2.740001   -0.617878   -0.223322
      6          1           0        1.959699    0.933121   -0.859922
      7          1           0        0.672001   -1.227781    0.906678
      8          1           0       -0.365102    1.443918   -0.254222
      9          1           0       -0.797101    0.821318    1.333978
     10          1           0       -1.531599   -0.521883   -1.334022
     11          1           0       -2.640200    0.363616   -0.271422
     12          1           0       -1.931899   -1.166683    0.262378
 ---------------------------------------------------------------------

 SCF Done:  E(RB3LYP) =  -157.232790287     A.U. after    1 cycles

 The electronic state is 1-A.
 Alpha  occ. eigenvalues --  -10.18523 -10.18444 -10.17586 -10.17345  -0.79311
 Alpha  occ. eigenvalues --   -0.72208  -0.62267  -0.54782  -0.46409  -0.43548
 Alpha  occ. eigenvalues --   -0.41902  -0.37688  -0.36822  -0.33871  -0.32934
 Alpha  occ. eigenvalues --   -0.25040
 Alpha virt. eigenvalues --    0.02481   0.10876   0.12853   0.13700   0.15908
 Alpha virt. eigenvalues --    0.17916   0.18077   0.18764   0.20007   0.23488
 Alpha virt. eigenvalues --    0.30167   0.37486   0.49609   0.51874   0.52929

 Mulliken charges:
               1
     1  C   -0.244222
     2  C   -0.014326
     3  C   -0.210539
     4  C   -0.315782
     5  H    0.094256
     6  H    0.090104
     7  H    0.079449
     8  H    0.097484
     9  H    0.105063
    10  H    0.112037
    11  H    0.102572
    12  H    0.103902
 Sum of Mulliken charges =   0.00000

 Dipole moment (field-independent basis, Debye):
    X=             -0.3330    Y=              0.0165    Z=              0.0950  Tot=              0.3467
 Quadrupole moment (field-independent basis, Debye-Ang):
   XX=            -26.2043   YY=            -26.0278   ZZ=            -26.9036
   XY=             -0.4387   XZ=             -0.6938   YZ=             -1.0610

  Exact polarizability:  56.442  -0.124  37.954  -6.514  -4.518  34.713
 Approx polarizability:  73.649   1.861  51.955 -13.190  -7.818  49.893

                      1                      2                      3
                      A                      A                      A
 Frequencies --    107.8880               234.5267               314.9679
 Red. masses --      2.2569                 1.0897                 1.7856
 Frc consts  --      0.0155                 0.0353                 0.1044
 IR Inten    --      0.0698                 0.0239                 0.3790

                      4                      5                      6
                      A                      A                      A
 Frequencies --    433.2957               653.1996               798.2441
 Red. masses --      1.9893                 1.4841                 1.1759
 Frc consts  --      0.2201                 0.3731                 0.4415
 IR Inten    --      0.8165                 7.4905                 2.9135

                      7                      8                      9
                      A                      A                      A
 Frequencies --    861.7785               939.5502               990.6251
 Red. masses --      1.9558                 1.3498                 1.1993
 Frc consts  --      0.8558                 0.7020                 0.6934
 IR Inten    --      1.8919                36.0123                 2.4491

                     10                     11                     12
                      A                      A                      A
 Frequencies --   1025.3000              1039.4187              1097.6638
 Red. masses --      1.8877                 1.2505                 1.6879
 Frc consts  --      1.1692                 0.7960                 1.1982
 IR Inten    --      2.7215                 7.9997                 3.0437

                     13                     14                     15
                      A                      A                      A
 Frequencies --   1204.3510              1295.8954              1323.6427
 Red. masses --      1.9216                 1.1755                 1.2504
 Frc consts  --      1.6422                 1.1631                 1.2908
 IR Inten    --      0.2825                 0.0453                 2.2210

                     16                     17                     18
                      A                      A                      A
 Frequencies --   1354.0662              1422.6629              1465.5917
 Red. masses --      1.4020                 1.2289                 1.1817
 Frc consts  --      1.5145                 1.4655                 1.4955
 IR Inten    --      3.7749                 0.6794                 1.1447

                     19                     20                     21
                      A                      A                      A
 Frequencies --   1495.3530              1512.0727              1522.0632
 Red. masses --      1.0798                 1.0407                 1.0698
 Frc consts  --      1.4226                 1.4020                 1.4602
 IR Inten    --      2.7242                 4.6904                 3.7080

                     22                     23                     24
                      A                      A                      A
 Frequencies --   1729.9524              3017.7839              3042.4420
 Red. masses --      4.5880                 1.0650                 1.0353
 Frc consts  --      8.0899                 5.7144                 5.6464
 IR Inten    --      8.2239                30.3174                30.8362

                     25                     26                     27
                      A                      A                      A
 Frequencies --   3067.8990              3112.1277              3120.6923
 Red. masses --      1.0969                 1.1018                 1.1031
 Frc consts  --      6.0828                 6.2871                 6.3294
 IR Inten    --     11.2723                33.2833                34.8285

                     28                     29                     30
                      A                      A                      A
 Frequencies --   3131.3326              3149.0191              3232.6535
 Red. masses --      1.0829                 1.0677                 1.1155
 Frc consts  --      6.2558                 6.2383                 6.8681
 IR Inten    --     36.4702                 4.9889                21.3889

 - Thermochemistry -
 -------------------
 Temperature   298.150 Kelvin.  Pressure   1.00000 Atm.
 Atom     1 has atomic number  6 and mass  12.00000

 Molecular mass:    56.06260 amu.
 Principal axes and moments of inertia in atomic units:
                           1         2         3
     Eigenvalues --    79.46343 438.33434 448.67363
           X            0.99999   0.00106  -0.00419
           Y           -0.00215   0.96286  -0.26998
           Z            0.00375   0.26998   0.96286
 This molecule is an asymmetric top.
 Rotational symmetry number  1.
 Rotational temperatures (Kelvin)      1.08998     0.19760     0.19304
 Rotational constants (GHZ):          22.71160     4.11727     4.02239
 Zero-point vibrational energy     285285.8 (Joules/Mol)
                                   68.18494 (Kcal/Mol)
 Warning -- explicit consideration of   4 degrees of freedom as
           vibrations may cause significant error
 Vibrational temperatures:    155.23   337.43   453.17   623.42   939.81
          (Kelvin)           1148.49  1239.91  1351.80  1425.29  1475.18
                             1495.49  1579.29  1732.79  1864.50  1904.42
                             1948.20  2046.89  2108.66  2151.48  2175.53
                             2189.91  2489.01  4341.91  4377.39  4414.02
                             4477.65  4489.97  4505.28  4530.73  4651.06

 Zero-point correction=                           0.108660 (Hartree/Particle)
 Thermal correction to Energy=                    0.113925
 Thermal correction to Enthalpy=                  0.114869
 Thermal correction to Gibbs Free Energy=         0.081157
 Sum of electronic and zero-point Energies=           -157.124131
 Sum of electronic and thermal Energies=              -157.118865
 Sum of electronic and thermal Enthalpies=            -157.117921
 Sum of electronic and thermal Free Energies=         -157.151634

                     E (Thermal)             CV                S
                      KCal/Mol        Cal/Mol-Kelvin    Cal/Mol-Kelvin
 Total                   71.489             17.715             70.954
 Electronic               0.000              0.000              0.000
 Translational            0.889              2.981             37.993
 Rotational               0.889              2.981             24.262
 Vibrational             69.712             11.753              8.699
 Vibration     1          0.606              1.943              3.307
 Vibration     2          0.654              1.788              1.844
 Vibration     3          0.702              1.645              1.336
 Vibration     4          0.794              1.398              0.848

 Optimization completed.
    -- Stationary point found.
 Normal termination of Gaussian 09 at Thu Jul 22 22:51:01 2021.
