 Gaussian 09, Revision E.01,
 Gaussian 09:  ES64L-G09RevE.01 30-Nov-2015

 ----------------------------
 #P OPT Freq B3LYP/6-31G(d,p)
 ----------------------------

 --------
 Frag_692
 --------
 Symbolic Z-matrix:
 Charge =  0 Multiplicity = 1

 SCF Done:  E(RB3LYP) =  -247.201870057     A.U. after   17 cycles
 SCF Done:  E(RB3LYP) =  -247.201989341     A.U. after   13 cycles
 SCF Done:  E(RB3LYP) =  -247.202000193     A.U. after   11 cycles
 SCF Done:  E(RB3LYP) =  -247.202003271     A.U. after   11 cycles
 SCF Done:  E(RB3LYP) =  -247.202005296     A.U. after   10 cycles
 SCF Done:  E(RB3LYP) =  -247.202006769     A.U. after   11 cycles
 SCF Done:  E(RB3LYP) =  -247.202007357     A.U. after   10 cycles
 SCF Done:  E(RB3LYP) =  -247.202007775     A.U. after   10 cycles
 SCF Done:  E(RB3LYP) =  -247.202007950     A.U. after   10 cycles
 SCF Done:  E(RB3LYP) =  -247.202007992     A.U. after   10 cycles
 SCF Done:  E(RB3LYP) =  -247.202008025     A.U. after    9 cycles
 SCF Done:  E(RB3LYP) =  -247.202008036     A.U. after    9 cycles
 Optimization completed.
    -- Stationary point found.
 Normal termination of Gaussian 09 at Thu Sep  8 15:22:08 2022.

 ----------------------------------------------------------------------
 #P Geom=AllCheck Guess=TCheck SCRF=Check GenChk RB3LYP/6-31G(d,p) Freq
 ----------------------------------------------------------------------

 Structure from the checkpoint file:  "B3LYP6-31Gdp.Frag_692.chk"
 --------
 Frag_692
 --------
 Charge =  0 Multiplicity = 1

                         Standard orientation:
 ---------------------------------------------------------------------
 Center     Atomic      Atomic             Coordinates (Angstroms)
 Number     Number       Type             X           Y           Z
 ---------------------------------------------------------------------
      1          6           0       -0.235892    1.455189   -0.013708
      2          6           0       -0.390785    0.126695   -0.001518
      3          6           0       -1.684115   -0.631558    0.025605
      4          7           0        0.771652   -0.766320   -0.089811
      5          8           0        1.853428   -0.228273    0.063925
      6          1           0        0.763691    1.876162   -0.051183
      7          1           0       -1.083825    2.131030    0.008016
      8          1           0       -1.740801   -1.273383    0.912135
      9          1           0       -1.761723   -1.289957   -0.846412
     10          1           0       -2.541577    0.044620    0.032449
 ---------------------------------------------------------------------

 SCF Done:  E(RB3LYP) =  -247.202008036     A.U. after    1 cycles

 The electronic state is 1-A.
 Alpha  occ. eigenvalues --  -19.20213 -14.44214 -10.23188 -10.21193 -10.19848
 Alpha  occ. eigenvalues --   -1.14549  -0.83604  -0.71190  -0.70005  -0.54134
 Alpha  occ. eigenvalues --   -0.50200  -0.47506  -0.45739  -0.41639  -0.41379
 Alpha  occ. eigenvalues --   -0.39795  -0.38317  -0.28115  -0.22217
 Alpha virt. eigenvalues --   -0.10278   0.03205   0.10317   0.12404   0.14768
 Alpha virt. eigenvalues --    0.16634   0.17374   0.22429   0.27648   0.31739
 Alpha virt. eigenvalues --    0.34121   0.49718   0.50577   0.56960   0.58181

 Mulliken charges:
               1
     1  C   -0.222459
     2  C    0.218145
     3  C   -0.354943
     4  N   -0.010798
     5  O   -0.270581
     6  H    0.134918
     7  H    0.117195
     8  H    0.134751
     9  H    0.137499
    10  H    0.116275
 Sum of Mulliken charges =  -0.00000

 Dipole moment (field-independent basis, Debye):
    X=             -2.5288    Y=              1.2690    Z=              0.0326  Tot=              2.8295
 Quadrupole moment (field-independent basis, Debye-Ang):
   XX=            -31.0520   YY=            -28.4010   ZZ=            -29.3858
   XY=              1.2607   XZ=             -0.1555   YZ=             -0.4105

  Exact polarizability:  49.382  -1.248  51.188   0.166  -0.076  23.491
 Approx polarizability:  75.766  -5.368  84.545   1.232  -0.023  33.801

                      1                      2                      3
                      A                      A                      A
 Frequencies --     59.1478               118.9931               329.4158
 Red. masses --      8.9395                 1.0499                 3.6186
 Frc consts  --      0.0184                 0.0088                 0.2314
 IR Inten    --      0.5570                 0.6226                 1.5565

                      4                      5                      6
                      A                      A                      A
 Frequencies --    384.8368               410.5570               602.4314
 Red. masses --      2.4512                 2.9228                 3.6960
 Frc consts  --      0.2139                 0.2903                 0.7903
 IR Inten    --      1.5625                 0.9243                 1.6861

                      7                      8                      9
                      A                      A                      A
 Frequencies --    698.7647               839.9501               923.2711
 Red. masses --      1.0939                 4.9705                 2.0239
 Frc consts  --      0.3147                 2.0661                 1.0165
 IR Inten    --      0.9018                54.5439                19.5794

                     10                     11                     12
                      A                      A                      A
 Frequencies --    981.1761              1023.9515              1070.8878
 Red. masses --      1.3449                 1.4887                 1.4546
 Frc consts  --      0.7629                 0.9196                 0.9828
 IR Inten    --     30.6332                 6.2141                 1.8607

                     13                     14                     15
                      A                      A                      A
 Frequencies --   1246.4870              1408.6796              1441.1240
 Red. masses --      2.5909                 1.1692                 1.3031
 Frc consts  --      2.3718                 1.3670                 1.5945
 IR Inten    --     13.4280                 8.7065                 6.3081

                     16                     17                     18
                      A                      A                      A
 Frequencies --   1486.1521              1499.2715              1596.9387
 Red. masses --      1.0430                 1.0506                 9.7530
 Frc consts  --      1.3572                 1.3914                14.6543
 IR Inten    --      6.7385                16.0040               135.8314

                     19                     20                     21
                      A                      A                      A
 Frequencies --   1730.0066              3047.2011              3104.1534
 Red. masses --      6.5732                 1.0376                 1.1002
 Frc consts  --     11.5910                 5.6763                 6.2462
 IR Inten    --      3.2410                11.3124                12.0278

                     22                     23                     24
                      A                      A                      A
 Frequencies --   3143.9333              3170.4391              3266.0663
 Red. masses --      1.1021                 1.0583                 1.1180
 Frc consts  --      6.4183                 6.2675                 7.0263
 IR Inten    --     10.1619                 5.1908                 0.7556

 - Thermochemistry -
 -------------------
 Temperature   298.150 Kelvin.  Pressure   1.00000 Atm.
 Atom     1 has atomic number  6 and mass  12.00000

 Molecular mass:    71.03711 amu.
 Principal axes and moments of inertia in atomic units:
                           1         2         3
     Eigenvalues --   187.22651 413.00051 587.71568
           X            0.99860   0.05289  -0.00214
           Y           -0.05290   0.99860  -0.00310
           Z            0.00197   0.00321   0.99999
 This molecule is an asymmetric top.
 Rotational symmetry number  1.
 Rotational temperatures (Kelvin)      0.46262     0.20972     0.14737
 Rotational constants (GHZ):           9.63935     4.36983     3.07077
 Zero-point vibrational energy     200875.9 (Joules/Mol)
                                   48.01050 (Kcal/Mol)
 Warning -- explicit consideration of   6 degrees of freedom as
           vibrations may cause significant error
 Vibrational temperatures:     85.10   171.20   473.96   553.69   590.70
          (Kelvin)            866.76  1005.37  1208.50  1328.38  1411.69
                             1473.24  1540.77  1793.41  2026.77  2073.45
                             2138.24  2157.11  2297.64  2489.09  4384.24
                             4466.18  4523.41  4561.55  4699.14

 Zero-point correction=                           0.076510 (Hartree/Particle)
 Thermal correction to Energy=                    0.082398
 Thermal correction to Enthalpy=                  0.083342
 Thermal correction to Gibbs Free Energy=         0.047115
 Sum of electronic and zero-point Energies=           -247.125498
 Sum of electronic and thermal Energies=              -247.119610
 Sum of electronic and thermal Enthalpies=            -247.118666
 Sum of electronic and thermal Free Energies=         -247.154894

                     E (Thermal)             CV                S
                      KCal/Mol        Cal/Mol-Kelvin    Cal/Mol-Kelvin
 Total                   51.705             19.017             76.247
 Electronic               0.000              0.000              0.000
 Translational            0.889              2.981             38.699
 Rotational               0.889              2.981             25.322
 Vibrational             49.928             13.055             12.226
 Vibration     1          0.597              1.974              4.485
 Vibration     2          0.609              1.933              3.117
 Vibration     3          0.712              1.617              1.263
 Vibration     4          0.754              1.503              1.020
 Vibration     5          0.775              1.447              0.925
 Vibration     6          0.961              1.027              0.445

 Optimization completed.
    -- Stationary point found.
 Normal termination of Gaussian 09 at Thu Sep  8 15:22:15 2022.
