 Gaussian 09, Revision E.01,
 Gaussian 09:  ES64L-G09RevE.01 30-Nov-2015

 --------------------------------
 #P OPT=calcfc Freq B3LYP/6-31G**
 --------------------------------

 --------
 Frag_405
 --------
 Symbolic Z-matrix:
 Charge =  0 Multiplicity = 1

 SCF Done:  E(RB3LYP) =  -233.677596402     A.U. after   13 cycles
 SCF Done:  E(RB3LYP) =  -233.681119896     A.U. after   10 cycles
 SCF Done:  E(RB3LYP) =  -233.681286607     A.U. after   11 cycles
 SCF Done:  E(RB3LYP) =  -233.681300004     A.U. after    9 cycles
 SCF Done:  E(RB3LYP) =  -233.681300259     A.U. after    7 cycles
 Optimization completed.
    -- Stationary point found.
 Normal termination of Gaussian 09 at Fri Sep 10 19:01:01 2021.

 ----------------------------------------------------------------------
 #P Geom=AllCheck Guess=TCheck SCRF=Check GenChk RB3LYP/6-31G(d,p) Freq
 ----------------------------------------------------------------------

 Structure from the checkpoint file:  "/public/home/users/caep010/.cache/gau_scr/Gau-132552.chk"
 --------
 Frag_405
 --------
 Charge =  0 Multiplicity = 1

                         Standard orientation:
 ---------------------------------------------------------------------
 Center     Atomic      Atomic             Coordinates (Angstroms)
 Number     Number       Type             X           Y           Z
 ---------------------------------------------------------------------
      1          6           0       -0.550358    1.468452    0.120965
      2          6           0       -0.446679    0.008101   -0.334059
      3          6           0       -1.717223   -0.786004   -0.003462
      4          6           0        0.786000   -0.677211    0.273731
      5          8           0        2.011962   -0.020826   -0.030083
      6          1           0        0.381221    2.003660   -0.079845
      7          1           0       -0.740666    1.524440    1.199880
      8          1           0       -1.368596    1.987230   -0.389413
      9          1           0       -0.316663   -0.002535   -1.428948
     10          1           0       -1.890281   -0.813658    1.079170
     11          1           0       -2.598317   -0.329799   -0.465866
     12          1           0       -1.652039   -1.820963   -0.357452
     13          1           0        0.711878   -0.667226    1.367803
     14          1           0        0.815106   -1.733739   -0.039488
     15          1           0        2.132219   -0.060831   -0.988225
 ---------------------------------------------------------------------

 SCF Done:  E(RB3LYP) =  -233.681300259     A.U. after    1 cycles

 The electronic state is 1-A.
 Alpha  occ. eigenvalues --  -19.14028 -10.22403 -10.18844 -10.17638 -10.16816
 Alpha  occ. eigenvalues --   -1.01152  -0.79526  -0.68097  -0.66821  -0.57143
 Alpha  occ. eigenvalues --   -0.49079  -0.46638  -0.43897  -0.40810  -0.39461
 Alpha  occ. eigenvalues --   -0.38048  -0.35879  -0.33872  -0.32923  -0.31175
 Alpha  occ. eigenvalues --   -0.26201
 Alpha virt. eigenvalues --    0.07417   0.09575   0.12976   0.14830   0.15688
 Alpha virt. eigenvalues --    0.15959   0.17554   0.18167   0.18630   0.21303
 Alpha virt. eigenvalues --    0.23639   0.24449   0.25729   0.26674   0.50700

 Mulliken charges:
               1
     1  C   -0.303165
     2  C   -0.082645
     3  C   -0.314606
     4  C    0.074970
     5  O   -0.539921
     6  H    0.114643
     7  H    0.098417
     8  H    0.095155
     9  H    0.074258
    10  H    0.103379
    11  H    0.103917
    12  H    0.098697
    13  H    0.101197
    14  H    0.075159
    15  H    0.300545
 Sum of Mulliken charges =  -0.00000

 Dipole moment (field-independent basis, Debye):
    X=             -0.9580    Y=             -0.5681    Z=             -1.1835  Tot=              1.6251
 Quadrupole moment (field-independent basis, Debye-Ang):
   XX=            -36.0323   YY=            -33.2381   ZZ=            -30.8153
   XY=             -0.6925   XZ=             -3.1283   YZ=             -0.0881

  Exact polarizability:  50.121   0.709  47.973  -1.149  -0.161  45.064
 Approx polarizability:  63.934   1.409  61.686  -1.438  -0.035  65.429

                      1                      2                      3
                      A                      A                      A
 Frequencies --    135.9585               222.1364               238.3632
 Red. masses --      2.1961                 1.0674                 1.2576
 Frc consts  --      0.0239                 0.0310                 0.0421
 IR Inten    --      3.0232                 0.5079                 0.7573

                      4                      5                      6
                      A                      A                      A
 Frequencies --    264.5772               315.0293               348.7657
 Red. masses --      1.9742                 1.1700                 2.2395
 Frc consts  --      0.0814                 0.0684                 0.1605
 IR Inten    --      3.2506               114.6730                 0.8867

                      7                      8                      9
                      A                      A                      A
 Frequencies --    433.0059               494.1214               821.3041
 Red. masses --      1.7965                 3.4710                 2.6368
 Frc consts  --      0.1985                 0.4993                 1.0479
 IR Inten    --     14.4642                 9.0699                 3.3233

                     10                     11                     12
                      A                      A                      A
 Frequencies --    905.2644               936.7320               955.3420
 Red. masses --      1.4162                 1.2280                 1.5473
 Frc consts  --      0.6838                 0.6348                 0.8320
 IR Inten    --      8.8735                 1.0838                 2.5476

                     13                     14                     15
                      A                      A                      A
 Frequencies --    974.4090              1072.2403              1117.8601
 Red. masses --      1.5617                 3.3238                 1.4312
 Frc consts  --      0.8736                 2.2515                 1.0537
 IR Inten    --      3.3963               123.0403                 1.1114

                     16                     17                     18
                      A                      A                      A
 Frequencies --   1150.4189              1204.1574              1256.9343
 Red. masses --      2.1798                 1.7282                 1.5499
 Frc consts  --      1.6998                 1.4764                 1.4428
 IR Inten    --      0.6580                 0.2584                 7.9902

                     19                     20                     21
                      A                      A                      A
 Frequencies --   1334.2305              1378.8405              1396.8434
 Red. masses --      1.2440                 1.3612                 1.2794
 Frc consts  --      1.3048                 1.5247                 1.4708
 IR Inten    --      2.8962                 2.9563                16.0380

                     22                     23                     24
                      A                      A                      A
 Frequencies --   1413.1894              1418.8839              1440.3246
 Red. masses --      1.2632                 1.3157                 1.2479
 Frc consts  --      1.4864                 1.5606                 1.5253
 IR Inten    --     19.0362                 2.9291                19.7448

                     25                     26                     27
                      A                      A                      A
 Frequencies --   1503.3708              1504.0833              1517.3555
 Red. masses --      1.0513                 1.0509                 1.0523
 Frc consts  --      1.4000                 1.4007                 1.4274
 IR Inten    --      2.3421                 0.5304                 5.0391

                     28                     29                     30
                      A                      A                      A
 Frequencies --   1521.0321              1527.1977              2980.2406
 Red. masses --      1.0738                 1.0593                 1.0772
 Frc consts  --      1.4637                 1.4556                 5.6369
 IR Inten    --      0.7792                 9.3299                53.9400

                     31                     32                     33
                      A                      A                      A
 Frequencies --   2987.3445              3034.5442              3039.4452
 Red. masses --      1.0748                 1.0363                 1.0383
 Frc consts  --      5.6516                 5.6223                 5.6516
 IR Inten    --     48.1160                29.5979                19.6161

                     34                     35                     36
                      A                      A                      A
 Frequencies --   3072.8673              3100.3463              3104.6807
 Red. masses --      1.0945                 1.1014                 1.1009
 Frc consts  --      6.0890                 6.2377                 6.2522
 IR Inten    --     31.3952                16.3579                59.2309

                     37                     38                     39
                      A                      A                      A
 Frequencies --   3112.8452              3132.8480              3807.1180
 Red. masses --      1.1017                 1.1008                 1.0662
 Frc consts  --      6.2897                 6.3656                 9.1047
 IR Inten    --     40.2582                20.5176                10.9377

 - Thermochemistry -
 -------------------
 Temperature   298.150 Kelvin.  Pressure   1.00000 Atm.
 Atom     1 has atomic number  6 and mass  12.00000

 Molecular mass:    74.07317 amu.
 Principal axes and moments of inertia in atomic units:
                           1         2         3
     Eigenvalues --   240.13036 519.23761 684.55458
           X            0.99994   0.00377  -0.01062
           Y           -0.00376   0.99999   0.00082
           Z            0.01062  -0.00078   0.99994
 This molecule is an asymmetric top.
 Rotational symmetry number  1.
 Rotational temperatures (Kelvin)      0.36069     0.16681     0.12653
 Rotational constants (GHZ):           7.51567     3.47575     2.63637
 Zero-point vibrational energy     359922.0 (Joules/Mol)
                                   86.02341 (Kcal/Mol)
 Warning -- explicit consideration of   8 degrees of freedom as
           vibrations may cause significant error
 Vibrational temperatures:    195.61   319.60   342.95   380.67   453.26
          (Kelvin)            501.80   623.00   710.93  1181.67  1302.47
                             1347.75  1374.52  1401.96  1542.71  1608.35
                             1655.19  1732.51  1808.45  1919.66  1983.84
                             2009.74  2033.26  2041.45  2072.30  2163.01
                             2164.04  2183.13  2188.42  2197.29  4287.90
                             4298.12  4366.03  4373.08  4421.17  4460.70
                             4466.94  4478.68  4507.46  5477.59

 Zero-point correction=                           0.137087 (Hartree/Particle)
 Thermal correction to Energy=                    0.143782
 Thermal correction to Enthalpy=                  0.144726
 Thermal correction to Gibbs Free Energy=         0.107604
 Sum of electronic and zero-point Energies=           -233.544213
 Sum of electronic and thermal Energies=              -233.537518
 Sum of electronic and thermal Enthalpies=            -233.536574
 Sum of electronic and thermal Free Energies=         -233.573696

                     E (Thermal)             CV                S
                      KCal/Mol        Cal/Mol-Kelvin    Cal/Mol-Kelvin
 Total                   90.225             23.671             78.130
 Electronic               0.000              0.000              0.000
 Translational            0.889              2.981             38.823
 Rotational               0.889              2.981             25.948
 Vibrational             88.447             17.709             13.359
 Vibration     1          0.614              1.917              2.860
 Vibration     2          0.648              1.807              1.942
 Vibration     3          0.656              1.782              1.815
 Vibration     4          0.671              1.738              1.631
 Vibration     5          0.702              1.645              1.336
 Vibration     6          0.726              1.578              1.172
 Vibration     7          0.794              1.398              0.849
 Vibration     8          0.850              1.263              0.673

 Optimization completed.
    -- Stationary point found.
 Normal termination of Gaussian 09 at Fri Sep 10 19:01:12 2021.
