 Gaussian 09, Revision E.01,
 Gaussian 09:  ES64L-G09RevE.01 30-Nov-2015

 -------------------------
 #P OPT Freq B3LYP/6-31G**
 -------------------------

 --------
 Frag_144
 --------
 Symbolic Z-matrix:
 Charge =  0 Multiplicity = 1

 SCF Done:  E(RB3LYP) =  -338.419554507     A.U. after   17 cycles
 SCF Done:  E(RB3LYP) =  -338.449040262     A.U. after   15 cycles
 SCF Done:  E(RB3LYP) =  -338.454796040     A.U. after   15 cycles
 SCF Done:  E(RB3LYP) =  -338.453620951     A.U. after   15 cycles
 SCF Done:  E(RB3LYP) =  -338.455604577     A.U. after   11 cycles
 SCF Done:  E(RB3LYP) =  -338.455874886     A.U. after   15 cycles
 SCF Done:  E(RB3LYP) =  -338.456653189     A.U. after   14 cycles
 SCF Done:  E(RB3LYP) =  -338.456718984     A.U. after   12 cycles
 SCF Done:  E(RB3LYP) =  -338.456755467     A.U. after   12 cycles
 SCF Done:  E(RB3LYP) =  -338.456768033     A.U. after   12 cycles
 SCF Done:  E(RB3LYP) =  -338.456773936     A.U. after   10 cycles
 SCF Done:  E(RB3LYP) =  -338.456774610     A.U. after    9 cycles
 SCF Done:  E(RB3LYP) =  -338.456775269     A.U. after   10 cycles
 SCF Done:  E(RB3LYP) =  -338.456777326     A.U. after   13 cycles
 SCF Done:  E(RB3LYP) =  -338.456781297     A.U. after   13 cycles
 SCF Done:  E(RB3LYP) =  -338.456781639     A.U. after   12 cycles
 Optimization completed.
    -- Stationary point found.
 Normal termination of Gaussian 09 at Sat Aug 21 01:35:00 2021.

 ----------------------------------------------------------------------
 #P Geom=AllCheck Guess=TCheck SCRF=Check GenChk RB3LYP/6-31G(d,p) Freq
 ----------------------------------------------------------------------

 Structure from the checkpoint file:  "/public/home/users/caep010/.cache/gau_scr/Gau-118385.chk"
 --------
 Frag_144
 --------
 Charge =  0 Multiplicity = 1

                         Standard orientation:
 ---------------------------------------------------------------------
 Center     Atomic      Atomic             Coordinates (Angstroms)
 Number     Number       Type             X           Y           Z
 ---------------------------------------------------------------------
      1          6           0        1.566770    0.945222    0.000564
      2          6           0        0.679449   -0.262347   -0.000063
      3          7           0        0.930977   -1.492953   -0.000643
      4          7           0       -0.814344    0.083332   -0.000038
      5          8           0       -1.620599   -0.829128    0.000788
      6          8           0       -1.078147    1.286523   -0.000772
      7          1           0        1.370795    1.566595    0.878040
      8          1           0        2.612545    0.631037    0.001055
      9          1           0        1.371609    1.566865   -0.876893
     10          1           0        1.941268   -1.653564   -0.000577
 ---------------------------------------------------------------------

 SCF Done:  E(RB3LYP) =  -338.456781639     A.U. after    1 cycles

 The electronic state is 1-A.
 Alpha  occ. eigenvalues --  -19.19065 -19.19005 -14.57364 -14.36796 -10.30803
 Alpha  occ. eigenvalues --  -10.22547  -1.23182  -1.06212  -0.96106  -0.78505
 Alpha  occ. eigenvalues --   -0.72623  -0.58172  -0.54004  -0.53437  -0.51927
 Alpha  occ. eigenvalues --   -0.48982  -0.45406  -0.44220  -0.35518  -0.33156
 Alpha  occ. eigenvalues --   -0.31555  -0.30159  -0.29281
 Alpha virt. eigenvalues --   -0.09698   0.00328   0.05933   0.10328   0.13131
 Alpha virt. eigenvalues --    0.15095   0.16248   0.22449   0.27240   0.33217
 Alpha virt. eigenvalues --    0.38167   0.49904   0.50789   0.54499   0.56063

 Mulliken charges:
               1
     1  C   -0.350334
     2  C    0.390283
     3  N   -0.454337
     4  N    0.446140
     5  O   -0.347828
     6  O   -0.386723
     7  H    0.163656
     8  H    0.121285
     9  H    0.163696
    10  H    0.254163
 Sum of Mulliken charges =  -0.00000

 Dipole moment (field-independent basis, Debye):
    X=              4.5634    Y=              0.9490    Z=              0.0009  Tot=              4.6610
 Quadrupole moment (field-independent basis, Debye-Ang):
   XX=            -32.2282   YY=            -38.1935   ZZ=            -32.6116
   XY=             -0.6620   XZ=              0.0007   YZ=              0.0020

  Exact polarizability:  45.418  -1.358  53.600  -0.003  -0.002  23.261
 Approx polarizability:  61.554   0.986 109.016  -0.010  -0.019  33.746

                      1                      2                      3
                      A                      A                      A
 Frequencies --     22.6727               169.4698               315.1379
 Red. masses --      6.8683                 1.0374                 4.7664
 Frc consts  --      0.0021                 0.0176                 0.2789
 IR Inten    --      1.4128                 0.4161                 3.4923

                      4                      5                      6
                      A                      A                      A
 Frequencies --    411.2157               421.3669               536.1729
 Red. masses --      3.8330                 4.5767                 6.2323
 Frc consts  --      0.3819                 0.4788                 1.0556
 IR Inten    --      1.8198                 1.3136                 2.7910

                      7                      8                      9
                      A                      A                      A
 Frequencies --    591.0508               675.6807               855.6154
 Red. masses --      3.4543                 3.1665                12.4149
 Frc consts  --      0.7110                 0.8518                 5.3549
 IR Inten    --     31.7607                 0.8917                28.0515

                     10                     11                     12
                      A                      A                      A
 Frequencies --    935.3116               976.5126              1046.0929
 Red. masses --      1.4140                 2.9442                 1.2806
 Frc consts  --      0.7288                 1.6542                 0.8257
 IR Inten    --     46.0808                 8.1539                55.4294

                     13                     14                     15
                      A                      A                      A
 Frequencies --   1076.6818              1289.0408              1397.9576
 Red. masses --      1.5138                 1.8383                 7.1889
 Frc consts  --      1.0339                 1.7997                 8.2776
 IR Inten    --     16.0748                83.9746                69.8628

                     16                     17                     18
                      A                      A                      A
 Frequencies --   1424.2235              1474.5615              1483.9995
 Red. masses --      1.3549                 1.0446                 1.0649
 Frc consts  --      1.6192                 1.3382                 1.3818
 IR Inten    --     33.5577                 8.6983                26.0918

                     19                     20                     21
                      A                      A                      A
 Frequencies --   1678.9945              1791.5878              3068.5928
 Red. masses --     13.8535                 9.5500                 1.0348
 Frc consts  --     23.0095                18.0605                 5.7410
 IR Inten    --    230.9405                43.5995                 3.1164

                     22                     23                     24
                      A                      A                      A
 Frequencies --   3143.3497              3156.5064              3484.0579
 Red. masses --      1.1006                 1.1056                 1.0761
 Frc consts  --      6.4074                 6.4902                 7.6958
 IR Inten    --      0.9937                 7.9114                 1.5613

 - Thermochemistry -
 -------------------
 Temperature   298.150 Kelvin.  Pressure   1.00000 Atm.
 Atom     1 has atomic number  6 and mass  12.00000

 Molecular mass:    88.02728 amu.
 Principal axes and moments of inertia in atomic units:
                           1         2         3
     Eigenvalues --   320.45508 473.67244 783.04309
           X            0.99772   0.06752   0.00002
           Y           -0.06752   0.99772   0.00004
           Z           -0.00002  -0.00004   1.00000
 This molecule is an asymmetric top.
 Rotational symmetry number  1.
 Rotational temperatures (Kelvin)      0.27028     0.18286     0.11061
 Rotational constants (GHZ):           5.63181     3.81010     2.30478
 Zero-point vibrational energy     187968.3 (Joules/Mol)
                                   44.92551 (Kcal/Mol)
 Warning -- explicit consideration of   7 degrees of freedom as
           vibrations may cause significant error
 Vibrational temperatures:     32.62   243.83   453.41   591.65   606.25
          (Kelvin)            771.43   850.39   972.15  1231.04  1345.70
                             1404.98  1505.09  1549.10  1854.64  2011.35
                             2049.14  2121.56  2135.14  2415.70  2577.69
                             4415.02  4522.57  4541.50  5012.78

 Zero-point correction=                           0.071593 (Hartree/Particle)
 Thermal correction to Energy=                    0.077655
 Thermal correction to Enthalpy=                  0.078599
 Thermal correction to Gibbs Free Energy=         0.040781
 Sum of electronic and zero-point Energies=           -338.385188
 Sum of electronic and thermal Energies=              -338.379126
 Sum of electronic and thermal Enthalpies=            -338.378182
 Sum of electronic and thermal Free Energies=         -338.416001

                     E (Thermal)             CV                S
                      KCal/Mol        Cal/Mol-Kelvin    Cal/Mol-Kelvin
 Total                   48.729             20.074             79.596
 Electronic               0.000              0.000              0.000
 Translational            0.889              2.981             39.338
 Rotational               0.889              2.981             26.277
 Vibrational             46.952             14.112             13.981
 Vibration     1          0.593              1.985              6.385
 Vibration     2          0.625              1.880              2.441
 Vibration     3          0.702              1.645              1.335
 Vibration     4          0.775              1.446              0.922
 Vibration     5          0.784              1.424              0.887
 Vibration     6          0.891              1.170              0.574
 Vibration     7          0.948              1.051              0.465

 Normal termination of Gaussian 09 at Sat Aug 21 01:35:09 2021.
