 Gaussian 09, Revision D.01,
 Gaussian 09:  ES64L-G09RevD.01 24-Apr-2013

 -------------------------
 #P OPT Freq B3LYP/6-31G**
 -------------------------

 ------
 Frag_7
 ------
 Symbolic Z-matrix:
 Charge =  0 Multiplicity = 1

 SCF Done:  E(RB3LYP) =  -173.277554093     A.U. after   13 cycles
 Optimization completed.
    -- Stationary point found.
 Normal termination of Gaussian 09 at Fri Jul 23 19:42:14 2021.

 ----------------------------------------------------------------------
 #P Geom=AllCheck Guess=TCheck SCRF=Check GenChk RB3LYP/6-31G(d,p) Freq
 ----------------------------------------------------------------------

 Structure from the checkpoint file:  "/vol2/users/liuj201281/HOFBenchmark/IsodesmicSplit/Sample60/Ring26/Running/Gau-469792.chk"
 ------
 Frag_7
 ------
 Charge =  0 Multiplicity = 1

                         Standard orientation:
 ---------------------------------------------------------------------
 Center     Atomic      Atomic             Coordinates (Angstroms)
 Number     Number       Type             X           Y           Z
 ---------------------------------------------------------------------
      1          6           0        0.844866    1.179177   -0.019206
      2          6           0        0.088227    0.070703   -0.001606
      3          6           0       -1.417971    0.110355    0.003494
      4          7           0        0.616583   -1.225415    0.092994
      5          1           0        1.930064    1.132740   -0.023206
      6          1           0        0.390800    2.161893    0.003394
      7          1           0       -1.828689   -0.418731   -0.867106
      8          1           0       -1.815288   -0.383931    0.897494
      9          1           0       -1.785536    1.137368   -0.022206
     10          1           0        0.096258   -1.926997   -0.419906
     11          1           0        1.605581   -1.285849   -0.115506
 ---------------------------------------------------------------------

 SCF Done:  E(RB3LYP) =  -173.277554093     A.U. after    1 cycles

 The electronic state is 1-A.
 Alpha  occ. eigenvalues --  -14.33025 -10.21519 -10.18087 -10.14870  -0.90228
 Alpha  occ. eigenvalues --   -0.74772  -0.67871  -0.54890  -0.50045  -0.45967
 Alpha  occ. eigenvalues --   -0.41793  -0.39174  -0.38174  -0.35036  -0.30963
 Alpha  occ. eigenvalues --   -0.19758
 Alpha virt. eigenvalues --    0.04958   0.08198   0.13092   0.14194   0.15191
 Alpha virt. eigenvalues --    0.17776   0.18623   0.20889   0.24571   0.34135
 Alpha virt. eigenvalues --    0.39082   0.52977   0.53735   0.53820   0.59800

 Mulliken charges:
               1
     1  C   -0.314810
     2  C    0.305589
     3  C   -0.367550
     4  N   -0.623379
     5  H    0.069621
     6  H    0.081840
     7  H    0.105381
     8  H    0.126530
     9  H    0.118232
    10  H    0.247478
    11  H    0.251067
 Sum of Mulliken charges =   0.00000

 Dipole moment (field-independent basis, Debye):
    X=             -0.2378    Y=             -1.0990    Z=             -1.0353  Tot=              1.5285
 Quadrupole moment (field-independent basis, Debye-Ang):
   XX=            -23.0311   YY=            -23.8719   ZZ=            -27.9536
   XY=             -1.1789   XZ=             -0.6107   YZ=              2.2177

  Exact polarizability:  44.588   5.713  50.298   0.093   0.654  23.085
 Approx polarizability:  58.472  12.601  75.912   0.173  -0.273  32.001

                      1                      2                      3
                      A                      A                      A
 Frequencies --    182.1509               341.2604               416.3139
 Red. masses --      1.0546                 1.0594                 2.2710
 Frc consts  --      0.0206                 0.0727                 0.2319
 IR Inten    --      1.2478                43.0549                 0.5942

                      4                      5                      6
                      A                      A                      A
 Frequencies --    461.9382               500.5170               641.9075
 Red. masses --      2.1544                 2.0288                 1.1365
 Frc consts  --      0.2709                 0.2995                 0.2759
 IR Inten    --      9.9170                25.4617               203.9554

                      7                      8                      9
                      A                      A                      A
 Frequencies --    749.2547               808.2134               860.4721
 Red. masses --      1.2765                 1.4191                 3.2137
 Frc consts  --      0.4222                 0.5462                 1.4020
 IR Inten    --     38.8332                75.7708                 1.5701

                     10                     11                     12
                      A                      A                      A
 Frequencies --    991.3670              1024.9705              1075.4601
 Red. masses --      1.3265                 1.5496                 1.4949
 Frc consts  --      0.7681                 0.9592                 1.0187
 IR Inten    --      3.5078                 3.6067                 3.5598

                     13                     14                     15
                      A                      A                      A
 Frequencies --   1155.9837              1364.0076              1427.3038
 Red. masses --      1.4068                 2.3670                 1.4163
 Frc consts  --      1.1076                 2.5947                 1.7000
 IR Inten    --      0.4205                40.1225                18.5146

                     16                     17                     18
                      A                      A                      A
 Frequencies --   1459.4814              1492.3993              1508.6537
 Red. masses --      1.2043                 1.0443                 1.0568
 Frc consts  --      1.5114                 1.3704                 1.4171
 IR Inten    --      0.4364                 6.6047                 7.6469

                     19                     20                     21
                      A                      A                      A
 Frequencies --   1661.7284              1736.0561              3028.5779
 Red. masses --      1.1522                 4.6951                 1.0434
 Frc consts  --      1.8745                 8.3372                 5.6386
 IR Inten    --     38.8027               103.5276                33.8428

                     22                     23                     24
                      A                      A                      A
 Frequencies --   3084.5515              3149.8549              3164.0568
 Red. masses --      1.0958                 1.0989                 1.0624
 Frc consts  --      6.1427                 6.4240                 6.2667
 IR Inten    --     24.0755                15.7989                 6.3449

                     25                     26                     27
                      A                      A                      A
 Frequencies --   3256.7042              3541.8612              3647.0172
 Red. masses --      1.1139                 1.0477                 1.0973
 Frc consts  --      6.9606                 7.7435                 8.5989
 IR Inten    --     15.4949                 2.4721                 3.1085

 - Thermochemistry -
 -------------------
 Temperature   298.150 Kelvin.  Pressure   1.00000 Atm.
 Atom     1 has atomic number  6 and mass  12.00000

 Molecular mass:    57.05785 amu.
 Principal axes and moments of inertia in atomic units:
                           1         2         3
     Eigenvalues --   188.64572 201.31294 376.64733
           X            0.99826   0.05880  -0.00484
           Y           -0.05870   0.99810   0.01874
           Z            0.00593  -0.01842   0.99981
 This molecule is an asymmetric top.
 Rotational symmetry number  1.
 Rotational temperatures (Kelvin)      0.45913     0.43024     0.22996
 Rotational constants (GHZ):           9.56683     8.96485     4.79159
 Zero-point vibrational energy     255594.5 (Joules/Mol)
                                   61.08855 (Kcal/Mol)
 Warning -- explicit consideration of   5 degrees of freedom as
           vibrations may cause significant error
 Vibrational temperatures:    262.07   491.00   598.98   664.63   720.13
          (Kelvin)            923.56  1078.01  1162.84  1238.03  1426.35
                             1474.70  1547.35  1663.20  1962.50  2053.57
                             2099.87  2147.23  2170.61  2390.85  2497.79
                             4357.44  4437.98  4531.93  4552.37  4685.67
                             5095.94  5247.24

 Zero-point correction=                           0.097351 (Hartree/Particle)
 Thermal correction to Energy=                    0.102441
 Thermal correction to Enthalpy=                  0.103385
 Thermal correction to Gibbs Free Energy=         0.070393
 Sum of electronic and zero-point Energies=           -173.180203
 Sum of electronic and thermal Energies=              -173.175113
 Sum of electronic and thermal Enthalpies=            -173.174169
 Sum of electronic and thermal Free Energies=         -173.207161

                     E (Thermal)             CV                S
                      KCal/Mol        Cal/Mol-Kelvin    Cal/Mol-Kelvin
 Total                   64.282             18.114             69.438
 Electronic               0.000              0.000              0.000
 Translational            0.889              2.981             38.046
 Rotational               0.889              2.981             24.174
 Vibrational             62.505             12.152              7.219
 Vibration     1          0.630              1.864              2.306
 Vibration     2          0.721              1.593              1.206
 Vibration     3          0.780              1.435              0.905
 Vibration     4          0.820              1.334              0.760
 Vibration     5          0.856              1.249              0.657

 Normal termination of Gaussian 09 at Fri Jul 23 19:42:38 2021.
