 Gaussian 09, Revision E.01,
 Gaussian 09:  ES64L-G09RevE.01 30-Nov-2015

 ----------------------------
 #P OPT Freq B3LYP/6-31G(d,p)
 ----------------------------

 --------
 Frag_535
 --------
 Symbolic Z-matrix:
 Charge =  0 Multiplicity = 1

 SCF Done:  E(RB3LYP) =  -264.545459350     A.U. after   14 cycles
 SCF Done:  E(RB3LYP) =  -264.545502181     A.U. after   10 cycles
 SCF Done:  E(RB3LYP) =  -264.545446513     A.U. after   11 cycles
 SCF Done:  E(RB3LYP) =  -264.545526501     A.U. after   11 cycles
 SCF Done:  E(RB3LYP) =  -264.545527639     A.U. after    8 cycles
 SCF Done:  E(RB3LYP) =  -264.545527796     A.U. after    7 cycles
 Optimization completed.
    -- Stationary point found.
 Normal termination of Gaussian 09 at Thu Sep  8 15:25:02 2022.

 ----------------------------------------------------------------------
 #P Geom=AllCheck Guess=TCheck SCRF=Check GenChk RB3LYP/6-31G(d,p) Freq
 ----------------------------------------------------------------------

 Structure from the checkpoint file:  "B3LYP6-31Gdp.Frag_535.chk"
 --------
 Frag_535
 --------
 Charge =  0 Multiplicity = 1

                         Standard orientation:
 ---------------------------------------------------------------------
 Center     Atomic      Atomic             Coordinates (Angstroms)
 Number     Number       Type             X           Y           Z
 ---------------------------------------------------------------------
      1          7           0        1.834654   -0.493326   -0.137216
      2          6           0        0.673484   -0.000675    0.015270
      3          8           0        0.502240    1.332317    0.082512
      4          6           0       -0.636826   -0.781881    0.196364
      5          7           0       -1.782304    0.070146   -0.145356
      6          1           0        1.772344   -1.512758   -0.166682
      7          1           0       -0.470907    1.460792    0.120087
      8          1           0       -0.579495   -1.719834   -0.371623
      9          1           0       -0.718992   -1.049518    1.256131
     10          1           0       -2.621548   -0.210553    0.350395
     11          1           0       -1.985721    0.030925   -1.140203
 ---------------------------------------------------------------------

 SCF Done:  E(RB3LYP) =  -264.545527796     A.U. after    1 cycles

 The electronic state is 1-A.
 Alpha  occ. eigenvalues --  -19.16024 -14.35676 -14.28912 -10.26917 -10.23993
 Alpha  occ. eigenvalues --   -1.05640  -0.91343  -0.87285  -0.70584  -0.58659
 Alpha  occ. eigenvalues --   -0.53789  -0.50076  -0.47569  -0.44970  -0.42894
 Alpha  occ. eigenvalues --   -0.37262  -0.35657  -0.28846  -0.25135  -0.24989
 Alpha virt. eigenvalues --    0.02825   0.05906   0.10239   0.11356   0.14406
 Alpha virt. eigenvalues --    0.16021   0.18113   0.21049   0.23984   0.34222
 Alpha virt. eigenvalues --    0.40593   0.53011   0.53895   0.56864   0.58683

 Mulliken charges:
               1
     1  N   -0.540131
     2  C    0.484451
     3  O   -0.494658
     4  C   -0.144724
     5  N   -0.637737
     6  H    0.211686
     7  H    0.334995
     8  H    0.112848
     9  H    0.144827
    10  H    0.261890
    11  H    0.266553
 Sum of Mulliken charges =  -0.00000

 Dipole moment (field-independent basis, Debye):
    X=             -5.1682    Y=             -2.4968    Z=             -0.0427  Tot=              5.7398
 Quadrupole moment (field-independent basis, Debye-Ang):
   XX=            -32.3403   YY=            -29.1378   ZZ=            -28.5808
   XY=             -1.4411   XZ=              1.0186   YZ=             -0.2327

  Exact polarizability:  47.637  -5.331  39.174  -1.627   0.363  26.556
 Approx polarizability:  66.747 -11.126  57.898  -3.620   1.405  37.461

                      1                      2                      3
                      A                      A                      A
 Frequencies --    109.6175               293.6865               326.8172
 Red. masses --      2.4524                 1.2097                 3.2529
 Frc consts  --      0.0174                 0.0615                 0.2047
 IR Inten    --      4.1821                14.1400                15.7084

                      4                      5                      6
                      A                      A                      A
 Frequencies --    483.4349               532.1038               656.2149
 Red. masses --      3.3289                 3.2125                 4.9314
 Frc consts  --      0.4584                 0.5359                 1.2512
 IR Inten    --      9.7336                 8.3900                 4.8513

                      7                      8                      9
                      A                      A                      A
 Frequencies --    765.9302               827.2456               866.5978
 Red. masses --      1.1260                 2.2356                 1.0843
 Frc consts  --      0.3892                 0.9014                 0.4798
 IR Inten    --     42.4059                36.9531               117.2721

                     10                     11                     12
                      A                      A                      A
 Frequencies --    885.6794               969.1892              1075.1023
 Red. masses --      1.6991                 1.7518                 3.1623
 Frc consts  --      0.7853                 0.9695                 2.1535
 IR Inten    --     66.0538                54.4642                 5.0405

                     13                     14                     15
                      A                      A                      A
 Frequencies --   1117.6016              1166.2812              1314.1152
 Red. masses --      1.5751                 1.2166                 1.4461
 Frc consts  --      1.1591                 0.9750                 1.4714
 IR Inten    --    161.0569                 2.0302                 8.3571

                     16                     17                     18
                      A                      A                      A
 Frequencies --   1333.3506              1387.8322              1468.9857
 Red. masses --      1.3769                 1.3479                 1.7762
 Frc consts  --      1.4422                 1.5296                 2.2583
 IR Inten    --     64.7366                 7.7089               264.8861

                     19                     20                     21
                      A                      A                      A
 Frequencies --   1496.2212              1669.1228              1780.1343
 Red. masses --      1.0844                 1.0934                 7.0630
 Frc consts  --      1.4303                 1.7948                13.1870
 IR Inten    --      4.6472                31.0629               192.0879

                     22                     23                     24
                      A                      A                      A
 Frequencies --   3030.4264              3084.5231              3481.9139
 Red. masses --      1.0635                 1.1014                 1.0753
 Frc consts  --      5.7544                 6.1741                 7.6808
 IR Inten    --     31.0240                16.1064                 1.8105

                     25                     26                     27
                      A                      A                      A
 Frequencies --   3519.1939              3535.4990              3611.2420
 Red. masses --      1.0518                 1.0628                 1.0944
 Frc consts  --      7.6750                 7.8271                 8.4086
 IR Inten    --     44.7179               204.3643                 5.3842

 - Thermochemistry -
 -------------------
 Temperature   298.150 Kelvin.  Pressure   1.00000 Atm.
 Atom     1 has atomic number  7 and mass  14.00307

 Molecular mass:    74.04801 amu.
 Principal axes and moments of inertia in atomic units:
                           1         2         3
     Eigenvalues --   185.71973 447.01192 601.76345
           X            0.99992  -0.01266   0.00265
           Y            0.01268   0.99988  -0.00835
           Z           -0.00254   0.00838   0.99996
 This molecule is an asymmetric top.
 Rotational symmetry number  1.
 Rotational temperatures (Kelvin)      0.46637     0.19376     0.14393
 Rotational constants (GHZ):           9.71755     4.03734     2.99909
 Zero-point vibrational energy     243966.8 (Joules/Mol)
                                   58.30946 (Kcal/Mol)
 Warning -- explicit consideration of   5 degrees of freedom as
           vibrations may cause significant error
 Vibrational temperatures:    157.71   422.55   470.22   695.55   765.58
          (Kelvin)            944.15  1102.00  1190.22  1246.84  1274.29
                             1394.45  1546.83  1607.98  1678.02  1890.72
                             1918.39  1996.78  2113.54  2152.73  2401.49
                             2561.21  4360.10  4437.94  5009.69  5063.33
                             5086.79  5195.77

 Zero-point correction=                           0.092922 (Hartree/Particle)
 Thermal correction to Energy=                    0.098288
 Thermal correction to Enthalpy=                  0.099233
 Thermal correction to Gibbs Free Energy=         0.064547
 Sum of electronic and zero-point Energies=           -264.452606
 Sum of electronic and thermal Energies=              -264.447239
 Sum of electronic and thermal Enthalpies=            -264.446295
 Sum of electronic and thermal Free Energies=         -264.480981

                     E (Thermal)             CV                S
                      KCal/Mol        Cal/Mol-Kelvin    Cal/Mol-Kelvin
 Total                   61.677             18.794             73.002
 Electronic               0.000              0.000              0.000
 Translational            0.889              2.981             38.822
 Rotational               0.889              2.981             25.416
 Vibrational             59.899             12.832              8.764
 Vibration     1          0.606              1.942              3.276
 Vibration     2          0.688              1.686              1.453
 Vibration     3          0.710              1.622              1.276
 Vibration     4          0.840              1.287              0.701
 Vibration     5          0.887              1.179              0.583

 Normal termination of Gaussian 09 at Thu Sep  8 15:25:10 2022.
