 Gaussian 09, Revision E.01,
 Gaussian 09:  ES64L-G09RevE.01 30-Nov-2015

 ----------------------------
 #P OPT Freq B3LYP/6-31G(d,p)
 ----------------------------

 --------
 Frag_537
 --------
 Symbolic Z-matrix:
 Charge =  0 Multiplicity = 1

 SCF Done:  E(RB3LYP) =  -284.365393925     A.U. after   14 cycles
 SCF Done:  E(RB3LYP) =  -284.365462794     A.U. after    9 cycles
 SCF Done:  E(RB3LYP) =  -284.365467833     A.U. after    8 cycles
 SCF Done:  E(RB3LYP) =  -284.365468861     A.U. after    7 cycles
 Optimization completed.
    -- Stationary point found.
 Normal termination of Gaussian 09 at Thu Sep  8 15:11:41 2022.

 ----------------------------------------------------------------------
 #P Geom=AllCheck Guess=TCheck SCRF=Check GenChk RB3LYP/6-31G(d,p) Freq
 ----------------------------------------------------------------------

 Structure from the checkpoint file:  "B3LYP6-31Gdp.Frag_537.chk"
 --------
 Frag_537
 --------
 Charge =  0 Multiplicity = 1

                         Standard orientation:
 ---------------------------------------------------------------------
 Center     Atomic      Atomic             Coordinates (Angstroms)
 Number     Number       Type             X           Y           Z
 ---------------------------------------------------------------------
      1          6           0        1.730398   -0.623946   -0.000013
      2          6           0        0.363579   -0.007660    0.000018
      3          8           0        0.264242    1.349509   -0.000046
      4          7           0       -0.661950   -0.771698    0.000017
      5          8           0       -1.864376   -0.031521    0.000002
      6          1           0        1.643858   -1.710271    0.000029
      7          1           0        2.297976   -0.315483    0.886807
      8          1           0        2.297902   -0.315532   -0.886895
      9          1           0        1.152472    1.728697    0.000290
     10          1           0       -2.521351   -0.739792   -0.000024
 ---------------------------------------------------------------------

 SCF Done:  E(RB3LYP) =  -284.365468861     A.U. after    1 cycles

 The electronic state is 1-A.
 Alpha  occ. eigenvalues --  -19.18649 -19.16786 -14.35739 -10.27173 -10.20346
 Alpha  occ. eigenvalues --   -1.08252  -1.04263  -0.84739  -0.73421  -0.59235
 Alpha  occ. eigenvalues --   -0.53555  -0.47666  -0.45550  -0.43841  -0.41084
 Alpha  occ. eigenvalues --   -0.39019  -0.36230  -0.34325  -0.27017  -0.22324
 Alpha virt. eigenvalues --    0.03652   0.05460   0.08714   0.12512   0.15598
 Alpha virt. eigenvalues --    0.16498   0.16792   0.21784   0.31918   0.40597
 Alpha virt. eigenvalues --    0.53465   0.55701   0.58731   0.59989   0.62830

 Mulliken charges:
               1
     1  C   -0.392749
     2  C    0.522677
     3  O   -0.493453
     4  N   -0.268983
     5  O   -0.420633
     6  H    0.153303
     7  H    0.125171
     8  H    0.125191
     9  H    0.320954
    10  H    0.328524
 Sum of Mulliken charges =  -0.00000

 Dipole moment (field-independent basis, Debye):
    X=              2.4514    Y=              0.0017    Z=              0.0005  Tot=              2.4514
 Quadrupole moment (field-independent basis, Debye-Ang):
   XX=            -21.6809   YY=            -28.8620   ZZ=            -29.8329
   XY=              4.9736   XZ=              0.0008   YZ=              0.0012

  Exact polarizability:  52.952   5.147  35.150   0.001   0.000  22.091
 Approx polarizability:  74.153  11.520  53.756   0.001   0.000  30.833

                      1                      2                      3
                      A                      A                      A
 Frequencies --    187.4430               281.4562               287.9306
 Red. masses --      1.1922                 2.5370                 5.2452
 Frc consts  --      0.0247                 0.1184                 0.2562
 IR Inten    --      0.0487                11.8049                 4.4711

                      4                      5                      6
                      A                      A                      A
 Frequencies --    320.8574               379.9232               398.2293
 Red. masses --      1.2707                 1.0802                 2.8341
 Frc consts  --      0.0771                 0.0919                 0.2648
 IR Inten    --     85.1150               146.9733                 3.6801

                      7                      8                      9
                      A                      A                      A
 Frequencies --    602.3381               623.8417               899.5286
 Red. masses --      4.3559                 4.8285                 5.5367
 Frc consts  --      0.9311                 1.1072                 2.6396
 IR Inten    --      1.0921                16.0972                19.3947

                     10                     11                     12
                      A                      A                      A
 Frequencies --    965.9475              1050.3493              1068.4650
 Red. masses --      3.2801                 1.9517                 1.4820
 Frc consts  --      1.8032                 1.2686                 0.9968
 IR Inten    --     77.7738                62.3400                 1.8476

                     13                     14                     15
                      A                      A                      A
 Frequencies --   1223.2258              1327.5805              1406.5864
 Red. masses --      1.3430                 2.5579                 1.1935
 Frc consts  --      1.1839                 2.6561                 1.3912
 IR Inten    --     84.8170               237.0703                23.1940

                     16                     17                     18
                      A                      A                      A
 Frequencies --   1444.1997              1494.0296              1495.9448
 Red. masses --      1.6718                 1.0432                 1.0552
 Frc consts  --      2.0544                 1.3719                 1.3913
 IR Inten    --     37.6706                 8.8866                 2.0927

                     19                     20                     21
                      A                      A                      A
 Frequencies --   1787.1284              3032.9789              3086.1705
 Red. masses --      6.6306                 1.0404                 1.1015
 Frc consts  --     12.4771                 5.6388                 6.1810
 IR Inten    --     59.4430                24.6513                18.8940

                     22                     23                     24
                      A                      A                      A
 Frequencies --   3170.3708              3821.0184              3829.8918
 Red. masses --      1.0974                 1.0678                 1.0667
 Frc consts  --      6.4989                 9.1857                 9.2183
 IR Inten    --      4.0223                71.5510                35.6312

 - Thermochemistry -
 -------------------
 Temperature   298.150 Kelvin.  Pressure   1.00000 Atm.
 Atom     1 has atomic number  6 and mass  12.00000

 Molecular mass:    75.03203 amu.
 Principal axes and moments of inertia in atomic units:
                           1         2         3
     Eigenvalues --   180.07877 438.37569 607.13191
           X            0.99998  -0.00672   0.00000
           Y            0.00672   0.99998   0.00001
           Z           -0.00000  -0.00001   1.00000
 This molecule is an asymmetric top.
 Rotational symmetry number  1.
 Rotational temperatures (Kelvin)      0.48098     0.19758     0.14266
 Rotational constants (GHZ):          10.02195     4.11688     2.97257
 Zero-point vibrational energy     204474.3 (Joules/Mol)
                                   48.87053 (Kcal/Mol)
 Warning -- explicit consideration of   7 degrees of freedom as
           vibrations may cause significant error
 Vibrational temperatures:    269.69   404.95   414.27   461.64   546.62
          (Kelvin)            572.96   866.63   897.57  1294.22  1389.78
                             1511.22  1537.28  1759.95  1910.09  2023.76
                             2077.88  2149.57  2152.33  2571.28  4363.77
                             4440.31  4561.45  5497.59  5510.35

 Zero-point correction=                           0.077880 (Hartree/Particle)
 Thermal correction to Energy=                    0.083719
 Thermal correction to Enthalpy=                  0.084663
 Thermal correction to Gibbs Free Energy=         0.049414
 Sum of electronic and zero-point Energies=           -284.287589
 Sum of electronic and thermal Energies=              -284.281750
 Sum of electronic and thermal Enthalpies=            -284.280806
 Sum of electronic and thermal Free Energies=         -284.316055

                     E (Thermal)             CV                S
                      KCal/Mol        Cal/Mol-Kelvin    Cal/Mol-Kelvin
 Total                   52.534             20.101             74.187
 Electronic               0.000              0.000              0.000
 Translational            0.889              2.981             38.862
 Rotational               0.889              2.981             25.375
 Vibrational             50.757             14.139              9.951
 Vibration     1          0.632              1.857              2.253
 Vibration     2          0.681              1.708              1.525
 Vibration     3          0.685              1.696              1.486
 Vibration     4          0.706              1.634              1.306
 Vibration     5          0.750              1.513              1.039
 Vibration     6          0.765              1.474              0.969
 Vibration     7          0.961              1.027              0.446

 Optimization completed.
    -- Stationary point found.
 Normal termination of Gaussian 09 at Thu Sep  8 15:11:48 2022.
