 Gaussian 09, Revision E.01,
 Gaussian 09:  ES64L-G09RevE.01 30-Nov-2015

 ----------------------------
 #P OPT Freq B3LYP/6-31G(d,p)
 ----------------------------

 --------
 Frag_864
 --------
 Symbolic Z-matrix:
 Charge =  0 Multiplicity = 1

 SCF Done:  E(RB3LYP) =  -338.587919391     A.U. after   14 cycles
 SCF Done:  E(RB3LYP) =  -338.588050185     A.U. after    9 cycles
 SCF Done:  E(RB3LYP) =  -338.588056526     A.U. after    9 cycles
 SCF Done:  E(RB3LYP) =  -338.588055385     A.U. after    9 cycles
 SCF Done:  E(RB3LYP) =  -338.588057610     A.U. after    9 cycles
 Optimization completed.
    -- Stationary point found.
 Normal termination of Gaussian 09 at Thu Sep  8 15:24:13 2022.

 ----------------------------------------------------------------------
 #P Geom=AllCheck Guess=TCheck SCRF=Check GenChk RB3LYP/6-31G(d,p) Freq
 ----------------------------------------------------------------------

 Structure from the checkpoint file:  "B3LYP6-31Gdp.Frag_864.chk"
 --------
 Frag_864
 --------
 Charge =  0 Multiplicity = 1

                         Standard orientation:
 ---------------------------------------------------------------------
 Center     Atomic      Atomic             Coordinates (Angstroms)
 Number     Number       Type             X           Y           Z
 ---------------------------------------------------------------------
      1          7           0        1.525003    1.082538   -0.000021
      2          6           0        0.758301    0.077169   -0.000009
      3          8           0        1.233999   -1.194668    0.000036
      4          6           0       -0.765001    0.156830   -0.000060
      5          7           0       -1.404045   -1.037354   -0.000024
      6          8           0       -1.316072    1.248081    0.000058
      7          1           0        0.946668    1.927019   -0.000076
      8          1           0        2.202980   -1.126971    0.000060
      9          1           0       -0.887302   -1.902067   -0.000032
     10          1           0       -2.412267   -1.045569    0.000034
 ---------------------------------------------------------------------

 SCF Done:  E(RB3LYP) =  -338.588057610     A.U. after    1 cycles

 The electronic state is 1-A.
 Alpha  occ. eigenvalues --  -19.20318 -19.13059 -14.37368 -14.32178 -10.30817
 Alpha  occ. eigenvalues --  -10.29481  -1.09330  -1.04643  -0.92202  -0.89806
 Alpha  occ. eigenvalues --   -0.69202  -0.59382  -0.56524  -0.51927  -0.51212
 Alpha  occ. eigenvalues --   -0.45153  -0.42504  -0.41041  -0.39383  -0.29476
 Alpha  occ. eigenvalues --   -0.29196  -0.27857  -0.27114
 Alpha virt. eigenvalues --   -0.03877   0.06391   0.08959   0.10037   0.12949
 Alpha virt. eigenvalues --    0.14396   0.24115   0.26340   0.30693   0.38452
 Alpha virt. eigenvalues --    0.41602   0.51996   0.54114   0.57745   0.62841

 Mulliken charges:
               1
     1  N   -0.549880
     2  C    0.466100
     3  O   -0.539197
     4  C    0.561274
     5  N   -0.609493
     6  O   -0.509892
     7  H    0.264329
     8  H    0.333376
     9  H    0.297706
    10  H    0.285677
 Sum of Mulliken charges =   0.00000

 Dipole moment (field-independent basis, Debye):
    X=             -0.3121    Y=             -3.4773    Z=             -0.0002  Tot=              3.4913
 Quadrupole moment (field-independent basis, Debye-Ang):
   XX=            -31.5518   YY=            -32.7479   ZZ=            -34.6790
   XY=              2.1750   XZ=              0.0001   YZ=             -0.0004

  Exact polarizability:  45.715   3.807  51.050  -0.000  -0.000  17.729
 Approx polarizability:  62.531   6.634  89.887  -0.001   0.001  25.572

                      1                      2                      3
                      A                      A                      A
 Frequencies --     86.4614               279.1448               303.7474
 Red. masses --      7.3102                 4.6106                 1.1850
 Frc consts  --      0.0322                 0.2117                 0.0644
 IR Inten    --      2.7083                13.9344               236.2080

                      4                      5                      6
                      A                      A                      A
 Frequencies --    409.8382               421.3706               513.5792
 Red. masses --      2.5325                 4.4151                 4.6290
 Frc consts  --      0.2506                 0.4619                 0.7194
 IR Inten    --      4.2721                15.6234                 2.3751

                      7                      8                      9
                      A                      A                      A
 Frequencies --    559.7570               603.5031               653.0620
 Red. masses --      1.1465                 3.7160                 1.4114
 Frc consts  --      0.2116                 0.7974                 0.3547
 IR Inten    --     99.7586                22.6548                81.0357

                     10                     11                     12
                      A                      A                      A
 Frequencies --    774.9204               788.5671               924.0211
 Red. masses --      3.3640                 7.5627                 1.1383
 Frc consts  --      1.1902                 2.7708                 0.5726
 IR Inten    --     13.2748                 2.3842                42.8299

                     13                     14                     15
                      A                      A                      A
 Frequencies --   1091.9608              1110.6005              1244.5080
 Red. masses --      1.9255                 1.9064                 1.3474
 Frc consts  --      1.3528                 1.3854                 1.2296
 IR Inten    --    154.5161                64.7204                91.0759

                     16                     17                     18
                      A                      A                      A
 Frequencies --   1333.9990              1465.7612              1614.4642
 Red. masses --      2.6819                 3.0437                 1.2965
 Frc consts  --      2.8119                 3.8528                 1.9911
 IR Inten    --    174.1344                21.7641               153.5541

                     19                     20                     21
                      A                      A                      A
 Frequencies --   1767.0673              1813.1038              3483.6648
 Red. masses --      9.6475                 9.9198                 1.0733
 Frc consts  --     17.7488                19.2132                 7.6741
 IR Inten    --    207.2507               181.2813                15.2449

                     22                     23                     24
                      A                      A                      A
 Frequencies --   3607.8528              3749.7324              3761.6552
 Red. masses --      1.0445                 1.1065                 1.0646
 Frc consts  --      8.0102                 9.1663                 8.8753
 IR Inten    --     54.0462                69.7972                48.0545

 - Thermochemistry -
 -------------------
 Temperature   298.150 Kelvin.  Pressure   1.00000 Atm.
 Atom     1 has atomic number  7 and mass  14.00307

 Molecular mass:    88.02728 amu.
 Principal axes and moments of inertia in atomic units:
                           1         2         3
     Eigenvalues --   318.04106 495.85547 813.89652
           X            0.99751   0.07050  -0.00000
           Y           -0.07050   0.99751  -0.00000
           Z           -0.00000   0.00000   1.00000
 This molecule is an asymmetric top.
 Rotational symmetry number  1.
 Rotational temperatures (Kelvin)      0.27234     0.17468     0.10642
 Rotational constants (GHZ):           5.67455     3.63965     2.21741
 Zero-point vibrational energy     193569.8 (Joules/Mol)
                                   46.26429 (Kcal/Mol)
 Warning -- explicit consideration of   8 degrees of freedom as
           vibrations may cause significant error
 Vibrational temperatures:    124.40   401.63   437.02   589.67   606.26
          (Kelvin)            738.92   805.36   868.31   939.61  1114.94
                             1134.57  1329.46  1571.09  1597.90  1790.57
                             1919.32  2108.90  2322.85  2542.41  2608.65
                             5012.21  5190.89  5395.02  5412.18

 Zero-point correction=                           0.073727 (Hartree/Particle)
 Thermal correction to Energy=                    0.079763
 Thermal correction to Enthalpy=                  0.080707
 Thermal correction to Gibbs Free Energy=         0.044159
 Sum of electronic and zero-point Energies=           -338.514331
 Sum of electronic and thermal Energies=              -338.508295
 Sum of electronic and thermal Enthalpies=            -338.507351
 Sum of electronic and thermal Free Energies=         -338.543899

                     E (Thermal)             CV                S
                      KCal/Mol        Cal/Mol-Kelvin    Cal/Mol-Kelvin
 Total                   50.052             21.342             76.922
 Electronic               0.000              0.000              0.000
 Translational            0.889              2.981             39.338
 Rotational               0.889              2.981             26.354
 Vibrational             48.274             15.380             11.230
 Vibration     1          0.601              1.959              3.739
 Vibration     2          0.679              1.712              1.539
 Vibration     3          0.695              1.667              1.396
 Vibration     4          0.774              1.449              0.927
 Vibration     5          0.784              1.424              0.887
 Vibration     6          0.869              1.220              0.625
 Vibration     7          0.915              1.118              0.524
 Vibration     8          0.962              1.024              0.444

 Optimization completed.
    -- Stationary point found.
 Normal termination of Gaussian 09 at Thu Sep  8 15:24:21 2022.
