 Gaussian 09, Revision D.01,
 Gaussian 09:  ES64L-G09RevD.01 24-Apr-2013

 -------------------------
 #P OPT Freq B3LYP/6-31G**
 -------------------------

 -------
 Frag_45
 -------
 Symbolic Z-matrix:
 Charge =  0 Multiplicity = 1

 SCF Done:  E(RB3LYP) =  -229.815151832     A.U. after   12 cycles
 Optimization completed.
    -- Stationary point found.

 1\1\GINC-FN1\FOpt\RB3LYP\6-31G(d,p)\C3H10N2\LIUJ201281\23-Jul-2021\0\\
 #P OPT Freq B3LYP/6-31G**\\Frag_45\\0,1\C,-2.0367,-0.0014,-0.1572\C,-0
 .7243,-0.6235,0.307\N,0.4408,0.0031,-0.3244\C,1.6693,-0.7409,-0.0755\N
 ,0.5372,1.3604,0.1166\H,-2.8856,-0.4898,0.3325\H,-2.1495,-0.1107,-1.24
 \H,-2.0569,1.0636,0.0829\H,-0.6516,-0.5761,1.4119\H,-0.6986,-1.6859,0.
 0376\H,2.4985,-0.2674,-0.6112\H,1.9369,-0.7872,0.9993\H,1.5681,-1.7661
 ,-0.4452\H,1.046,1.4058,1.0092\H,1.0962,1.8638,-0.5683\\Version=ES64L-
 G09RevD.01\State=1-A\HF=-229.8151518\RMSD=5.008e-09\RMSF=6.632e-05\Dip

 Normal termination of Gaussian 09 at Fri Jul 23 18:17:43 2021.

 ----------------------------------------------------------------------
 #P Geom=AllCheck Guess=TCheck SCRF=Check GenChk RB3LYP/6-31G(d,p) Freq
 ----------------------------------------------------------------------

 Structure from the checkpoint file:  "/vol2/users/liuj201281/HOFBenchmark/IsodesmicSplit/Sample60/Ring26/Running/Gau-298323.chk"
 -------
 Frag_45
 -------
 Charge =  0 Multiplicity = 1

                         Standard orientation:
 ---------------------------------------------------------------------
 Center     Atomic      Atomic             Coordinates (Angstroms)
 Number     Number       Type             X           Y           Z
 ---------------------------------------------------------------------
      1          6           0       -2.036683   -0.001423   -0.157198
      2          6           0       -0.724274   -0.623503    0.307002
      3          7           0        0.440817    0.003114   -0.324398
      4          6           0        1.669327   -0.740869   -0.075498
      5          7           0        0.537197    1.360415    0.116602
      6          1           0       -2.885576   -0.489835    0.332502
      7          1           0       -2.149482   -0.110724   -1.239998
      8          1           0       -2.056899    1.063577    0.082902
      9          1           0       -0.651575   -0.576102    1.411902
     10          1           0       -0.698559   -1.685903    0.037602
     11          1           0        2.498521   -0.267356   -0.611198
     12          1           0        1.936928   -0.787165    0.999302
     13          1           0        1.568142   -1.766070   -0.445198
     14          1           0        1.045996    1.405822    1.009202
     15          1           0        1.096190    1.863823   -0.568298
 ---------------------------------------------------------------------

 SCF Done:  E(RB3LYP) =  -229.815151832     A.U. after    1 cycles

 The electronic state is 1-A.
 Alpha  occ. eigenvalues --  -14.34462 -14.33610 -10.20271 -10.19993 -10.15982
 Alpha  occ. eigenvalues --   -0.96440  -0.79423  -0.73530  -0.65060  -0.58237
 Alpha  occ. eigenvalues --   -0.49576  -0.47475  -0.45839  -0.41986  -0.40912
 Alpha  occ. eigenvalues --   -0.39330  -0.35376  -0.34708  -0.33353  -0.24744
 Alpha  occ. eigenvalues --   -0.21696
 Alpha virt. eigenvalues --    0.07452   0.12680   0.13082   0.14480   0.14694
 Alpha virt. eigenvalues --    0.16419   0.17855   0.18162   0.18755   0.19754
 Alpha virt. eigenvalues --    0.21544   0.25144   0.25902   0.26732   0.50148

 Mulliken charges:
               1
     1  C   -0.313302
     2  C   -0.001512
     3  N   -0.315505
     4  C   -0.155872
     5  N   -0.450634
     6  H    0.090040
     7  H    0.106693
     8  H    0.130464
     9  H    0.064353
    10  H    0.091291
    11  H    0.101147
    12  H    0.072957
    13  H    0.110088
    14  H    0.217210
    15  H    0.252580
 Sum of Mulliken charges =   0.00000

 Dipole moment (field-independent basis, Debye):
    X=              1.4950    Y=             -0.3692    Z=              0.5963  Tot=              1.6513
 Quadrupole moment (field-independent basis, Debye-Ang):
   XX=            -30.9204   YY=            -32.1411   ZZ=            -33.5373
   XY=              2.4678   XZ=             -0.0214   YZ=             -0.1370

  Exact polarizability:  54.175   1.407  49.678   0.051   0.149  43.863
 Approx polarizability:  63.759   2.361  67.879   0.144   0.669  63.714

                      1                      2                      3
                      A                      A                      A
 Frequencies --    123.4568               226.0898               252.3306
 Red. masses --      1.9331                 1.1399                 1.5024
 Frc consts  --      0.0174                 0.0343                 0.0564
 IR Inten    --      1.0080                 2.9874                 3.3601

                      4                      5                      6
                      A                      A                      A
 Frequencies --    297.6215               324.1484               417.4111
 Red. masses --      1.2898                 1.2889                 2.2736
 Frc consts  --      0.0673                 0.0798                 0.2334
 IR Inten    --     12.3312                22.4222                 3.0913

                      7                      8                      9
                      A                      A                      A
 Frequencies --    430.5949               504.4021               791.3294
 Red. masses --      2.1673                 2.6559                 3.1239
 Frc consts  --      0.2368                 0.3981                 1.1526
 IR Inten    --      0.0910                 5.7789                18.9406

                     10                     11                     12
                      A                      A                      A
 Frequencies --    820.5586               913.5557              1014.6948
 Red. masses --      1.1641                 1.9606                 1.9390
 Frc consts  --      0.4618                 0.9641                 1.1762
 IR Inten    --      1.2714                62.6162                29.3827

                     13                     14                     15
                      A                      A                      A
 Frequencies --   1063.2865              1096.1234              1111.0684
 Red. masses --      1.5952                 1.9876                 1.5689
 Frc consts  --      1.0626                 1.4070                 1.1411
 IR Inten    --     18.0660                26.8335                 3.9086

                     16                     17                     18
                      A                      A                      A
 Frequencies --   1167.2200              1207.0530              1277.4989
 Red. masses --      1.5003                 2.3464                 1.8378
 Frc consts  --      1.2043                 2.0142                 1.7671
 IR Inten    --      9.1834                 1.6758                 2.0778

                     19                     20                     21
                      A                      A                      A
 Frequencies --   1309.0784              1356.0321              1397.8950
 Red. masses --      1.4112                 1.2458                 1.2848
 Frc consts  --      1.4249                 1.3497                 1.4793
 IR Inten    --      7.7463                 9.6089                 5.6082

                     22                     23                     24
                      A                      A                      A
 Frequencies --   1425.3926              1463.0793              1496.1722
 Red. masses --      1.3658                 1.2020                 1.0469
 Frc consts  --      1.6349                 1.5160                 1.3808
 IR Inten    --     25.7316                 1.0595                 1.5717

                     25                     26                     27
                      A                      A                      A
 Frequencies --   1499.8871              1505.4707              1513.5823
 Red. masses --      1.0474                 1.0649                 1.0567
 Frc consts  --      1.3883                 1.4220                 1.4263
 IR Inten    --     17.3643                 1.5868                 1.4553

                     28                     29                     30
                      A                      A                      A
 Frequencies --   1530.0181              1672.9288              2914.2385
 Red. masses --      1.0641                 1.0853                 1.0673
 Frc consts  --      1.4676                 1.7896                 5.3405
 IR Inten    --      2.2609                17.2669                26.0929

                     31                     32                     33
                      A                      A                      A
 Frequencies --   2925.6901              3053.0237              3064.0996
 Red. masses --      1.0665                 1.0385                 1.0828
 Frc consts  --      5.3788                 5.7030                 5.9899
 IR Inten    --    142.7941                27.3656                16.6097

                     34                     35                     36
                      A                      A                      A
 Frequencies --   3071.6459              3116.5832              3122.0109
 Red. masses --      1.0739                 1.1037                 1.1023
 Frc consts  --      5.9700                 6.3160                 6.3300
 IR Inten    --     50.3883                30.3414                35.0679

                     37                     38                     39
                      A                      A                      A
 Frequencies --   3149.5045              3338.9124              3536.4406
 Red. masses --      1.1012                 1.0579                 1.0825
 Frc consts  --      6.4357                 6.9489                 7.9762
 IR Inten    --     20.4500                30.1895                 0.2241

 - Thermochemistry -
 -------------------
 Temperature   298.150 Kelvin.  Pressure   1.00000 Atm.
 Atom     1 has atomic number  6 and mass  12.00000

 Molecular mass:    74.08440 amu.
 Principal axes and moments of inertia in atomic units:
                           1         2         3
     Eigenvalues --   217.19994 496.83595 644.38042
           X            0.99997  -0.00536   0.00606
           Y            0.00541   0.99996  -0.00752
           Z           -0.00602   0.00756   0.99995
 This molecule is an asymmetric top.
 Rotational symmetry number  1.
 Rotational temperatures (Kelvin)      0.39877     0.17433     0.13441
 Rotational constants (GHZ):           8.30912     3.63247     2.80074
 Zero-point vibrational energy     361871.1 (Joules/Mol)
                                   86.48928 (Kcal/Mol)
 Warning -- explicit consideration of   8 degrees of freedom as
           vibrations may cause significant error
 Vibrational temperatures:    177.63   325.29   363.05   428.21   466.38
          (Kelvin)            600.56   619.53   725.72  1138.55  1180.60
                             1314.40  1459.92  1529.83  1577.08  1598.58
                             1679.37  1736.68  1838.03  1883.47  1951.03
                             2011.26  2050.82  2105.04  2152.66  2158.00
                             2166.03  2177.70  2201.35  2406.97  4192.93
                             4209.41  4392.61  4408.55  4419.41  4484.06
                             4491.87  4531.43  4803.94  5088.14

 Zero-point correction=                           0.137829 (Hartree/Particle)
 Thermal correction to Energy=                    0.144396
 Thermal correction to Enthalpy=                  0.145341
 Thermal correction to Gibbs Free Energy=         0.108537
 Sum of electronic and zero-point Energies=           -229.677322
 Sum of electronic and thermal Energies=              -229.670755
 Sum of electronic and thermal Enthalpies=            -229.669811
 Sum of electronic and thermal Free Energies=         -229.706615

                     E (Thermal)             CV                S
                      KCal/Mol        Cal/Mol-Kelvin    Cal/Mol-Kelvin
 Total                   90.610             23.373             77.460
 Electronic               0.000              0.000              0.000
 Translational            0.889              2.981             38.824
 Rotational               0.889              2.981             25.745
 Vibrational             88.833             17.411             12.891
 Vibration     1          0.610              1.929              3.046
 Vibration     2          0.650              1.801              1.910
 Vibration     3          0.664              1.759              1.714
 Vibration     4          0.691              1.678              1.430
 Vibration     5          0.709              1.627              1.289
 Vibration     6          0.780              1.432              0.901
 Vibration     7          0.792              1.404              0.857
 Vibration     8          0.860              1.240              0.647

 1\1\GINC-FN1\Freq\RB3LYP\6-31G(d,p)\C3H10N2\LIUJ201281\23-Jul-2021\0\\
 #P Geom=AllCheck Guess=TCheck SCRF=Check GenChk RB3LYP/6-31G(d,p) Freq
 \\Frag_45\\0,1\C,-2.0367,-0.0014,-0.1572\C,-0.7243,-0.6235,0.307\N,0.4
 408,0.0031,-0.3244\C,1.6693,-0.7409,-0.0755\N,0.5372,1.3604,0.1166\H,-
 2.8856,-0.4898,0.3325\H,-2.1495,-0.1107,-1.24\H,-2.0569,1.0636,0.0829\
 H,-0.6516,-0.5761,1.4119\H,-0.6986,-1.6859,0.0376\H,2.4985,-0.2674,-0.
 6112\H,1.9369,-0.7872,0.9993\H,1.5681,-1.7661,-0.4452\H,1.046,1.4058,1
 .0092\H,1.0962,1.8638,-0.5683\\Version=ES64L-G09RevD.01\State=1-A\HF=-

 Normal termination of Gaussian 09 at Fri Jul 23 18:17:57 2021.
