 Gaussian 09, Revision E.01,
 Gaussian 09:  ES64L-G09RevE.01 30-Nov-2015

 --------------------------------
 #P OPT=calcfc Freq B3LYP/6-31G**
 --------------------------------

 --------
 Frag_202
 --------
 Symbolic Z-matrix:
 Charge =  0 Multiplicity = 1

 SCF Done:  E(RB3LYP) =  -165.976463369     A.U. after   13 cycles
 SCF Done:  E(RB3LYP) =  -165.997642386     A.U. after   13 cycles
 SCF Done:  E(RB3LYP) =  -165.997304323     A.U. after   13 cycles
 SCF Done:  E(RB3LYP) =  -165.997668041     A.U. after   11 cycles
 SCF Done:  E(RB3LYP) =  -165.998146378     A.U. after   14 cycles
 SCF Done:  E(RB3LYP) =  -165.993510154     A.U. after   12 cycles
 SCF Done:  E(RB3LYP) =  -165.998382079     A.U. after   10 cycles
 SCF Done:  E(RB3LYP) =  -165.998536641     A.U. after   12 cycles
 SCF Done:  E(RB3LYP) =  -165.998594327     A.U. after   11 cycles
 SCF Done:  E(RB3LYP) =  -165.998599239     A.U. after    9 cycles
 SCF Done:  E(RB3LYP) =  -165.998600033     A.U. after    8 cycles
 Optimization completed.
    -- Stationary point found.
 Normal termination of Gaussian 09 at Sat Aug 21 02:20:05 2021.

 ----------------------------------------------------------------------
 #P Geom=AllCheck Guess=TCheck SCRF=Check GenChk RB3LYP/6-31G(d,p) Freq
 ----------------------------------------------------------------------

 Structure from the checkpoint file:  "/public/home/users/caep010/.cache/gau_scr/Gau-154949.chk"
 --------
 Frag_202
 --------
 Charge =  0 Multiplicity = 1

                         Standard orientation:
 ---------------------------------------------------------------------
 Center     Atomic      Atomic             Coordinates (Angstroms)
 Number     Number       Type             X           Y           Z
 ---------------------------------------------------------------------
      1          7           0        1.089333    0.307839    0.011135
      2          7           0        0.122871   -0.493620    0.000731
      3          7           0       -1.073679    0.128423   -0.077896
      4          1           0        1.928671   -0.285318    0.014270
      5          1           0       -1.827841   -0.432977    0.289144
      6          1           0       -1.070505    1.119803    0.158796
 ---------------------------------------------------------------------

 SCF Done:  E(RB3LYP) =  -165.998600033     A.U. after    1 cycles

 The electronic state is 1-A.
 Alpha  occ. eigenvalues --  -14.41574 -14.37558 -14.34841  -1.05874  -0.88395
 Alpha  occ. eigenvalues --   -0.65257  -0.55503  -0.48172  -0.41924  -0.40093
 Alpha  occ. eigenvalues --   -0.26041  -0.24240
 Alpha virt. eigenvalues --   -0.01634   0.08061   0.12657   0.14316   0.23220
 Alpha virt. eigenvalues --    0.35671   0.61182   0.64068   0.65185   0.69082
 Alpha virt. eigenvalues --    0.70347   0.73407   0.75720   0.78785   0.84539

 Mulliken charges:
               1
     1  N   -0.338842
     2  N   -0.072181
     3  N   -0.379510
     4  H    0.255080
     5  H    0.279843
     6  H    0.255609
 Sum of Mulliken charges =   0.00000

 Dipole moment (field-independent basis, Debye):
    X=             -1.2802    Y=             -0.1536    Z=              0.9345  Tot=              1.5924
 Quadrupole moment (field-independent basis, Debye-Ang):
   XX=            -12.6121   YY=            -18.5510   ZZ=            -18.7086
   XY=             -1.8337   XZ=             -1.6071   YZ=              0.1073

  Exact polarizability:  36.939  -0.246  18.965  -0.301   0.113  10.133
 Approx polarizability:  59.733   3.723  28.349   1.087   0.246  14.174

                      1                      2                      3
                      A                      A                      A
 Frequencies --    486.9828               605.4169               651.7743
 Red. masses --      1.2129                 1.8394                 1.7721
 Frc consts  --      0.1695                 0.3972                 0.4435
 IR Inten    --    210.7799               107.7520                64.5792

                      4                      5                      6
                      A                      A                      A
 Frequencies --    940.9550              1123.8712              1251.8721
 Red. masses --      1.1681                 3.3150                 1.3936
 Frc consts  --      0.6094                 2.4670                 1.2868
 IR Inten    --     46.3967                74.8182                43.0269

                      7                      8                      9
                      A                      A                      A
 Frequencies --   1489.7226              1606.6096              1628.6400
 Red. masses --      1.3640                 6.6758                 1.1698
 Frc consts  --      1.7835                10.1526                 1.8281
 IR Inten    --      7.6386               102.8241                29.1207

                     10                     11                     12
                      A                      A                      A
 Frequencies --   3384.3294              3467.5969              3683.1101
 Red. masses --      1.0746                 1.0494                 1.0958
 Frc consts  --      7.2519                 7.4347                 8.7583
 IR Inten    --      2.0881                 2.5821                33.1700

 - Thermochemistry -
 -------------------
 Temperature   298.150 Kelvin.  Pressure   1.00000 Atm.
 Atom     1 has atomic number  7 and mass  14.00307

 Molecular mass:    45.03270 amu.
 Principal axes and moments of inertia in atomic units:
                           1         2         3
     Eigenvalues --    23.76739 147.98007 170.46152
           X            0.99949  -0.02737  -0.01672
           Y            0.02755   0.99956   0.01080
           Z            0.01641  -0.01126   0.99980
 This molecule is an asymmetric top.
 Rotational symmetry number  1.
 Rotational temperatures (Kelvin)      3.64423     0.58531     0.50811
 Rotational constants (GHZ):          75.93351    12.19584    10.58738
 Zero-point vibrational energy     121545.9 (Joules/Mol)
                                   29.05016 (Kcal/Mol)
 Warning -- explicit consideration of   2 degrees of freedom as
           vibrations may cause significant error
 Vibrational temperatures:    700.66   871.06   937.76  1353.82  1617.00
          (Kelvin)           1801.16  2143.38  2311.55  2343.25  4869.29
                             4989.09  5299.17

 Zero-point correction=                           0.046294 (Hartree/Particle)
 Thermal correction to Energy=                    0.049745
 Thermal correction to Enthalpy=                  0.050689
 Thermal correction to Gibbs Free Energy=         0.022135
 Sum of electronic and zero-point Energies=           -165.952306
 Sum of electronic and thermal Energies=              -165.948855
 Sum of electronic and thermal Enthalpies=            -165.947911
 Sum of electronic and thermal Free Energies=         -165.976465

                     E (Thermal)             CV                S
                      KCal/Mol        Cal/Mol-Kelvin    Cal/Mol-Kelvin
 Total                   31.216             10.242             60.097
 Electronic               0.000              0.000              0.000
 Translational            0.889              2.981             37.340
 Rotational               0.889              2.981             21.022
 Vibrational             29.438              4.280              1.736
 Vibration     1          0.843              1.279              0.691
 Vibration     2          0.964              1.020              0.440

 Optimization completed.
    -- Stationary point found.
 Normal termination of Gaussian 09 at Sat Aug 21 02:20:10 2021.
