 Gaussian 09, Revision E.01,
 Gaussian 09:  ES64L-G09RevE.01 30-Nov-2015

 ---------------------------------
 #P OPT=calcall Freq B3LYP/6-31G**
 ---------------------------------

 --------
 Frag_130
 --------
 Symbolic Z-matrix:
 Charge =  0 Multiplicity = 1

 SCF Done:  E(RB3LYP) =  -299.109963816     A.U. after   15 cycles
 SCF Done:  E(RB3LYP) =  -299.109977863     A.U. after   13 cycles
 SCF Done:  E(RB3LYP) =  -299.109977806     A.U. after   12 cycles
 SCF Done:  E(RB3LYP) =  -299.109977752     A.U. after   12 cycles
 Optimization completed.
    -- Stationary point found.
 ******    1 imaginary frequencies (negative Signs) ******
    1 imaginary frequencies ignored.
 Normal termination of Gaussian 09 at Mon Aug 23 16:18:01 2021.

 ----------------------------------------------------------------------
 #P Geom=AllCheck Guess=TCheck SCRF=Check GenChk RB3LYP/6-31G(d,p) Freq
 ----------------------------------------------------------------------

 Structure from the checkpoint file:  "/public/home/users/caep010/.cache/gau_scr/Gau-222451.chk"
 --------
 Frag_130
 --------
 Charge =  0 Multiplicity = 1

                         Standard orientation:
 ---------------------------------------------------------------------
 Center     Atomic      Atomic             Coordinates (Angstroms)
 Number     Number       Type             X           Y           Z
 ---------------------------------------------------------------------
      1          6           0        1.755345    0.016184    0.004483
      2          7           0        0.745702   -0.755662   -0.007370
      3          7           0       -0.546127    0.023186   -0.000953
      4          8           0       -0.521159    1.243846   -0.003072
      5          8           0       -1.521157   -0.695253    0.004718
      6          1           0        1.677363    1.104259    0.016568
      7          1           0        2.732068   -0.462780    0.001623
 ---------------------------------------------------------------------

 SCF Done:  E(RB3LYP) =  -299.109977752     A.U. after    1 cycles

 The electronic state is 1-A.
 Alpha  occ. eigenvalues --  -19.20841 -19.20802 -14.60616 -14.41173 -10.28076
 Alpha  occ. eigenvalues --   -1.25738  -1.08626  -0.97174  -0.73278  -0.60499
 Alpha  occ. eigenvalues --   -0.57777  -0.55712  -0.53444  -0.48891  -0.37753
 Alpha  occ. eigenvalues --   -0.37167  -0.33335  -0.31665  -0.30811
 Alpha virt. eigenvalues --   -0.10354  -0.02296   0.05021   0.10328   0.17445
 Alpha virt. eigenvalues --    0.24615   0.26575   0.36142   0.49244   0.55060
 Alpha virt. eigenvalues --    0.59230   0.60841   0.63291   0.65054   0.69585

 Mulliken charges:
               1
     1  C    0.020754
     2  N   -0.219960
     3  N    0.572263
     4  O   -0.367990
     5  O   -0.328588
     6  H    0.168301
     7  H    0.155219
 Sum of Mulliken charges =  -0.00000

 Dipole moment (field-independent basis, Debye):
    X=              3.5341    Y=              0.7429    Z=              0.0187  Tot=              3.6114
 Quadrupole moment (field-independent basis, Debye-Ang):
   XX=            -23.8070   YY=            -31.2962   ZZ=            -26.6273
   XY=              0.6465   XZ=              0.0407   YZ=              0.0030

  Exact polarizability:  46.692   4.572  33.349   0.033   0.052  13.762
 Approx polarizability:  73.633  19.089  70.581   0.032   0.054  20.186

 ******    1 imaginary frequencies (negative Signs) ******

                      1                      2                      3
                      A                      A                      A
 Frequencies --    -12.1454               403.2317               522.5853
 Red. masses --      4.1310                 3.9251                 9.7160
 Frc consts  --      0.0004                 0.3760                 1.5633
 IR Inten    --      9.6474                 7.3323                 2.1953

                      4                      5                      6
                      A                      A                      A
 Frequencies --    570.5276               628.1638               836.9012
 Red. masses --      1.9089                 3.8635                14.7179
 Frc consts  --      0.3661                 0.8982                 6.0736
 IR Inten    --      8.6030                 3.3139                84.9099

                      7                      8                      9
                      A                      A                      A
 Frequencies --    881.0111              1095.0894              1181.1625
 Red. masses --      2.1628                 1.3464                 1.5713
 Frc consts  --      0.9891                 0.9513                 1.2916
 IR Inten    --      7.8089                19.5324                 0.3067

                     10                     11                     12
                      A                      A                      A
 Frequencies --   1358.1875              1426.6420              1702.5175
 Red. masses --     13.1023                 1.1600                 7.3297
 Frc consts  --     14.2403                 1.3911                12.5176
 IR Inten    --    157.1043                34.6409                35.5046

                     13                     14                     15
                      A                      A                      A
 Frequencies --   1734.7208              3116.6512              3228.6948
 Red. masses --     10.2737                 1.0568                 1.1192
 Frc consts  --     18.2154                 6.0483                 6.8742
 IR Inten    --    250.0644                 6.1163                 0.0375

 - Thermochemistry -
 -------------------
 Temperature   298.150 Kelvin.  Pressure   1.00000 Atm.
 Atom     1 has atomic number  6 and mass  12.00000

 Molecular mass:    74.01163 amu.
 Principal axes and moments of inertia in atomic units:
                           1         2         3
     Eigenvalues --   149.69632 358.54426 508.22788
           X            0.99994   0.01069   0.00033
           Y           -0.01069   0.99994   0.00042
           Z           -0.00033  -0.00043   1.00000
 This molecule is an asymmetric top.
 Rotational symmetry number  1.
 Rotational temperatures (Kelvin)      0.57860     0.24157     0.17042
 Rotational constants (GHZ):          12.05602     5.03352     3.55105
    1 imaginary frequencies ignored.
 Zero-point vibrational energy     111767.6 (Joules/Mol)
                                   26.71310 (Kcal/Mol)
 Warning -- explicit consideration of   3 degrees of freedom as
           vibrations may cause significant error
 Vibrational temperatures:    580.16   751.88   820.86   903.79  1204.11
          (Kelvin)           1267.58  1575.59  1699.43  1954.13  2052.62
                             2449.54  2495.87  4484.16  4645.37

 Zero-point correction=                           0.042570 (Hartree/Particle)
 Thermal correction to Energy=                    0.046428
 Thermal correction to Enthalpy=                  0.047372
 Thermal correction to Gibbs Free Energy=         0.015737
 Sum of electronic and zero-point Energies=           -299.067408
 Sum of electronic and thermal Energies=              -299.063550
 Sum of electronic and thermal Enthalpies=            -299.062605
 Sum of electronic and thermal Free Energies=         -299.094241

                     E (Thermal)             CV                S
                      KCal/Mol        Cal/Mol-Kelvin    Cal/Mol-Kelvin
 Total                   29.134             12.600             66.583
 Electronic               0.000              0.000              0.000
 Translational            0.889              2.981             38.821
 Rotational               0.889              2.981             24.815
 Vibrational             27.357              6.638              2.947
 Vibration     1          0.769              1.463              0.951
 Vibration     2          0.878              1.200              0.604
 Vibration     3          0.927              1.095              0.503

 Normal termination of Gaussian 09 at Mon Aug 23 16:18:07 2021.
