 Gaussian 09, Revision D.01,
 Gaussian 09:  ES64L-G09RevD.01 24-Apr-2013

 -------------------------
 #P OPT Freq B3LYP/6-31G**
 -------------------------

 -------
 Frag_14
 -------
 Symbolic Z-matrix:
 Charge =  0 Multiplicity = 1

 SCF Done:  E(RB3LYP) =  -306.484617852     A.U. after   13 cycles
 Optimization completed.
    -- Stationary point found.
 Normal termination of Gaussian 09 at Thu Jul 22 18:34:59 2021.

 ----------------------------------------------------------------------
 #P Geom=AllCheck Guess=TCheck SCRF=Check GenChk RB3LYP/6-31G(d,p) Freq
 ----------------------------------------------------------------------

 Structure from the checkpoint file:  "/vol2/users/liuj201281/HOFBenchmark/IsodesmicSplit/Sample60/Ring26/Running/Gau-514399.chk"
 -------
 Frag_14
 -------
 Charge =  0 Multiplicity = 1

                         Standard orientation:
 ---------------------------------------------------------------------
 Center     Atomic      Atomic             Coordinates (Angstroms)
 Number     Number       Type             X           Y           Z
 ---------------------------------------------------------------------
      1          6           0       -1.896816    0.560245    0.000111
      2          6           0       -0.692790   -0.347220    0.000011
      3          8           0       -0.750955   -1.562022    0.000011
      4          6           0        0.692790    0.347220   -0.000089
      5          6           0        1.896816   -0.560245    0.000011
      6          8           0        0.750955    1.562022   -0.000089
      7          1           0       -1.872135    1.217646   -0.874989
      8          1           0       -2.807899   -0.038281    0.000111
      9          1           0       -1.871935    1.217546    0.875211
     10          1           0        2.807899    0.038281    0.000011
     11          1           0        1.872035   -1.217646   -0.875089
     12          1           0        1.872035   -1.217546    0.875111
 ---------------------------------------------------------------------

 SCF Done:  E(RB3LYP) =  -306.484617852     A.U. after    1 cycles

 The electronic state is 1-A.
 Alpha  occ. eigenvalues --  -19.16580 -19.16580 -10.29242 -10.29223 -10.19752
 Alpha  occ. eigenvalues --  -10.19752  -1.06939  -1.05390  -0.76328  -0.75359
 Alpha  occ. eigenvalues --   -0.63323  -0.51369  -0.49069  -0.46918  -0.46278
 Alpha  occ. eigenvalues --   -0.43169  -0.42319  -0.42171  -0.38935  -0.37597
 Alpha  occ. eigenvalues --   -0.36725  -0.31271  -0.24334
 Alpha virt. eigenvalues --   -0.08579   0.03568   0.10590   0.12143   0.14039
 Alpha virt. eigenvalues --    0.15217   0.15664   0.18578   0.20279   0.24892
 Alpha virt. eigenvalues --    0.27049   0.32506   0.32834   0.51017   0.52317

 Mulliken charges:
               1
     1  C   -0.378430
     2  C    0.366824
     3  O   -0.417303
     4  C    0.366824
     5  C   -0.378430
     6  O   -0.417303
     7  H    0.146734
     8  H    0.135435
     9  H    0.146740
    10  H    0.135435
    11  H    0.146731
    12  H    0.146743
 Sum of Mulliken charges =   0.00000

 Dipole moment (field-independent basis, Debye):
    X=              0.0000    Y=              0.0000    Z=              0.0001  Tot=              0.0001
 Quadrupole moment (field-independent basis, Debye-Ang):
   XX=            -31.7116   YY=            -42.4853   ZZ=            -33.1502
   XY=             -4.8227   XZ=              0.0003   YZ=              0.0003

  Exact polarizability:  50.227  -1.799  53.346   0.000   0.000  31.813
 Approx polarizability:  58.171   1.166  96.458   0.001   0.000  46.113

                      1                      2                      3
                      A                      A                      A
 Frequencies --     47.3875                95.3771               104.6775
 Red. masses --      2.3903                 1.0643                 1.2649
 Frc consts  --      0.0032                 0.0057                 0.0082
 IR Inten    --      9.9357                 0.0000                 0.4161

                      4                      5                      6
                      A                      A                      A
 Frequencies --    238.7626               346.7723               361.4862
 Red. masses --      3.5672                 3.4770                 3.3559
 Frc consts  --      0.1198                 0.2463                 0.2584
 IR Inten    --     16.5053                 5.0712                 0.0000

                      7                      8                      9
                      A                      A                      A
 Frequencies --    523.7628               540.7393               621.5951
 Red. masses --      6.2523                 3.3088                 2.1233
 Frc consts  --      1.0106                 0.5700                 0.4834
 IR Inten    --      0.0000                40.2375                 0.0000

                     10                     11                     12
                      A                      A                      A
 Frequencies --    686.8300               913.0319               960.2499
 Red. masses --      3.5227                 2.3453                 1.4308
 Frc consts  --      0.9791                 1.1519                 0.7773
 IR Inten    --      0.0000                20.8240                 6.0311

                     13                     14                     15
                      A                      A                      A
 Frequencies --   1014.7696              1068.7282              1138.0704
 Red. masses --      1.7618                 2.0947                 2.2416
 Frc consts  --      1.0689                 1.4096                 1.7106
 IR Inten    --      0.0000                 0.0000                88.7040

                     16                     17                     18
                      A                      A                      A
 Frequencies --   1289.2254              1395.6917              1403.3665
 Red. masses --      3.3688                 1.2843                 1.4447
 Frc consts  --      3.2990                 1.4740                 1.6764
 IR Inten    --      0.0000                62.4431                 0.0000

                     19                     20                     21
                      A                      A                      A
 Frequencies --   1467.2821              1468.3571              1471.8352
 Red. masses --      1.0563                 1.0490                 1.0497
 Frc consts  --      1.3398                 1.3325                 1.3397
 IR Inten    --      0.0003                25.2329                18.2401

                     22                     23                     24
                      A                      A                      A
 Frequencies --   1476.4217              1808.4639              1809.1166
 Red. masses --      1.0487                11.9948                10.7164
 Frc consts  --      1.3469                23.1134                20.6648
 IR Inten    --      0.0001               210.7222                 0.0000

                     25                     26                     27
                      A                      A                      A
 Frequencies --   3059.9575              3059.9995              3122.3139
 Red. masses --      1.0360                 1.0362                 1.0982
 Frc consts  --      5.7153                 5.7163                 6.3081
 IR Inten    --      0.3720                 0.0001                 5.9884

                     28                     29                     30
                      A                      A                      A
 Frequencies --   3122.5270              3174.4475              3174.9830
 Red. masses --      1.0984                 1.1051                 1.1050
 Frc consts  --      6.3098                 6.5614                 6.5631
 IR Inten    --      0.0001                 0.0000                13.9982

 - Thermochemistry -
 -------------------
 Temperature   298.150 Kelvin.  Pressure   1.00000 Atm.
 Atom     1 has atomic number  6 and mass  12.00000

 Molecular mass:    86.03678 amu.
 Principal axes and moments of inertia in atomic units:
                           1         2         3
     Eigenvalues --   343.09279 537.39406 858.43788
           X            0.98640  -0.16436   0.00003
           Y            0.16436   0.98640   0.00002
           Z           -0.00004  -0.00001   1.00000
 This molecule is an asymmetric top.
 Rotational symmetry number  1.
 Rotational temperatures (Kelvin)      0.25245     0.16117     0.10090
 Rotational constants (GHZ):           5.26021     3.35832     2.10236
 Zero-point vibrational energy     245032.5 (Joules/Mol)
                                   58.56416 (Kcal/Mol)
 Warning -- explicit consideration of   8 degrees of freedom as
           vibrations may cause significant error
 Vibrational temperatures:     68.18   137.23   150.61   343.53   498.93
          (Kelvin)            520.10   753.58   778.00   894.34   988.19
                             1313.65  1381.58  1460.03  1537.66  1637.43
                             1854.91  2008.09  2019.13  2111.09  2112.64
                             2117.64  2124.24  2601.97  2602.91  4402.59
                             4402.65  4492.31  4492.61  4567.32  4568.09

 Zero-point correction=                           0.093328 (Hartree/Particle)
 Thermal correction to Energy=                    0.100586
 Thermal correction to Enthalpy=                  0.101530
 Thermal correction to Gibbs Free Energy=         0.061497
 Sum of electronic and zero-point Energies=           -306.391290
 Sum of electronic and thermal Energies=              -306.384032
 Sum of electronic and thermal Enthalpies=            -306.383088
 Sum of electronic and thermal Free Energies=         -306.423121

                     E (Thermal)             CV                S
                      KCal/Mol        Cal/Mol-Kelvin    Cal/Mol-Kelvin
 Total                   63.118             23.521             84.256
 Electronic               0.000              0.000              0.000
 Translational            0.889              2.981             39.270
 Rotational               0.889              2.981             26.562
 Vibrational             61.341             17.560             18.424
 Vibration     1          0.595              1.979              4.924
 Vibration     2          0.603              1.952              3.547
 Vibration     3          0.605              1.945              3.365
 Vibration     4          0.657              1.781              1.812
 Vibration     5          0.725              1.582              1.181
 Vibration     6          0.736              1.552              1.116
 Vibration     7          0.879              1.197              0.601
 Vibration     8          0.896              1.160              0.564

 Optimization completed.
    -- Stationary point found.
 Normal termination of Gaussian 09 at Thu Jul 22 18:35:44 2021.
