 Gaussian 09, Revision D.01,
 Gaussian 09:  ES64L-G09RevD.01 24-Apr-2013

 --------------------------------
 #P OPT=calcfc Freq B3LYP/6-31G**
 --------------------------------

 --------
 Frag_103
 --------
 Symbolic Z-matrix:
 Charge =  0 Multiplicity = 1

 SCF Done:  E(RB3LYP) =  -173.269435258     A.U. after   13 cycles
 SCF Done:  E(RB3LYP) =  -173.269605218     A.U. after   12 cycles
 SCF Done:  E(RB3LYP) =  -173.270116764     A.U. after   13 cycles
 SCF Done:  E(RB3LYP) =  -173.270335971     A.U. after   11 cycles
 SCF Done:  E(RB3LYP) =  -173.269878242     A.U. after   12 cycles
 SCF Done:  E(RB3LYP) =  -173.270484034     A.U. after    8 cycles
 SCF Done:  E(RB3LYP) =  -173.270508574     A.U. after   10 cycles
 SCF Done:  E(RB3LYP) =  -173.270510512     A.U. after    9 cycles
 SCF Done:  E(RB3LYP) =  -173.270510912     A.U. after    8 cycles
 SCF Done:  E(RB3LYP) =  -173.270510928     A.U. after    6 cycles
 Optimization completed.
    -- Stationary point found.

 1\1\GINC-FN10\FOpt\RB3LYP\6-31G(d,p)\C3H7N1\LIUJ201281\23-Jul-2021\0\\
 #P OPT=calcfc Freq B3LYP/6-31G**\\Frag_103\\0,1\C,1.5223637226,-0.5103
 060742,0.1885302493\C,0.5954567005,0.6404139784,-0.1252583813\N,-0.668
 8001729,0.6843106245,-0.2585348697\C,-1.4982059628,-0.4984610044,-0.11
 18305941\H,1.0164252988,-1.4669906193,0.323342706\H,2.2584389069,-0.61
 84393295,-0.6171636062\H,2.0888361574,-0.2866859945,1.1005312835\H,1.1
 128854433,1.598195524,-0.2592309264\H,-2.0651862488,-0.6406069984,-1.0
 38961928\H,-0.9794882462,-1.4381897179,0.1210175499\H,-2.2346255987,-0

 Normal termination of Gaussian 09 at Fri Jul 23 14:20:34 2021.

 ----------------------------------------------------------------------
 #P Geom=AllCheck Guess=TCheck SCRF=Check GenChk RB3LYP/6-31G(d,p) Freq
 ----------------------------------------------------------------------

 Structure from the checkpoint file:  "/vol2/users/liuj201281/HOFBenchmark/IsodesmicSplit/Sample60/Ring26/Running/Gau-330257.chk"
 --------
 Frag_103
 --------
 Charge =  0 Multiplicity = 1

                         Standard orientation:
 ---------------------------------------------------------------------
 Center     Atomic      Atomic             Coordinates (Angstroms)
 Number     Number       Type             X           Y           Z
 ---------------------------------------------------------------------
      1          6           0       -1.526731   -0.516290    0.000003
      2          6           0       -0.585137    0.664886   -0.000012
      3          7           0        0.685592    0.722178    0.000021
      4          6           0        1.508467   -0.474175   -0.000005
      5          1           0       -1.026856   -1.485578    0.000105
      6          1           0       -2.180674   -0.463905    0.878784
      7          1           0       -2.180579   -0.464032   -0.878856
      8          1           0       -1.096540    1.635192   -0.000033
      9          1           0        2.163486   -0.443576    0.878208
     10          1           0        0.978891   -1.436426   -0.000094
     11          1           0        2.163541   -0.443447   -0.878174
 ---------------------------------------------------------------------

 SCF Done:  E(RB3LYP) =  -173.270510928     A.U. after    1 cycles

 The electronic state is 1-A.
 Alpha  occ. eigenvalues --  -14.31961 -10.22448 -10.20095 -10.18986  -0.90661
 Alpha  occ. eigenvalues --   -0.74237  -0.68759  -0.54522  -0.47188  -0.44144
 Alpha  occ. eigenvalues --   -0.43406  -0.40990  -0.38738  -0.37000  -0.28235
 Alpha  occ. eigenvalues --   -0.23561
 Alpha virt. eigenvalues --    0.01185   0.09746   0.12917   0.14280   0.15716
 Alpha virt. eigenvalues --    0.16346   0.18538   0.19883   0.22622   0.26524
 Alpha virt. eigenvalues --    0.40401   0.49505   0.50899   0.56551   0.57607

 Mulliken charges:
               1
     1  C   -0.365096
     2  C    0.117338
     3  N   -0.358948
     4  C   -0.188057
     5  H    0.119321
     6  H    0.127385
     7  H    0.127386
     8  H    0.091002
     9  H    0.122850
    10  H    0.083967
    11  H    0.122852
 Sum of Mulliken charges =   0.00000

 Dipole moment (field-independent basis, Debye):
    X=             -1.1350    Y=             -1.4940    Z=              0.0000  Tot=              1.8762
 Quadrupole moment (field-independent basis, Debye-Ang):
   XX=            -23.7071   YY=            -27.2155   ZZ=            -25.7250
   XY=             -2.2710   XZ=              0.0000   YZ=             -0.0001

  Exact polarizability:  54.536  -2.597  36.589   0.000   0.000  28.552
 Approx polarizability:  76.965  -1.759  49.669   0.001   0.000  39.246

                      1                      2                      3
                      A                      A                      A
 Frequencies --     90.4519               112.2804               339.3000
 Red. masses --      1.0576                 1.0419                 2.6685
 Frc consts  --      0.0051                 0.0077                 0.1810
 IR Inten    --      1.8778                 0.6304                 1.7301

                      4                      5                      6
                      A                      A                      A
 Frequencies --    420.5356               582.7806               846.5773
 Red. masses --      2.5571                 2.3366                 1.0821
 Frc consts  --      0.2664                 0.4676                 0.4570
 IR Inten    --      4.5276                12.6201                 3.8218

                      7                      8                      9
                      A                      A                      A
 Frequencies --    869.9447               992.3278              1080.3674
 Red. masses --      2.5942                 3.1267                 1.6661
 Frc consts  --      1.1568                 1.8140                 1.1457
 IR Inten    --      2.8348                16.6844                 0.0008

                     10                     11                     12
                      A                      A                      A
 Frequencies --   1109.6725              1142.0108              1172.7249
 Red. masses --      1.7888                 1.3624                 1.6520
 Frc consts  --      1.2978                 1.0469                 1.3386
 IR Inten    --     11.6506                 0.8420                 2.8291

                     13                     14                     15
                      A                      A                      A
 Frequencies --   1401.7716              1437.1135              1446.1929
 Red. masses --      1.2313                 1.2011                 1.1652
 Frc consts  --      1.4255                 1.4616                 1.4359
 IR Inten    --      6.2825                10.2943                 8.3671

                     16                     17                     18
                      A                      A                      A
 Frequencies --   1491.3932              1491.4549              1500.0895
 Red. masses --      1.0586                 1.0449                 1.0413
 Frc consts  --      1.3873                 1.3694                 1.3806
 IR Inten    --     11.5555                 4.6515                 5.1100

                     19                     20                     21
                      A                      A                      A
 Frequencies --   1518.1432              1764.9827              3012.3410
 Red. masses --      1.0749                 8.2186                 1.0377
 Frc consts  --      1.4596                15.0843                 5.5480
 IR Inten    --      3.9431                67.7122                54.5848

                     22                     23                     24
                      A                      A                      A
 Frequencies --   3042.6867              3069.2222              3082.4538
 Red. masses --      1.0416                 1.0853                 1.0973
 Frc consts  --      5.6814                 6.0238                 6.1428
 IR Inten    --     10.2460                38.2596                41.6941

                     25                     26                     27
                      A                      A                      A
 Frequencies --   3093.6970              3094.4810              3160.3223
 Red. masses --      1.0999                 1.1009                 1.0974
 Frc consts  --      6.2026                 6.2113                 6.4575
 IR Inten    --      1.0047                36.1525                23.5904

 - Thermochemistry -
 -------------------
 Temperature   298.150 Kelvin.  Pressure   1.00000 Atm.
 Atom     1 has atomic number  6 and mass  12.00000

 Molecular mass:    57.05785 amu.
 Principal axes and moments of inertia in atomic units:
                           1         2         3
     Eigenvalues --   104.42749 326.21704 408.42361
           X            0.99971  -0.02408   0.00000
           Y            0.02408   0.99971   0.00000
           Z            0.00000   0.00000   1.00000
 This molecule is an asymmetric top.
 Rotational symmetry number  1.
 Rotational temperatures (Kelvin)      0.82942     0.26551     0.21207
 Rotational constants (GHZ):          17.28224     5.53233     4.41880
 Zero-point vibrational energy     253400.9 (Joules/Mol)
                                   60.56426 (Kcal/Mol)
 Warning -- explicit consideration of   5 degrees of freedom as
           vibrations may cause significant error
 Vibrational temperatures:    130.14   161.55   488.18   605.06   838.49
          (Kelvin)           1218.03  1251.65  1427.74  1554.41  1596.57
                             1643.10  1687.29  2016.83  2067.68  2080.75
                             2145.78  2145.87  2158.29  2184.27  2539.41
                             4334.08  4377.74  4415.92  4434.96  4451.13
                             4452.26  4546.99

 Zero-point correction=                           0.096515 (Hartree/Particle)
 Thermal correction to Energy=                    0.101942
 Thermal correction to Enthalpy=                  0.102886
 Thermal correction to Gibbs Free Energy=         0.068482
 Sum of electronic and zero-point Energies=           -173.173996
 Sum of electronic and thermal Energies=              -173.168569
 Sum of electronic and thermal Enthalpies=            -173.167625
 Sum of electronic and thermal Free Energies=         -173.202029

                     E (Thermal)             CV                S
                      KCal/Mol        Cal/Mol-Kelvin    Cal/Mol-Kelvin
 Total                   63.969             17.110             72.408
 Electronic               0.000              0.000              0.000
 Translational            0.889              2.981             38.046
 Rotational               0.889              2.981             24.146
 Vibrational             62.192             11.148             10.217
 Vibration     1          0.602              1.956              3.650
 Vibration     2          0.607              1.939              3.229
 Vibration     3          0.719              1.597              1.215
 Vibration     4          0.783              1.426              0.890
 Vibration     5          0.940              1.069              0.480

 Optimization completed.
    -- Stationary point found.

 1\1\GINC-FN10\Freq\RB3LYP\6-31G(d,p)\C3H7N1\LIUJ201281\23-Jul-2021\0\\
 #P Geom=AllCheck Guess=TCheck SCRF=Check GenChk RB3LYP/6-31G(d,p) Freq
 \\Frag_103\\0,1\C,1.5223637226,-0.5103060742,0.1885302493\C,0.59545670
 05,0.6404139784,-0.1252583813\N,-0.6688001729,0.6843106245,-0.25853486
 97\C,-1.4982059628,-0.4984610044,-0.1118305941\H,1.0164252988,-1.46699
 06193,0.323342706\H,2.2584389069,-0.6184393295,-0.6171636062\H,2.08883
 61574,-0.2866859945,1.1005312835\H,1.1128854433,1.598195524,-0.2592309
 264\H,-2.0651862488,-0.6406069984,-1.038961928\H,-0.9794882462,-1.4381

 Normal termination of Gaussian 09 at Fri Jul 23 14:20:43 2021.
