 Gaussian 09, Revision E.01,
 Gaussian 09:  ES64L-G09RevE.01 30-Nov-2015

 -------------------------
 #P OPT Freq B3LYP/6-31G**
 -------------------------

 --------
 Frag_210
 --------
 Symbolic Z-matrix:
 Charge =  0 Multiplicity = 1

 SCF Done:  E(RB3LYP) =  -262.040196040     A.U. after   13 cycles
 SCF Done:  E(RB3LYP) =  -262.047834491     A.U. after   12 cycles
 SCF Done:  E(RB3LYP) =  -262.049767030     A.U. after   12 cycles
 SCF Done:  E(RB3LYP) =  -262.050198694     A.U. after   10 cycles
 SCF Done:  E(RB3LYP) =  -262.050209102     A.U. after    8 cycles
 SCF Done:  E(RB3LYP) =  -262.050210513     A.U. after    8 cycles
 Optimization completed.
    -- Stationary point found.
 Normal termination of Gaussian 09 at Sat Aug 21 01:36:28 2021.

 ----------------------------------------------------------------------
 #P Geom=AllCheck Guess=TCheck SCRF=Check GenChk RB3LYP/6-31G(d,p) Freq
 ----------------------------------------------------------------------

 Structure from the checkpoint file:  "/public/home/users/caep010/.cache/gau_scr/Gau-121272.chk"
 --------
 Frag_210
 --------
 Charge =  0 Multiplicity = 1

                         Standard orientation:
 ---------------------------------------------------------------------
 Center     Atomic      Atomic             Coordinates (Angstroms)
 Number     Number       Type             X           Y           Z
 ---------------------------------------------------------------------
      1          6           0       -0.711312   -0.881262   -0.000001
      2          6           0        0.711309   -0.881267   -0.000001
      3          7           0        1.134771    0.355547    0.000003
      4          8           0        0.000006    1.126934   -0.000003
      5          7           0       -1.134774    0.355552    0.000003
      6          1           0       -1.405377   -1.708989   -0.000002
      7          1           0        1.405371   -1.708996   -0.000002
 ---------------------------------------------------------------------

 SCF Done:  E(RB3LYP) =  -262.050210513     A.U. after    1 cycles

 The electronic state is 1-A.
 Alpha  occ. eigenvalues --  -19.27767 -14.41611 -14.41610 -10.25346 -10.25301
 Alpha  occ. eigenvalues --   -1.19456  -0.92021  -0.88370  -0.65952  -0.64131
 Alpha  occ. eigenvalues --   -0.54766  -0.50111  -0.48735  -0.41373  -0.35645
 Alpha  occ. eigenvalues --   -0.32511  -0.32453  -0.32344
 Alpha virt. eigenvalues --   -0.05440   0.03015   0.08111   0.12226   0.14151
 Alpha virt. eigenvalues --    0.14978   0.20856   0.36232   0.38799   0.51139
 Alpha virt. eigenvalues --    0.51472   0.57904   0.58496   0.58592   0.61684

 Mulliken charges:
               1
     1  C    0.067359
     2  C    0.067358
     3  N   -0.112020
     4  O   -0.198315
     5  N   -0.112025
     6  H    0.143822
     7  H    0.143822
 Sum of Mulliken charges =  -0.00000

 Dipole moment (field-independent basis, Debye):
    X=              0.0000    Y=             -3.3481    Z=             -0.0000  Tot=              3.3481
 Quadrupole moment (field-independent basis, Debye-Ang):
   XX=            -29.4338   YY=            -25.1203   ZZ=            -28.0076
   XY=              0.0000   XZ=             -0.0000   YZ=              0.0000

  Exact polarizability:  37.883  -0.000  38.469  -0.000   0.000  15.637
 Approx polarizability:  68.499   0.000  74.311   0.000   0.000  23.605

                      1                      2                      3
                      A                      A                      A
 Frequencies --    648.4376               657.0882               861.4008
 Red. masses --     14.4278                 3.7696                 1.1789
 Frc consts  --      3.5743                 0.9589                 0.5154
 IR Inten    --      1.1552                 0.0000                31.2309

                      4                      5                      6
                      A                      A                      A
 Frequencies --    875.3512               902.8955               908.3207
 Red. masses --     10.1419                 1.3564                 5.7941
 Frc consts  --      4.5786                 0.6515                 2.8165
 IR Inten    --      4.7458                 0.0000                22.7985

                      7                      8                      9
                      A                      A                      A
 Frequencies --    969.2719              1039.1921              1065.2441
 Red. masses --      7.5422                11.3108                 1.6258
 Frc consts  --      4.1748                 7.1967                 1.0869
 IR Inten    --     20.5179                16.8222                 0.9685

                     10                     11                     12
                      A                      A                      A
 Frequencies --   1207.6443              1352.6385              1468.2987
 Red. masses --      1.2883                 3.3050                 5.8252
 Frc consts  --      1.1070                 3.5627                 7.3993
 IR Inten    --      4.7642                 4.0530                10.5253

                     13                     14                     15
                      A                      A                      A
 Frequencies --   1595.9569              3277.7681              3291.2336
 Red. masses --      5.9625                 1.0940                 1.1035
 Frc consts  --      8.9479                 6.9249                 7.0430
 IR Inten    --      0.1223                 0.0017                 0.4155

 - Thermochemistry -
 -------------------
 Temperature   298.150 Kelvin.  Pressure   1.00000 Atm.
 Atom     1 has atomic number  6 and mass  12.00000

 Molecular mass:    70.01671 amu.
 Principal axes and moments of inertia in atomic units:
                           1         2         3
     Eigenvalues --   172.18170 186.36646 358.54815
           X            1.00000   0.00000  -0.00000
           Y           -0.00000   1.00000   0.00000
           Z            0.00000  -0.00000   1.00000
 This molecule is an asymmetric top.
 Rotational symmetry number  1.
 Rotational temperatures (Kelvin)      0.50304     0.46475     0.24157
 Rotational constants (GHZ):          10.48161     9.68383     5.03347
 Zero-point vibrational energy     120348.8 (Joules/Mol)
                                   28.76404 (Kcal/Mol)
 Vibrational temperatures:    932.96   945.40  1239.36  1259.43  1299.06
          (Kelvin)           1306.87  1394.56  1495.16  1532.65  1737.53
                             1946.14  2112.55  2296.22  4715.97  4735.35

 Zero-point correction=                           0.045838 (Hartree/Particle)
 Thermal correction to Energy=                    0.049301
 Thermal correction to Enthalpy=                  0.050245
 Thermal correction to Gibbs Free Energy=         0.019704
 Sum of electronic and zero-point Energies=           -262.004372
 Sum of electronic and thermal Energies=              -262.000910
 Sum of electronic and thermal Enthalpies=            -261.999966
 Sum of electronic and thermal Free Energies=         -262.030506

                     E (Thermal)             CV                S
                      KCal/Mol        Cal/Mol-Kelvin    Cal/Mol-Kelvin
 Total                   30.937             11.401             64.278
 Electronic               0.000              0.000              0.000
 Translational            0.889              2.981             38.656
 Rotational               0.889              2.981             23.957
 Vibrational             29.159              5.440              1.665

 Optimization completed.
    -- Stationary point found.
 Normal termination of Gaussian 09 at Sat Aug 21 01:36:35 2021.
