 Gaussian 09, Revision E.01,
 Gaussian 09:  ES64L-G09RevE.01 30-Nov-2015

 -------------------------
 #P OPT Freq B3LYP/6-31G**
 -------------------------

 --------
 Frag_236
 --------
 Symbolic Z-matrix:
 Charge =  0 Multiplicity = 1

 SCF Done:  E(RB3LYP) =  -307.664746081     A.U. after   12 cycles
 SCF Done:  E(RB3LYP) =  -307.668440735     A.U. after   11 cycles
 SCF Done:  E(RB3LYP) =  -307.668582596     A.U. after    9 cycles
 SCF Done:  E(RB3LYP) =  -307.668594948     A.U. after    7 cycles
 SCF Done:  E(RB3LYP) =  -307.668595958     A.U. after    7 cycles
 Optimization completed.
    -- Stationary point found.
 Normal termination of Gaussian 09 at Sat Aug 21 01:34:46 2021.

 ----------------------------------------------------------------------
 #P Geom=AllCheck Guess=TCheck SCRF=Check GenChk RB3LYP/6-31G(d,p) Freq
 ----------------------------------------------------------------------

 Structure from the checkpoint file:  "/public/home/users/caep010/.cache/gau_scr/Gau-166317.chk"
 --------
 Frag_236
 --------
 Charge =  0 Multiplicity = 1

                         Standard orientation:
 ---------------------------------------------------------------------
 Center     Atomic      Atomic             Coordinates (Angstroms)
 Number     Number       Type             X           Y           Z
 ---------------------------------------------------------------------
      1          6           0       -1.483321    0.000002    0.000001
      2          6           0       -0.572055    1.207117    0.297457
      3          8           0        0.635913    1.084162   -0.455889
      4          6           0        1.416770   -0.000001    0.000001
      5          8           0        0.635910   -1.084166    0.455887
      6          6           0       -0.572058   -1.207114   -0.297458
      7          1           0       -2.130523   -0.197552    0.861610
      8          1           0       -2.130526    0.197557   -0.861605
      9          1           0       -1.026890    2.152798   -0.005630
     10          1           0       -0.346361    1.265804    1.372051
     11          1           0        2.048488   -0.286905   -0.854820
     12          1           0        2.048478    0.286903    0.854829
     13          1           0       -0.346366   -1.265800   -1.372052
     14          1           0       -1.026898   -2.152795    0.005627
 ---------------------------------------------------------------------

 SCF Done:  E(RB3LYP) =  -307.668595958     A.U. after    1 cycles

 The electronic state is 1-A.
 Alpha  occ. eigenvalues --  -19.15086 -19.15086 -10.27577 -10.23458 -10.23458
 Alpha  occ. eigenvalues --  -10.18759  -1.07103  -0.99821  -0.78607  -0.68106
 Alpha  occ. eigenvalues --   -0.66940  -0.55581  -0.51534  -0.49927  -0.49925
 Alpha  occ. eigenvalues --   -0.43213  -0.42343  -0.39042  -0.38374  -0.36221
 Alpha  occ. eigenvalues --   -0.36170  -0.29520  -0.27704  -0.24638
 Alpha virt. eigenvalues --    0.09090   0.11160   0.12593   0.12802   0.14529
 Alpha virt. eigenvalues --    0.14703   0.16297   0.17207   0.19164   0.21955
 Alpha virt. eigenvalues --    0.23229   0.23497   0.28293   0.28577   0.51310

 Mulliken charges:
               1
     1  C   -0.211479
     2  C    0.054756
     3  O   -0.498235
     4  C    0.295208
     5  O   -0.498235
     6  C    0.054756
     7  H    0.103298
     8  H    0.103298
     9  H    0.108055
    10  H    0.098346
    11  H    0.091916
    12  H    0.091916
    13  H    0.098346
    14  H    0.108055
 Sum of Mulliken charges =  -0.00000

 Dipole moment (field-independent basis, Debye):
    X=             -1.1486    Y=              0.0000    Z=              0.0000  Tot=              1.1486
 Quadrupole moment (field-independent basis, Debye-Ang):
   XX=            -33.8084   YY=            -37.8280   ZZ=            -36.9780
   XY=             -0.0000   XZ=              0.0000   YZ=              2.7599

  Exact polarizability:  52.667   0.000  46.041   0.000   1.902  43.057
 Approx polarizability:  67.219   0.000  61.191  -0.000  -1.155  63.314

                      1                      2                      3
                      A                      A                      A
 Frequencies --    118.4163               269.4636               306.2082
 Red. masses --      1.8702                 1.8973                 2.7905
 Frc consts  --      0.0155                 0.0812                 0.1542
 IR Inten    --      5.1818                11.1783                 3.6836

                      4                      5                      6
                      A                      A                      A
 Frequencies --    470.3717               542.1745               703.2068
 Red. masses --      3.8860                 5.0506                 2.8389
 Frc consts  --      0.5066                 0.8747                 0.8271
 IR Inten    --      9.3228                 0.3690                 1.4855

                      7                      8                      9
                      A                      A                      A
 Frequencies --    791.9644               877.7110               927.6776
 Red. masses --      1.2536                 3.7532                 3.1209
 Frc consts  --      0.4633                 1.7035                 1.5824
 IR Inten    --      0.2206                 0.0000                38.8602

                     10                     11                     12
                      A                      A                      A
 Frequencies --    936.6679              1036.4634              1037.7676
 Red. masses --      2.5976                 2.5074                 2.0460
 Frc consts  --      1.3427                 1.5870                 1.2982
 IR Inten    --      2.4252                57.1950                 4.9735

                     13                     14                     15
                      A                      A                      A
 Frequencies --   1063.6533              1135.0355              1170.6632
 Red. masses --      4.5992                 1.8995                 1.8105
 Frc consts  --      3.0657                 1.4418                 1.4618
 IR Inten    --     31.9832                14.7866                30.3316

                     16                     17                     18
                      A                      A                      A
 Frequencies --   1170.7033              1245.9330              1279.6801
 Red. masses --      5.6946                 1.1198                 1.1889
 Frc consts  --      4.5984                 1.0242                 1.1471
 IR Inten    --    208.5596                20.9278                10.0853

                     19                     20                     21
                      A                      A                      A
 Frequencies --   1292.8031              1320.2547              1360.4173
 Red. masses --      1.3517                 1.1261                 1.3987
 Frc consts  --      1.3310                 1.1565                 1.5252
 IR Inten    --     17.3060                 0.0134                 0.8800

                     22                     23                     24
                      A                      A                      A
 Frequencies --   1379.1333              1420.1055              1454.2075
 Red. masses --      1.1953                 1.2913                 1.2336
 Frc consts  --      1.3394                 1.5343                 1.5370
 IR Inten    --      1.4183                25.6217                15.0815

                     25                     26                     27
                      A                      A                      A
 Frequencies --   1499.6808              1519.3847              1521.4637
 Red. masses --      1.0863                 1.0891                 1.0915
 Frc consts  --      1.4395                 1.4814                 1.4887
 IR Inten    --      1.6451                 2.3144                 0.0516

                     28                     29                     30
                      A                      A                      A
 Frequencies --   1540.4565              2989.1703              3014.2415
 Red. masses --      1.1047                 1.0530                 1.0706
 Frc consts  --      1.5445                 5.5433                 5.7308
 IR Inten    --      1.7711               116.7092                88.8323

                     31                     32                     33
                      A                      A                      A
 Frequencies --   3015.5485              3030.7926              3053.3781
 Red. masses --      1.0702                 1.1138                 1.0607
 Frc consts  --      5.7340                 6.0280                 5.8262
 IR Inten    --      0.8777                73.5361                26.5463

                     34                     35                     36
                      A                      A                      A
 Frequencies --   3095.4145              3119.4208              3121.8499
 Red. masses --      1.1017                 1.0968                 1.0997
 Frc consts  --      6.2195                 6.2881                 6.3146
 IR Inten    --     29.0267                13.0764                57.9905

 - Thermochemistry -
 -------------------
 Temperature   298.150 Kelvin.  Pressure   1.00000 Atm.
 Atom     1 has atomic number  6 and mass  12.00000

 Molecular mass:    88.05243 amu.
 Principal axes and moments of inertia in atomic units:
                           1         2         3
     Eigenvalues --   360.40606 380.37137 631.11474
           X            1.00000   0.00000   0.00000
           Y           -0.00000   0.99871   0.05085
           Z           -0.00000  -0.05085   0.99871
 This molecule is an asymmetric top.
 Rotational symmetry number  1.
 Rotational temperatures (Kelvin)      0.24032     0.22771     0.13724
 Rotational constants (GHZ):           5.00752     4.74468     2.85961
 Zero-point vibrational energy     321983.8 (Joules/Mol)
                                   76.95597 (Kcal/Mol)
 Warning -- explicit consideration of   5 degrees of freedom as
           vibrations may cause significant error
 Vibrational temperatures:    170.37   387.70   440.56   676.76   780.07
          (Kelvin)           1011.76  1139.46  1262.83  1334.72  1347.65
                             1491.24  1493.11  1530.36  1633.06  1684.32
                             1684.38  1792.62  1841.17  1860.05  1899.55
                             1957.33  1984.26  2043.21  2092.28  2157.70
                             2186.05  2189.04  2216.37  4300.74  4336.82
                             4338.70  4360.63  4393.12  4453.61  4488.15
                             4491.64

 Zero-point correction=                           0.122637 (Hartree/Particle)
 Thermal correction to Energy=                    0.128078
 Thermal correction to Enthalpy=                  0.129022
 Thermal correction to Gibbs Free Energy=         0.093751
 Sum of electronic and zero-point Energies=           -307.545959
 Sum of electronic and thermal Energies=              -307.540518
 Sum of electronic and thermal Enthalpies=            -307.539574
 Sum of electronic and thermal Free Energies=         -307.574845

                     E (Thermal)             CV                S
                      KCal/Mol        Cal/Mol-Kelvin    Cal/Mol-Kelvin
 Total                   80.370             19.710             74.234
 Electronic               0.000              0.000              0.000
 Translational            0.889              2.981             39.339
 Rotational               0.889              2.981             25.962
 Vibrational             78.592             13.749              8.933
 Vibration     1          0.609              1.934              3.126
 Vibration     2          0.674              1.729              1.600
 Vibration     3          0.697              1.662              1.383
 Vibration     4          0.827              1.316              0.737
 Vibration     5          0.897              1.157              0.561

 Optimization completed.
    -- Stationary point found.
 Normal termination of Gaussian 09 at Sat Aug 21 01:34:57 2021.
