 Gaussian 09, Revision E.01,
 Gaussian 09:  ES64L-G09RevE.01 30-Nov-2015

 ----------------------------
 #P OPT Freq B3LYP/6-31G(d,p)
 ----------------------------

 --------
 Frag_613
 --------
 Symbolic Z-matrix:
 Charge =  0 Multiplicity = 1

 SCF Done:  E(RB3LYP) =  -250.638601764     A.U. after   13 cycles
 SCF Done:  E(RB3LYP) =  -250.638704000     A.U. after   11 cycles
 SCF Done:  E(RB3LYP) =  -250.638583830     A.U. after   10 cycles
 SCF Done:  E(RB3LYP) =  -250.638697747     A.U. after   11 cycles
 SCF Done:  E(RB3LYP) =  -250.638711008     A.U. after   10 cycles
 SCF Done:  E(RB3LYP) =  -250.638710668     A.U. after    8 cycles
 SCF Done:  E(RB3LYP) =  -250.638711333     A.U. after    8 cycles
 SCF Done:  E(RB3LYP) =  -250.638711396     A.U. after    7 cycles
 Optimization completed.
    -- Stationary point found.
 Normal termination of Gaussian 09 at Thu Sep  8 14:55:44 2022.

 ----------------------------------------------------------------------
 #P Geom=AllCheck Guess=TCheck SCRF=Check GenChk RB3LYP/6-31G(d,p) Freq
 ----------------------------------------------------------------------

 Structure from the checkpoint file:  "B3LYP6-31Gdp.Frag_613.chk"
 --------
 Frag_613
 --------
 Charge =  0 Multiplicity = 1

                         Standard orientation:
 ---------------------------------------------------------------------
 Center     Atomic      Atomic             Coordinates (Angstroms)
 Number     Number       Type             X           Y           Z
 ---------------------------------------------------------------------
      1          6           0        2.378478    0.031815   -0.021595
      2          6           0        1.171417    0.032870    0.012902
      3          6           0       -0.304092    0.001742    0.027547
      4          6           0       -0.789525   -1.140963   -0.898334
      5          6           0       -0.856005    1.354554   -0.467060
      6          7           0       -0.740626   -0.169908    1.431006
      7          1           0        3.443531    0.044078   -0.042820
      8          1           0       -1.885005   -1.176160   -0.899975
      9          1           0       -0.411893   -2.106568   -0.548362
     10          1           0       -0.449236   -0.996829   -1.928535
     11          1           0       -0.529659    1.559267   -1.489933
     12          1           0       -1.951839    1.335570   -0.453327
     13          1           0       -0.514032    2.159722    0.186000
     14          1           0       -0.363796   -1.042940    1.795442
     15          1           0       -1.755325   -0.266889    1.443704
 ---------------------------------------------------------------------

 SCF Done:  E(RB3LYP) =  -250.638711396     A.U. after    1 cycles

 The electronic state is 1-A.
 Alpha  occ. eigenvalues --  -14.31489 -10.24415 -10.18124 -10.17931 -10.17780
 Alpha  occ. eigenvalues --  -10.17468  -0.89636  -0.76953  -0.72246  -0.69080
 Alpha  occ. eigenvalues --   -0.61087  -0.51895  -0.49274  -0.46002  -0.43990
 Alpha  occ. eigenvalues --   -0.41697  -0.39211  -0.37316  -0.36590  -0.35044
 Alpha  occ. eigenvalues --   -0.26539  -0.26232  -0.23884
 Alpha virt. eigenvalues --    0.05141   0.06122   0.07786   0.12335   0.13501
 Alpha virt. eigenvalues --    0.14226   0.14985   0.16833   0.18513   0.20110
 Alpha virt. eigenvalues --    0.20416   0.21198   0.25197   0.25617   0.27797

 Mulliken charges:
               1
     1  C   -0.455970
     2  C    0.349418
     3  C   -0.008775
     4  C   -0.295895
     5  C   -0.286647
     6  N   -0.570910
     7  H    0.152623
     8  H    0.094438
     9  H    0.105405
    10  H    0.111754
    11  H    0.109663
    12  H    0.093932
    13  H    0.129224
    14  H    0.238992
    15  H    0.232749
 Sum of Mulliken charges =  -0.00000

 Dipole moment (field-independent basis, Debye):
    X=             -0.8991    Y=             -1.0552    Z=             -0.6874  Tot=              1.5473
 Quadrupole moment (field-independent basis, Debye-Ang):
   XX=            -31.8654   YY=            -37.1421   ZZ=            -39.4852
   XY=              0.5617   XZ=             -0.6614   YZ=             -2.6356

  Exact polarizability:  74.788  -0.380  47.252  -0.752  -1.381  47.445
 Approx polarizability: 113.424  -1.173  61.315  -2.419  -2.039  64.777

                      1                      2                      3
                      A                      A                      A
 Frequencies --    177.1618               184.7949               243.7429
 Red. masses --      2.7980                 2.9660                 1.0434
 Frc consts  --      0.0517                 0.0597                 0.0365
 IR Inten    --      2.2092                 0.9187                 8.2756

                      4                      5                      6
                      A                      A                      A
 Frequencies --    280.3989               288.8447               356.5066
 Red. masses --      1.1212                 1.0452                 2.2885
 Frc consts  --      0.0519                 0.0514                 0.1714
 IR Inten    --     36.0541                 1.9235                 0.6597

                      7                      8                      9
                      A                      A                      A
 Frequencies --    394.0224               409.3231               557.6874
 Red. masses --      2.6595                 2.6897                 4.6437
 Frc consts  --      0.2433                 0.2655                 0.8509
 IR Inten    --      7.7197                 4.2563                 3.6738

                     10                     11                     12
                      A                      A                      A
 Frequencies --    565.6104               620.9073               644.6728
 Red. masses --      5.1899                 1.2109                 1.2308
 Frc consts  --      0.9782                 0.2751                 0.3014
 IR Inten    --      3.0023                46.0919                41.0621

                     13                     14                     15
                      A                      A                      A
 Frequencies --    707.5884               871.6264               923.3231
 Red. masses --      4.0927                 1.8032                 1.6451
 Frc consts  --      1.2073                 0.8071                 0.8263
 IR Inten    --      1.4839               118.3597                41.8543

                     16                     17                     18
                      A                      A                      A
 Frequencies --    931.1030               968.9902              1033.0510
 Red. masses --      1.6004                 1.7869                 1.3097
 Frc consts  --      0.8175                 0.9885                 0.8235
 IR Inten    --      0.7115                 0.9748                 3.2999

                     19                     20                     21
                      A                      A                      A
 Frequencies --   1109.3983              1192.2043              1242.7866
 Red. masses --      1.5258                 2.3590                 2.7656
 Frc consts  --      1.1064                 1.9755                 2.5167
 IR Inten    --     11.7144                33.5821                28.8204

                     22                     23                     24
                      A                      A                      A
 Frequencies --   1353.6468              1405.8908              1426.1478
 Red. masses --      1.9386                 1.2333                 1.2290
 Frc consts  --      2.0929                 1.4362                 1.4728
 IR Inten    --     22.0908                 4.7731                 2.6616

                     25                     26                     27
                      A                      A                      A
 Frequencies --   1492.9573              1497.6461              1510.5401
 Red. masses --      1.0479                 1.0478                 1.0499
 Frc consts  --      1.3761                 1.3846                 1.4114
 IR Inten    --      0.1928                 1.5057                 2.4839

                     28                     29                     30
                      A                      A                      A
 Frequencies --   1521.1888              1657.9922              2235.5857
 Red. masses --      1.0655                 1.0920                 5.9486
 Frc consts  --      1.4527                 1.7687                17.5166
 IR Inten    --      2.3569                25.5038                 0.3087

                     31                     32                     33
                      A                      A                      A
 Frequencies --   3036.7198              3048.5529              3111.9709
 Red. masses --      1.0353                 1.0386                 1.1019
 Frc consts  --      5.6248                 5.6870                 6.2873
 IR Inten    --     18.5289                25.3205                18.5954

                     34                     35                     36
                      A                      A                      A
 Frequencies --   3122.3057              3125.3540              3153.8841
 Red. masses --      1.1016                 1.1001                 1.1038
 Frc consts  --      6.3274                 6.3311                 6.4686
 IR Inten    --     18.9430                42.7170                16.6801

                     37                     38                     39
                      A                      A                      A
 Frequencies --   3469.6150              3490.3709              3561.4058
 Red. masses --      1.0492                 1.1606                 1.0925
 Frc consts  --      7.4414                 8.3304                 8.1639
 IR Inten    --      1.8790                58.3222                 0.3233

 - Thermochemistry -
 -------------------
 Temperature   298.150 Kelvin.  Pressure   1.00000 Atm.
 Atom     1 has atomic number  6 and mass  12.00000

 Molecular mass:    83.07350 amu.
 Principal axes and moments of inertia in atomic units:
                           1         2         3
     Eigenvalues --   388.11719 664.66358 671.46261
           X            0.99990   0.00537   0.01323
           Y           -0.00031   0.93454  -0.35587
           Z           -0.01428   0.35583   0.93444
 This molecule is an asymmetric top.
 Rotational symmetry number  1.
 Rotational temperatures (Kelvin)      0.22316     0.13031     0.12899
 Rotational constants (GHZ):           4.64999     2.71527     2.68778
 Zero-point vibrational energy     340490.2 (Joules/Mol)
                                   81.37911 (Kcal/Mol)
 Warning -- explicit consideration of  10 degrees of freedom as
           vibrations may cause significant error
 Vibrational temperatures:    254.90   265.88   350.69   403.43   415.58
          (Kelvin)            512.93   566.91   588.92   802.39   813.79
                              893.35   927.54  1018.06  1254.07  1328.45
                             1339.65  1394.16  1486.33  1596.17  1715.31
                             1788.09  1947.59  2022.76  2051.91  2148.03
                             2154.78  2173.33  2188.65  2385.48  3216.51
                             4369.16  4386.18  4477.43  4492.30  4496.68
                             4537.73  4992.00  5021.86  5124.06

 Zero-point correction=                           0.129686 (Hartree/Particle)
 Thermal correction to Energy=                    0.137137
 Thermal correction to Enthalpy=                  0.138082
 Thermal correction to Gibbs Free Energy=         0.099470
 Sum of electronic and zero-point Energies=           -250.509026
 Sum of electronic and thermal Energies=              -250.501574
 Sum of electronic and thermal Enthalpies=            -250.500630
 Sum of electronic and thermal Free Energies=         -250.539242

                     E (Thermal)             CV                S
                      KCal/Mol        Cal/Mol-Kelvin    Cal/Mol-Kelvin
 Total                   86.055             27.885             81.265
 Electronic               0.000              0.000              0.000
 Translational            0.889              2.981             39.165
 Rotational               0.889              2.981             26.652
 Vibrational             84.278             21.923             15.449
 Vibration     1          0.628              1.870              2.358
 Vibration     2          0.631              1.861              2.279
 Vibration     3          0.659              1.773              1.775
 Vibration     4          0.680              1.710              1.531
 Vibration     5          0.685              1.694              1.481
 Vibration     6          0.732              1.562              1.137
 Vibration     7          0.761              1.483              0.985
 Vibration     8          0.774              1.450              0.929
 Vibration     9          0.913              1.123              0.528
 Vibration    10          0.921              1.106              0.513

 Optimization completed.
    -- Stationary point found.
 Normal termination of Gaussian 09 at Thu Sep  8 14:55:56 2022.
