 Gaussian 09, Revision D.01,
 Gaussian 09:  ES64L-G09RevD.01 24-Apr-2013

 -------------------------
 #P OPT Freq B3LYP/6-31G**
 -------------------------

 -------
 Frag_73
 -------
 Symbolic Z-matrix:
 Charge =  0 Multiplicity = 1

 SCF Done:  E(RB3LYP) =  -235.873582580     A.U. after   12 cycles
 Optimization completed.
    -- Stationary point found.
 Normal termination of Gaussian 09 at Fri Jul 23 06:30:45 2021.

 ----------------------------------------------------------------------
 #P Geom=AllCheck Guess=TCheck SCRF=Check GenChk RB3LYP/6-31G(d,p) Freq
 ----------------------------------------------------------------------

 Structure from the checkpoint file:  "/vol2/users/liuj201281/HOFBenchmark/IsodesmicSplit/Sample60/Ring26/Running/Gau-116945.chk"
 -------
 Frag_73
 -------
 Charge =  0 Multiplicity = 1

                         Standard orientation:
 ---------------------------------------------------------------------
 Center     Atomic      Atomic             Coordinates (Angstroms)
 Number     Number       Type             X           Y           Z
 ---------------------------------------------------------------------
      1          6           0        1.527897    1.249801    0.000204
      2          6           0        0.674802   -0.000002   -0.000096
      3          6           0        1.527907   -1.249799   -0.000196
      4          6           0       -0.674798   -0.000007   -0.000096
      5          6           0       -1.527893   -1.249810    0.000204
      6          6           0       -1.527903    1.249790   -0.000196
      7          1           0        2.185997    1.263804    0.879404
      8          1           0        2.189497    1.262004   -0.876396
      9          1           0        0.961694    2.180799   -0.001796
     10          1           0        2.186907   -1.263396   -0.878696
     11          1           0        0.961710   -2.180801    0.000904
     12          1           0        2.188607   -1.262296    0.877104
     13          1           0       -2.188493   -1.262012    0.877504
     14          1           0       -0.961690   -2.180808    0.001704
     15          1           0       -2.186993   -1.263712   -0.878196
     16          1           0       -2.186403    1.263988    0.878704
     17          1           0       -2.189203    1.261788   -0.876996
     18          1           0       -0.961706    2.180792   -0.002196
 ---------------------------------------------------------------------

 SCF Done:  E(RB3LYP) =  -235.873582580     A.U. after    1 cycles

 The electronic state is 1-A.
 Alpha  occ. eigenvalues --  -10.18152 -10.18074 -10.17228 -10.17228 -10.17227
 Alpha  occ. eigenvalues --  -10.17226  -0.81134  -0.74297  -0.69311  -0.66726
 Alpha  occ. eigenvalues --   -0.61810  -0.48546  -0.46284  -0.43212  -0.43013
 Alpha  occ. eigenvalues --   -0.41033  -0.37909  -0.37616  -0.37216  -0.36820
 Alpha  occ. eigenvalues --   -0.35741  -0.34787  -0.31245  -0.21739
 Alpha virt. eigenvalues --    0.03746   0.09059   0.11794   0.13258   0.13854
 Alpha virt. eigenvalues --    0.16370   0.16605   0.17991   0.18401   0.19267
 Alpha virt. eigenvalues --    0.21201   0.21493   0.23397   0.24297   0.25235

 Mulliken charges:
               1
     1  C   -0.361436
     2  C    0.084085
     3  C   -0.361431
     4  C    0.084097
     5  C   -0.361439
     6  C   -0.361443
     7  H    0.108043
     8  H    0.107956
     9  H    0.103389
    10  H    0.108031
    11  H    0.103389
    12  H    0.107971
    13  H    0.107988
    14  H    0.103387
    15  H    0.108025
    16  H    0.108028
    17  H    0.107971
    18  H    0.103390
 Sum of Mulliken charges =   0.00000

 Dipole moment (field-independent basis, Debye):
    X=             -0.0001    Y=              0.0000    Z=              0.0004  Tot=              0.0004
 Quadrupole moment (field-independent basis, Debye-Ang):
   XX=            -38.4567   YY=            -39.0559   ZZ=            -40.4055
   XY=              0.0000   XZ=              0.0000   YZ=              0.0006

  Exact polarizability:  88.104   0.000  64.491   0.000   0.004  48.147
 Approx polarizability: 124.628   0.000  83.107   0.001   0.004  69.763

                      1                      2                      3
                      A                      A                      A
 Frequencies --     68.9092                91.8526               131.7756
 Red. masses --      1.0761                 1.0288                 1.0599
 Frc consts  --      0.0030                 0.0051                 0.0108
 IR Inten    --      0.0000                 0.0000                 1.8918

                      4                      5                      6
                      A                      A                      A
 Frequencies --    156.0320               177.1889               344.6183
 Red. masses --      2.0928                 1.0499                 2.8516
 Frc consts  --      0.0300                 0.0194                 0.1995
 IR Inten    --      0.0000                 0.0001                 0.1008

                      7                      8                      9
                      A                      A                      A
 Frequencies --    344.9855               412.9091               420.5482
 Red. masses --      2.1671                 2.0927                 2.4171
 Frc consts  --      0.1520                 0.2102                 0.2519
 IR Inten    --      3.7714                 0.9145                 0.0000

                     10                     11                     12
                      A                      A                      A
 Frequencies --    494.4749               520.3726               690.7840
 Red. masses --      3.0488                 2.5162                 3.4085
 Frc consts  --      0.4392                 0.4014                 0.9583
 IR Inten    --      0.0000                 0.0000                 0.0000

                     13                     14                     15
                      A                      A                      A
 Frequencies --    902.8524               952.0421               961.6326
 Red. masses --      2.4452                 1.4195                 1.2118
 Frc consts  --      1.1743                 0.7580                 0.6602
 IR Inten    --      1.8873                 0.0000                 0.0000

                     16                     17                     18
                      A                      A                      A
 Frequencies --    979.8821              1025.3997              1059.7472
 Red. masses --      1.3354                 1.2882                 1.3657
 Frc consts  --      0.7554                 0.7980                 0.9037
 IR Inten    --      1.1453                 0.0003                 0.0000

                     19                     20                     21
                      A                      A                      A
 Frequencies --   1099.2213              1112.2990              1163.2413
 Red. masses --      1.7331                 1.5522                 3.8565
 Frc consts  --      1.2338                 1.1315                 3.0746
 IR Inten    --      0.0000                 0.3679                 4.9915

                     22                     23                     24
                      A                      A                      A
 Frequencies --   1200.7831              1280.3610              1418.4126
 Red. masses --      2.0413                 3.2030                 1.4128
 Frc consts  --      1.7341                 3.0937                 1.6747
 IR Inten    --     30.6336                 0.0000                 0.0000

                     25                     26                     27
                      A                      A                      A
 Frequencies --   1422.6469              1429.0627              1447.1207
 Red. masses --      1.2545                 1.2220                 1.2004
 Frc consts  --      1.4959                 1.4704                 1.4811
 IR Inten    --      0.0568                 2.8102                 0.0000

                     28                     29                     30
                      A                      A                      A
 Frequencies --   1484.6975              1489.4940              1492.3974
 Red. masses --      1.0421                 1.0465                 1.0469
 Frc consts  --      1.3534                 1.3679                 1.3738
 IR Inten    --      0.0000                 0.0000                 0.0000

                     31                     32                     33
                      A                      A                      A
 Frequencies --   1506.7375              1508.4409              1512.8295
 Red. masses --      1.0435                 1.0510                 1.0405
 Frc consts  --      1.3958                 1.4090                 1.4030
 IR Inten    --      0.0001                 0.6510                23.0913

                     34                     35                     36
                      A                      A                      A
 Frequencies --   1515.7783              1518.2916              1747.0180
 Red. masses --      1.0564                 1.1100                 6.1118
 Frc consts  --      1.4300                 1.5077                10.9904
 IR Inten    --     11.9972                 0.0002                 0.0000

                     37                     38                     39
                      A                      A                      A
 Frequencies --   3019.5969              3021.7509              3025.0933
 Red. masses --      1.0427                 1.0444                 1.0429
 Frc consts  --      5.6014                 5.6186                 5.6228
 IR Inten    --      0.0863                26.6900               151.6637

                     40                     41                     42
                      A                      A                      A
 Frequencies --   3030.0587              3061.5368              3062.5708
 Red. masses --      1.0448                 1.0997                 1.0996
 Frc consts  --      5.6520                 6.0730                 6.0763
 IR Inten    --      0.0751                 0.0222                 0.0797

                     43                     44                     45
                      A                      A                      A
 Frequencies --   3065.8079              3066.0339              3150.5214
 Red. masses --      1.0991                 1.0991                 1.0959
 Frc consts  --      6.0866                 6.0876                 6.4087
 IR Inten    --     44.8919                71.8587                 0.0035

                     46                     47                     48
                      A                      A                      A
 Frequencies --   3151.6813              3167.7510              3168.0722
 Red. masses --      1.0954                 1.0902                 1.0902
 Frc consts  --      6.4106                 6.4453                 6.4467
 IR Inten    --     30.2070                73.3329                 0.0869

 - Thermochemistry -
 -------------------
 Temperature   298.150 Kelvin.  Pressure   1.00000 Atm.
 Atom     1 has atomic number  6 and mass  12.00000

 Molecular mass:    84.09390 amu.
 Principal axes and moments of inertia in atomic units:
                           1         2         3
     Eigenvalues --   404.31835 612.49318 972.43332
           X            1.00000   0.00000   0.00000
           Y            0.00000   1.00000   0.00000
           Z            0.00000   0.00000   1.00000
 This molecule is an asymmetric top.
 Rotational symmetry number  1.
 Rotational temperatures (Kelvin)      0.21422     0.14141     0.08907
 Rotational constants (GHZ):           4.46366     2.94655     1.85590
 Zero-point vibrational energy     431106.1 (Joules/Mol)
                                  103.03684 (Kcal/Mol)
 Warning -- explicit consideration of  11 degrees of freedom as
           vibrations may cause significant error
 Vibrational temperatures:     99.14   132.16   189.60   224.49   254.93
          (Kelvin)            495.83   496.36   594.08   605.07   711.44
                              748.70   993.88  1299.00  1369.77  1383.57
                             1409.83  1475.32  1524.74  1581.53  1600.35
                             1673.64  1727.66  1842.15  2040.78  2046.87
                             2056.10  2082.08  2136.15  2143.05  2147.22
                             2167.86  2170.31  2176.62  2180.86  2184.48
                             2513.57  4344.52  4347.62  4352.43  4359.57
                             4404.86  4406.35  4411.01  4411.33  4532.89
                             4534.56  4557.68  4558.14

 Zero-point correction=                           0.164200 (Hartree/Particle)
 Thermal correction to Energy=                    0.172766
 Thermal correction to Enthalpy=                  0.173710
 Thermal correction to Gibbs Free Energy=         0.131582
 Sum of electronic and zero-point Energies=           -235.709383
 Sum of electronic and thermal Energies=              -235.700816
 Sum of electronic and thermal Enthalpies=            -235.699872
 Sum of electronic and thermal Free Energies=         -235.742000

                     E (Thermal)             CV                S
                      KCal/Mol        Cal/Mol-Kelvin    Cal/Mol-Kelvin
 Total                  108.412             29.494             88.666
 Electronic               0.000              0.000              0.000
 Translational            0.889              2.981             39.202
 Rotational               0.889              2.981             26.979
 Vibrational            106.635             23.533             22.486
 Vibration     1          0.598              1.969              4.184
 Vibration     2          0.602              1.955              3.620
 Vibration     3          0.612              1.922              2.920
 Vibration     4          0.620              1.896              2.597
 Vibration     5          0.628              1.870              2.358
 Vibration     6          0.723              1.586              1.191
 Vibration     7          0.723              1.585              1.189
 Vibration     8          0.777              1.442              0.916
 Vibration     9          0.783              1.426              0.890
 Vibration    10          0.850              1.262              0.672
 Vibration    11          0.875              1.205              0.609

 Normal termination of Gaussian 09 at Fri Jul 23 06:31:01 2021.
