 Gaussian 09, Revision E.01,
 Gaussian 09:  ES64L-G09RevE.01 30-Nov-2015

 ----------------------------
 #P OPT Freq B3LYP/6-31G(d,p)
 ----------------------------

 ---------
 Frag_1125
 ---------
 Symbolic Z-matrix:
 Charge =  0 Multiplicity = 1

 SCF Done:  E(RB3LYP) =  -231.176343694     A.U. after   13 cycles
 SCF Done:  E(RB3LYP) =  -231.195859090     A.U. after   12 cycles
 SCF Done:  E(RB3LYP) =  -231.195127320     A.U. after   12 cycles
 SCF Done:  E(RB3LYP) =  -231.196187851     A.U. after    9 cycles
 SCF Done:  E(RB3LYP) =  -231.196180161     A.U. after   12 cycles
 SCF Done:  E(RB3LYP) =  -231.196745749     A.U. after    9 cycles
 SCF Done:  E(RB3LYP) =  -231.196074231     A.U. after   12 cycles
 SCF Done:  E(RB3LYP) =  -231.196772933     A.U. after    8 cycles
 SCF Done:  E(RB3LYP) =  -231.196742764     A.U. after   11 cycles
 SCF Done:  E(RB3LYP) =  -231.196839137     A.U. after    7 cycles
 SCF Done:  E(RB3LYP) =  -231.196836859     A.U. after   11 cycles
 SCF Done:  E(RB3LYP) =  -231.196868533     A.U. after   10 cycles
 SCF Done:  E(RB3LYP) =  -231.196888269     A.U. after   11 cycles
 SCF Done:  E(RB3LYP) =  -231.196903088     A.U. after   11 cycles
 SCF Done:  E(RB3LYP) =  -231.196910708     A.U. after   10 cycles
 SCF Done:  E(RB3LYP) =  -231.196912626     A.U. after   10 cycles
 SCF Done:  E(RB3LYP) =  -231.196912686     A.U. after    7 cycles
 Optimization completed.
    -- Stationary point found.
 Normal termination of Gaussian 09 at Thu Sep  8 19:56:38 2022.

 ----------------------------------------------------------------------
 #P Geom=AllCheck Guess=TCheck SCRF=Check GenChk RB3LYP/6-31G(d,p) Freq
 ----------------------------------------------------------------------

 Structure from the checkpoint file:  "B3LYP6-31Gdp.Frag_1125.chk"
 ---------
 Frag_1125
 ---------
 Charge =  0 Multiplicity = 1

                         Standard orientation:
 ---------------------------------------------------------------------
 Center     Atomic      Atomic             Coordinates (Angstroms)
 Number     Number       Type             X           Y           Z
 ---------------------------------------------------------------------
      1          6           0        2.232158    0.073483    0.000275
      2          6           0        0.928655   -0.015435   -0.014799
      3          6           0       -0.384222   -0.068683   -0.005946
      4          6           0       -1.262737    1.154339    0.008231
      5          8           0       -1.031605   -1.292031    0.027254
      6          1           0        2.817776    0.123366   -0.917693
      7          1           0        2.798999    0.095070    0.931238
      8          1           0       -0.665161    2.066767   -0.012570
      9          1           0       -1.890264    1.169047    0.908426
     10          1           0       -1.930391    1.165327   -0.864604
     11          1           0       -1.961245   -1.145553   -0.189397
 ---------------------------------------------------------------------

 SCF Done:  E(RB3LYP) =  -231.196912686     A.U. after    1 cycles

 The electronic state is 1-A.
 Alpha  occ. eigenvalues --  -19.16733 -10.24704 -10.19785 -10.18811 -10.17894
 Alpha  occ. eigenvalues --   -1.04423  -0.78646  -0.73259  -0.66094  -0.53635
 Alpha  occ. eigenvalues --   -0.48403  -0.46016  -0.44242  -0.42154  -0.40706
 Alpha  occ. eigenvalues --   -0.36247  -0.34169  -0.26247  -0.21303
 Alpha virt. eigenvalues --    0.01326   0.04285   0.07517   0.13718   0.14067
 Alpha virt. eigenvalues --    0.15741   0.16948   0.21776   0.22484   0.32251
 Alpha virt. eigenvalues --    0.32360   0.39185   0.50579   0.52533   0.55423

 Mulliken charges:
               1
     1  C   -0.401957
     2  C    0.250997
     3  C    0.125794
     4  C   -0.375500
     5  O   -0.519536
     6  H    0.114869
     7  H    0.116270
     8  H    0.134630
     9  H    0.126001
    10  H    0.114806
    11  H    0.313626
 Sum of Mulliken charges =  -0.00000

 Dipole moment (field-independent basis, Debye):
    X=             -1.5734    Y=              1.3627    Z=             -0.3164  Tot=              2.1054
 Quadrupole moment (field-independent basis, Debye-Ang):
   XX=            -23.1618   YY=            -32.3614   ZZ=            -30.1531
   XY=              0.4890   XZ=              0.7934   YZ=              0.4664

  Exact polarizability:  81.315   1.130  32.542   0.602  -0.076  30.021
 Approx polarizability: 123.050   6.366  43.719   0.773  -0.410  40.444

                      1                      2                      3
                      A                      A                      A
 Frequencies --    113.7121               188.9566               197.0251
 Red. masses --      1.2308                 2.6396                 1.2094
 Frc consts  --      0.0094                 0.0555                 0.0277
 IR Inten    --     85.1381                 1.0486                14.2760

                      4                      5                      6
                      A                      A                      A
 Frequencies --    257.0002               395.7160               473.0753
 Red. masses --      2.1473                 2.8858                 2.5499
 Frc consts  --      0.0836                 0.2662                 0.3362
 IR Inten    --     20.0906                 3.9033                 0.2555

                      7                      8                      9
                      A                      A                      A
 Frequencies --    623.2858               646.6870               770.5941
 Red. masses --      5.5130                 1.1878                 4.7251
 Frc consts  --      1.2619                 0.2927                 1.6531
 IR Inten    --      7.0175                 0.7931                13.2650

                     10                     11                     12
                      A                      A                      A
 Frequencies --    912.2627              1007.9012              1036.3556
 Red. masses --      1.3247                 1.5181                 1.4265
 Frc consts  --      0.6495                 0.9086                 0.9027
 IR Inten    --     35.8197                 9.2230                 1.5909

                     13                     14                     15
                      A                      A                      A
 Frequencies --   1065.4522              1169.7110              1257.4893
 Red. masses --      1.4257                 1.6910                 3.9668
 Frc consts  --      0.9536                 1.3632                 3.6957
 IR Inten    --      0.8703                37.5979               292.1054

                     16                     17                     18
                      A                      A                      A
 Frequencies --   1403.1360              1420.1971              1492.4674
 Red. masses --      1.3309                 1.3161                 1.0449
 Frc consts  --      1.5438                 1.5640                 1.3713
 IR Inten    --     24.6387                12.3796                 7.2893

                     19                     20                     21
                      A                      A                      A
 Frequencies --   1495.2696              1539.4705              2093.9310
 Red. masses --      1.0944                 1.6654                10.1744
 Frc consts  --      1.4416                 2.3255                26.2835
 IR Inten    --      1.8901                22.5364                21.3206

                     22                     23                     24
                      A                      A                      A
 Frequencies --   3018.9009              3073.2160              3106.7391
 Red. masses --      1.0417                 1.0995                 1.0574
 Frc consts  --      5.5934                 6.1185                 6.0129
 IR Inten    --     41.2949                24.6012                26.7930

                     25                     26                     27
                      A                      A                      A
 Frequencies --   3152.7224              3172.9211              3824.0253
 Red. masses --      1.0971                 1.1152                 1.0664
 Frc consts  --      6.4251                 6.6146                 9.1879
 IR Inten    --     10.4175                12.9505                41.0853

 - Thermochemistry -
 -------------------
 Temperature   298.150 Kelvin.  Pressure   1.00000 Atm.
 Atom     1 has atomic number  6 and mass  12.00000

 Molecular mass:    70.04186 amu.
 Principal axes and moments of inertia in atomic units:
                           1         2         3
     Eigenvalues --   193.90066 496.72635 666.64525
           X            0.99938  -0.03523   0.00256
           Y            0.03522   0.99937   0.00428
           Z           -0.00271  -0.00419   0.99999
 This molecule is an asymmetric top.
 Rotational symmetry number  1.
 Rotational temperatures (Kelvin)      0.44669     0.17437     0.12992
 Rotational constants (GHZ):           9.30756     3.63327     2.70720
 Zero-point vibrational energy     232722.8 (Joules/Mol)
                                   55.62209 (Kcal/Mol)
 Warning -- explicit consideration of   6 degrees of freedom as
           vibrations may cause significant error
 Vibrational temperatures:    163.61   271.87   283.47   369.77   569.35
          (Kelvin)            680.65   896.77   930.44  1108.71  1312.54
                             1450.14  1491.08  1532.95  1682.95  1809.24
                             2018.80  2043.34  2147.32  2151.36  2214.95
                             3012.70  4343.52  4421.67  4469.90  4536.06
                             4565.12  5501.91

 Zero-point correction=                           0.088639 (Hartree/Particle)
 Thermal correction to Energy=                    0.094939
 Thermal correction to Enthalpy=                  0.095883
 Thermal correction to Gibbs Free Energy=         0.059365
 Sum of electronic and zero-point Energies=           -231.108273
 Sum of electronic and thermal Energies=              -231.101973
 Sum of electronic and thermal Enthalpies=            -231.101029
 Sum of electronic and thermal Free Energies=         -231.137548

                     E (Thermal)             CV                S
                      KCal/Mol        Cal/Mol-Kelvin    Cal/Mol-Kelvin
 Total                   59.575             21.085             76.860
 Electronic               0.000              0.000              0.000
 Translational            0.889              2.981             38.657
 Rotational               0.889              2.981             25.666
 Vibrational             57.798             15.124             12.538
 Vibration     1          0.607              1.938              3.205
 Vibration     2          0.633              1.855              2.238
 Vibration     3          0.636              1.844              2.161
 Vibration     4          0.667              1.751              1.682
 Vibration     5          0.762              1.479              0.979
 Vibration     6          0.830              1.310              0.729

 Optimization completed.
    -- Stationary point found.
 Normal termination of Gaussian 09 at Thu Sep  8 19:56:46 2022.
