 Gaussian 09, Revision E.01,
 Gaussian 09:  ES64L-G09RevE.01 30-Nov-2015

 ----------------------------
 #P OPT Freq B3LYP/6-31G(d,p)
 ----------------------------

 ---------
 Frag_1070
 ---------
 Symbolic Z-matrix:
 Charge =  0 Multiplicity = 1

 SCF Done:  E(RB3LYP) =  -212.594596623     A.U. after   13 cycles
 SCF Done:  E(RB3LYP) =  -212.594634217     A.U. after    9 cycles
 SCF Done:  E(RB3LYP) =  -212.594636512     A.U. after    7 cycles
 SCF Done:  E(RB3LYP) =  -212.594637662     A.U. after    7 cycles
 SCF Done:  E(RB3LYP) =  -212.594638232     A.U. after    7 cycles
 SCF Done:  E(RB3LYP) =  -212.594638392     A.U. after    7 cycles
 SCF Done:  E(RB3LYP) =  -212.594638455     A.U. after    6 cycles
 Optimization completed.
    -- Stationary point found.
 Normal termination of Gaussian 09 at Thu Sep  8 14:48:19 2022.

 ----------------------------------------------------------------------
 #P Geom=AllCheck Guess=TCheck SCRF=Check GenChk RB3LYP/6-31G(d,p) Freq
 ----------------------------------------------------------------------

 Structure from the checkpoint file:  "B3LYP6-31Gdp.Frag_1070.chk"
 ---------
 Frag_1070
 ---------
 Charge =  0 Multiplicity = 1

                         Standard orientation:
 ---------------------------------------------------------------------
 Center     Atomic      Atomic             Coordinates (Angstroms)
 Number     Number       Type             X           Y           Z
 ---------------------------------------------------------------------
      1          6           0       -2.090544    0.002878    0.003289
      2          6           0       -0.744288   -0.661912   -0.029644
      3          6           0        0.468434   -0.079202   -0.005700
      4          6           0        0.729462    1.404451    0.003876
      5          7           0        1.656665   -0.833741    0.101602
      6          1           0       -2.696726   -0.276577   -0.868925
      7          1           0       -2.665413   -0.299101    0.889461
      8          1           0       -2.026625    1.093768    0.017775
      9          1           0       -0.767615   -1.753027   -0.042914
     10          1           0        1.259112    1.693212    0.918930
     11          1           0       -0.186394    1.990550   -0.066384
     12          1           0        1.371607    1.688836   -0.841060
     13          1           0        2.414547   -0.476629   -0.470404
     14          1           0        1.522474   -1.822129   -0.078620
 ---------------------------------------------------------------------

 SCF Done:  E(RB3LYP) =  -212.594638455     A.U. after    1 cycles

 The electronic state is 1-A.
 Alpha  occ. eigenvalues --  -14.32447 -10.20903 -10.17854 -10.17085 -10.15838
 Alpha  occ. eigenvalues --   -0.89707  -0.76133  -0.71142  -0.64203  -0.53121
 Alpha  occ. eigenvalues --   -0.48706  -0.47168  -0.41645  -0.39156  -0.38971
 Alpha  occ. eigenvalues --   -0.37614  -0.37197  -0.33411  -0.30082  -0.18868
 Alpha virt. eigenvalues --    0.05248   0.08841   0.11640   0.12633   0.14267
 Alpha virt. eigenvalues --    0.16190   0.17550   0.19656   0.20371   0.23211
 Alpha virt. eigenvalues --    0.24494   0.26679   0.35385   0.46651   0.50585

 Mulliken charges:
               1
     1  C   -0.346447
     2  C   -0.131626
     3  C    0.271706
     4  C   -0.368683
     5  N   -0.624194
     6  H    0.105407
     7  H    0.107791
     8  H    0.099391
     9  H    0.052443
    10  H    0.128267
    11  H    0.114355
    12  H    0.103138
    13  H    0.243312
    14  H    0.245141
 Sum of Mulliken charges =  -0.00000

 Dipole moment (field-independent basis, Debye):
    X=              0.6861    Y=             -0.0355    Z=             -1.0551  Tot=              1.2590
 Quadrupole moment (field-independent basis, Debye-Ang):
   XX=            -30.1822   YY=            -29.4072   ZZ=            -34.1700
   XY=             -0.5685   XZ=             -2.7810   YZ=              0.9624

  Exact polarizability:  70.909   4.673  51.244  -0.893   0.016  33.370
 Approx polarizability: 100.625  10.336  69.193   0.028  -0.237  46.811

                      1                      2                      3
                      A                      A                      A
 Frequencies --    122.9662               143.3979               239.7484
 Red. masses --      1.0401                 1.0596                 2.4468
 Frc consts  --      0.0093                 0.0128                 0.0829
 IR Inten    --      0.4578                 1.7079                 4.8482

                      4                      5                      6
                      A                      A                      A
 Frequencies --    296.3641               340.3461               430.3677
 Red. masses --      2.2857                 1.1208                 2.4555
 Frc consts  --      0.1183                 0.0765                 0.2680
 IR Inten    --      7.1144                45.8060                 3.6507

                      7                      8                      9
                      A                      A                      A
 Frequencies --    489.6537               534.1822               708.7210
 Red. masses --      2.2314                 2.9569                 1.3000
 Frc consts  --      0.3152                 0.4971                 0.3847
 IR Inten    --     19.6790                 5.7196               228.3411

                     10                     11                     12
                      A                      A                      A
 Frequencies --    799.4760               835.4928               983.6574
 Red. masses --      2.9146                 1.3445                 1.5563
 Frc consts  --      1.0976                 0.5530                 0.8872
 IR Inten    --      2.1109                65.7739                 8.0862

                     13                     14                     15
                      A                      A                      A
 Frequencies --   1019.5580              1061.7771              1069.3463
 Red. masses --      1.4140                 1.4305                 1.4802
 Frc consts  --      0.8660                 0.9502                 0.9973
 IR Inten    --      2.7467                 0.3963                 3.7727

                     16                     17                     18
                      A                      A                      A
 Frequencies --   1103.2977              1193.4368              1285.0338
 Red. masses --      1.9597                 1.4546                 2.5702
 Frc consts  --      1.4055                 1.2206                 2.5007
 IR Inten    --      2.6504                 1.3139                67.4246

                     19                     20                     21
                      A                      A                      A
 Frequencies --   1391.7514              1437.8207              1443.3955
 Red. masses --      1.2726                 1.2388                 1.6913
 Frc consts  --      1.4523                 1.5090                 2.0761
 IR Inten    --      0.7043                 3.1302                 7.0937

                     22                     23                     24
                      A                      A                      A
 Frequencies --   1492.1200              1497.1368              1503.4474
 Red. masses --      1.0445                 1.0436                 1.0555
 Frc consts  --      1.3701                 1.3782                 1.4056
 IR Inten    --      0.2789                 8.5484                 2.2104

                     25                     26                     27
                      A                      A                      A
 Frequencies --   1516.2442              1659.4229              1758.0710
 Red. masses --      1.0640                 1.1328                 5.8041
 Frc consts  --      1.4413                 1.8379                10.5697
 IR Inten    --      8.0696                43.3717                57.9675

                     28                     29                     30
                      A                      A                      A
 Frequencies --   3016.9858              3028.0228              3055.5490
 Red. masses --      1.0411                 1.0471                 1.1003
 Frc consts  --      5.5834                 5.6565                 6.0524
 IR Inten    --     68.4001                31.6036                36.7742

                     31                     32                     33
                      A                      A                      A
 Frequencies --   3083.2296              3115.1016              3129.6036
 Red. masses --      1.0941                 1.0899                 1.0926
 Frc consts  --      6.1281                 6.2312                 6.3049
 IR Inten    --     22.9908                 5.1780                54.6741

                     34                     35                     36
                      A                      A                      A
 Frequencies --   3164.1458              3522.3521              3626.6708
 Red. masses --      1.0954                 1.0481                 1.0959
 Frc consts  --      6.4613                 7.6618                 8.4929
 IR Inten    --     20.0046                 0.7148                 1.1380

 - Thermochemistry -
 -------------------
 Temperature   298.150 Kelvin.  Pressure   1.00000 Atm.
 Atom     1 has atomic number  6 and mass  12.00000

 Molecular mass:    71.07350 amu.
 Principal axes and moments of inertia in atomic units:
                           1         2         3
     Eigenvalues --   214.20180 503.43357 692.67411
           X            0.99991   0.00971  -0.00927
           Y           -0.00964   0.99992   0.00784
           Z            0.00934  -0.00775   0.99993
 This molecule is an asymmetric top.
 Rotational symmetry number  1.
 Rotational temperatures (Kelvin)      0.40436     0.17205     0.12504
 Rotational constants (GHZ):           8.42543     3.58486     2.60547
 Zero-point vibrational energy     329558.6 (Joules/Mol)
                                   78.76639 (Kcal/Mol)
 Warning -- explicit consideration of   8 degrees of freedom as
           vibrations may cause significant error
 Vibrational temperatures:    176.92   206.32   344.94   426.40   489.68
          (Kelvin)            619.20   704.50   768.57  1019.69  1150.27
                             1202.09  1415.26  1466.91  1527.66  1538.55
                             1587.40  1717.09  1848.87  2002.42  2068.70
                             2076.72  2146.83  2154.04  2163.12  2181.53
                             2387.54  2529.47  4340.76  4356.64  4396.25
                             4436.07  4481.93  4502.80  4552.49  5067.87
                             5217.96

 Zero-point correction=                           0.125522 (Hartree/Particle)
 Thermal correction to Energy=                    0.132197
 Thermal correction to Enthalpy=                  0.133141
 Thermal correction to Gibbs Free Energy=         0.096008
 Sum of electronic and zero-point Energies=           -212.469116
 Sum of electronic and thermal Energies=              -212.462442
 Sum of electronic and thermal Enthalpies=            -212.461498
 Sum of electronic and thermal Free Energies=         -212.498630

                     E (Thermal)             CV                S
                      KCal/Mol        Cal/Mol-Kelvin    Cal/Mol-Kelvin
 Total                   82.955             23.445             78.152
 Electronic               0.000              0.000              0.000
 Translational            0.889              2.981             38.700
 Rotational               0.889              2.981             25.816
 Vibrational             81.177             17.483             13.636
 Vibration     1          0.610              1.930              3.053
 Vibration     2          0.616              1.910              2.758
 Vibration     3          0.657              1.780              1.805
 Vibration     4          0.690              1.681              1.437
 Vibration     5          0.720              1.595              1.211
 Vibration     6          0.792              1.404              0.857
 Vibration     7          0.845              1.273              0.685
 Vibration     8          0.889              1.174              0.578

 Normal termination of Gaussian 09 at Thu Sep  8 14:48:29 2022.
