 Gaussian 09, Revision D.01,
 Gaussian 09:  ES64L-G09RevD.01 24-Apr-2013

 -------------------------
 #P OPT Freq B3LYP/6-31G**
 -------------------------

 -------
 Frag_42
 -------
 Symbolic Z-matrix:
 Charge =  0 Multiplicity = 1

 SCF Done:  E(RB3LYP) =  -378.632168853     A.U. after   13 cycles
 Optimization completed.
    -- Stationary point found.
 Normal termination of Gaussian 09 at Thu Jul 22 22:10:32 2021.

 ----------------------------------------------------------------------
 #P Geom=AllCheck Guess=TCheck SCRF=Check GenChk RB3LYP/6-31G(d,p) Freq
 ----------------------------------------------------------------------

 Structure from the checkpoint file:  "/vol2/users/liuj201281/HOFBenchmark/IsodesmicSplit/Sample60/Ring26/Running/Gau-116455.chk"
 -------
 Frag_42
 -------
 Charge =  0 Multiplicity = 1

                         Standard orientation:
 ---------------------------------------------------------------------
 Center     Atomic      Atomic             Coordinates (Angstroms)
 Number     Number       Type             X           Y           Z
 ---------------------------------------------------------------------
      1          6           0        0.800437    1.452442   -0.318800
      2          7           0       -0.335059    1.383882    0.624300
      3          6           0       -1.594533    0.898416    0.059800
      4          7           0       -1.359368   -0.330672   -0.670800
      5          6           0       -0.960506   -1.512151    0.100500
      6          7           0        0.398293   -1.495379    0.610900
      7          6           0        1.438965   -0.965724   -0.287800
      8          7           0        1.824091    0.436196   -0.135700
      9          1           0        1.293586    2.423168   -0.194400
     10          1           0        0.444741    1.385923   -1.352900
     11          1           0       -0.491306    2.278574    1.077100
     12          1           0       -2.305428    0.788978    0.902700
     13          1           0       -2.050371    1.603592   -0.660900
     14          1           0       -2.145357   -0.541313   -1.276100
     15          1           0       -1.077061   -2.364357   -0.582200
     16          1           0       -1.620596   -1.696786    0.966300
     17          1           0        0.421065   -0.959978    1.472600
     18          1           0        1.116674   -1.130941   -1.320100
     19          1           0        2.356596   -1.545776   -0.132000
     20          1           0        2.255584    0.562819    0.776800
 ---------------------------------------------------------------------

 SCF Done:  E(RB3LYP) =  -378.632168853     A.U. after    1 cycles

 The electronic state is 1-A.
 Alpha  occ. eigenvalues --  -14.31517 -14.31221 -14.30412 -14.29698 -10.23369
 Alpha  occ. eigenvalues --  -10.22493 -10.22241 -10.21423  -0.94159  -0.88930
 Alpha  occ. eigenvalues --   -0.88245  -0.81653  -0.70357  -0.63116  -0.62586
 Alpha  occ. eigenvalues --   -0.57592  -0.52177  -0.47958  -0.47518  -0.47174
 Alpha  occ. eigenvalues --   -0.44666  -0.43292  -0.41465  -0.38520  -0.37761
 Alpha  occ. eigenvalues --   -0.35969  -0.35247  -0.33481  -0.26148  -0.22356
 Alpha  occ. eigenvalues --   -0.21311  -0.19633
 Alpha virt. eigenvalues --    0.07707   0.09782   0.11335   0.12211   0.14835
 Alpha virt. eigenvalues --    0.15323   0.15540   0.16589   0.17176   0.17842
 Alpha virt. eigenvalues --    0.18170   0.18935   0.21506   0.23242   0.26027

 Mulliken charges:
               1
     1  C    0.071951
     2  N   -0.513973
     3  C    0.101855
     4  N   -0.504229
     5  C    0.082679
     6  N   -0.486938
     7  C    0.070854
     8  N   -0.475620
     9  H    0.087094
    10  H    0.111725
    11  H    0.232612
    12  H    0.072523
    13  H    0.073076
    14  H    0.235553
    15  H    0.096404
    16  H    0.077141
    17  H    0.235590
    18  H    0.110238
    19  H    0.097527
    20  H    0.223938
 Sum of Mulliken charges =   0.00000

 Dipole moment (field-independent basis, Debye):
    X=             -1.9128    Y=              1.5711    Z=              0.3878  Tot=              2.5055
 Quadrupole moment (field-independent basis, Debye-Ang):
   XX=            -47.9171   YY=            -48.6517   ZZ=            -49.0982
   XY=              0.6596   XZ=              3.4431   YZ=              3.1785

  Exact polarizability:  75.271  -0.462  71.862   1.551   2.138  60.122
 Approx polarizability:  98.788  -0.510  93.879   3.523   3.593  92.435

                      1                      2                      3
                      A                      A                      A
 Frequencies --    128.7696               189.9176               250.4544
 Red. masses --      2.0486                 3.1156                 3.5014
 Frc consts  --      0.0200                 0.0662                 0.1294
 IR Inten    --      1.3392                 2.8524                 5.7159

                      4                      5                      6
                      A                      A                      A
 Frequencies --    261.0220               337.7314               364.4570
 Red. masses --      2.3520                 2.1022                 2.5950
 Frc consts  --      0.0944                 0.1413                 0.2031
 IR Inten    --      5.1776                 6.9428                18.2959

                      7                      8                      9
                      A                      A                      A
 Frequencies --    390.7807               481.5250               542.2000
 Red. masses --      1.9887                 2.0639                 1.7966
 Frc consts  --      0.1789                 0.2820                 0.3112
 IR Inten    --     13.3899                14.3764                38.8308

                     10                     11                     12
                      A                      A                      A
 Frequencies --    580.5969               671.3224               700.4653
 Red. masses --      1.5619                 1.4284                 2.1978
 Frc consts  --      0.3102                 0.3793                 0.6353
 IR Inten    --     15.9549                39.5427               192.8148

                     13                     14                     15
                      A                      A                      A
 Frequencies --    737.2216               793.3142               875.0614
 Red. masses --      2.1415                 2.0968                 4.0141
 Frc consts  --      0.6857                 0.7775                 1.8110
 IR Inten    --    140.0472                19.1996                10.4247

                     16                     17                     18
                      A                      A                      A
 Frequencies --    900.4993               947.1886               971.6509
 Red. masses --      2.6452                 1.7230                 2.3139
 Frc consts  --      1.2638                 0.9108                 1.2871
 IR Inten    --     18.6178                 2.9728                29.0557

                     19                     20                     21
                      A                      A                      A
 Frequencies --    995.9053              1070.6125              1103.4406
 Red. masses --      2.3988                 2.3046                 1.9837
 Frc consts  --      1.4018                 1.5564                 1.4231
 IR Inten    --     20.1643                22.4056                 3.0628

                     22                     23                     24
                      A                      A                      A
 Frequencies --   1113.5462              1125.2679              1157.5861
 Red. masses --      1.8014                 4.0435                 3.7315
 Frc consts  --      1.3161                 3.0166                 2.9461
 IR Inten    --      7.7487                39.3554               143.8457

                     25                     26                     27
                      A                      A                      A
 Frequencies --   1183.8791              1226.8789              1253.7984
 Red. masses --      3.7223                 1.9601                 1.0540
 Frc consts  --      3.0738                 1.7383                 0.9762
 IR Inten    --    123.3385                 5.1214                 9.8481

                     28                     29                     30
                      A                      A                      A
 Frequencies --   1319.5000              1344.0109              1355.5417
 Red. masses --      1.1948                 1.1846                 1.1822
 Frc consts  --      1.2256                 1.2607                 1.2798
 IR Inten    --      2.0143                 5.8617                36.0373

                     31                     32                     33
                      A                      A                      A
 Frequencies --   1385.6242              1403.3745              1415.7901
 Red. masses --      1.1354                 1.1747                 1.2226
 Frc consts  --      1.2843                 1.3631                 1.4439
 IR Inten    --      6.6984                18.8871                52.8866

                     34                     35                     36
                      A                      A                      A
 Frequencies --   1442.2689              1471.1812              1486.3596
 Red. masses --      1.2787                 1.1337                 1.1458
 Frc consts  --      1.5671                 1.4457                 1.4915
 IR Inten    --     13.9731                 3.9005                 2.2829

                     37                     38                     39
                      A                      A                      A
 Frequencies --   1492.5316              1503.5629              1507.2368
 Red. masses --      1.1716                 1.1921                 1.1864
 Frc consts  --      1.5377                 1.5878                 1.5880
 IR Inten    --      4.1728                 3.4280                14.4590

                     40                     41                     42
                      A                      A                      A
 Frequencies --   1521.5533              1532.7690              1540.1597
 Red. masses --      1.1761                 1.1381                 1.2049
 Frc consts  --      1.6042                 1.5754                 1.6840
 IR Inten    --     18.6741                 9.3192                 5.8364

                     43                     44                     45
                      A                      A                      A
 Frequencies --   2908.9607              2932.5172              2959.7592
 Red. masses --      1.0589                 1.1020                 1.0694
 Frc consts  --      5.2796                 5.5834                 5.5198
 IR Inten    --    139.6473                91.4707               108.6964

                     46                     47                     48
                      A                      A                      A
 Frequencies --   3038.8901              3041.1368              3044.3315
 Red. masses --      1.0852                 1.0668                 1.0672
 Frc consts  --      5.9045                 5.8132                 5.8276
 IR Inten    --     32.1571                91.3736                60.6174

                     49                     50                     51
                      A                      A                      A
 Frequencies --   3092.9586              3105.1277              3512.0011
 Red. masses --      1.1075                 1.0996                 1.0739
 Frc consts  --      6.2423                 6.2468                 7.8039
 IR Inten    --     26.0452                23.1772                 0.4228

                     52                     53                     54
                      A                      A                      A
 Frequencies --   3548.4069              3552.6977              3561.1086
 Red. masses --      1.0755                 1.0740                 1.0752
 Frc consts  --      7.9788                 7.9868                 8.0337
 IR Inten    --      0.2068                 1.5285                 0.4636

 - Thermochemistry -
 -------------------
 Temperature   298.150 Kelvin.  Pressure   1.00000 Atm.
 Atom     1 has atomic number  6 and mass  12.00000

 Molecular mass:   116.10620 amu.
 Principal axes and moments of inertia in atomic units:
                           1         2         3
     Eigenvalues --   705.13027 764.589971245.33226
           X            0.99999  -0.00435   0.00184
           Y            0.00434   0.99997   0.00668
           Z           -0.00187  -0.00667   0.99998
 This molecule is an asymmetric top.
 Rotational symmetry number  1.
 Warning -- assumption of classical behavior for rotation
           may cause significant error
 Rotational temperatures (Kelvin)      0.12283     0.11328     0.06955
 Rotational constants (GHZ):           2.55944     2.36040     1.44920
 Zero-point vibrational energy     480746.0 (Joules/Mol)
                                  114.90105 (Kcal/Mol)
 Warning -- explicit consideration of  10 degrees of freedom as
           vibrations may cause significant error
 Vibrational temperatures:    185.27   273.25   360.35   375.55   485.92
          (Kelvin)            524.37   562.25   692.81   780.10   835.35
                              965.88  1007.81  1060.70  1141.40  1259.02
                             1295.62  1362.79  1397.99  1432.88  1540.37
                             1587.60  1602.14  1619.01  1665.51  1703.34
                             1765.20  1803.93  1898.46  1933.73  1950.32
                             1993.60  2019.14  2037.00  2075.10  2116.70
                             2138.54  2147.42  2163.29  2168.57  2189.17
                             2205.31  2215.94  4185.34  4219.23  4258.43
                             4372.28  4375.51  4380.11  4450.07  4467.58
                             5052.98  5105.36  5111.53  5123.63

 Zero-point correction=                           0.183106 (Hartree/Particle)
 Thermal correction to Energy=                    0.190710
 Thermal correction to Enthalpy=                  0.191654
 Thermal correction to Gibbs Free Energy=         0.151655
 Sum of electronic and zero-point Energies=           -378.449062
 Sum of electronic and thermal Energies=              -378.441459
 Sum of electronic and thermal Enthalpies=            -378.440515
 Sum of electronic and thermal Free Energies=         -378.480514

                     E (Thermal)             CV                S
                      KCal/Mol        Cal/Mol-Kelvin    Cal/Mol-Kelvin
 Total                  119.672             30.108             84.185
 Electronic               0.000              0.000              0.000
 Translational            0.889              2.981             40.163
 Rotational               0.889              2.981             27.998
 Vibrational            117.895             24.146             16.024
 Vibration     1          0.611              1.924              2.964
 Vibration     2          0.633              1.854              2.229
 Vibration     3          0.663              1.762              1.727
 Vibration     4          0.669              1.744              1.655
 Vibration     5          0.718              1.600              1.223
 Vibration     6          0.738              1.545              1.103
 Vibration     7          0.758              1.490              0.997
 Vibration     8          0.838              1.291              0.706
 Vibration     9          0.897              1.157              0.561
 Vibration    10          0.937              1.073              0.484

 Optimization completed.
    -- Stationary point found.
 Normal termination of Gaussian 09 at Thu Jul 22 22:11:21 2021.
