 Gaussian 09, Revision E.01,
 Gaussian 09:  ES64L-G09RevE.01 30-Nov-2015

 ----------------------------
 #P OPT Freq B3LYP/6-31G(d,p)
 ----------------------------

 --------
 Frag_806
 --------
 Symbolic Z-matrix:
 Charge =  0 Multiplicity = 1

 SCF Done:  E(RB3LYP) =  -268.347007741     A.U. after   14 cycles
 SCF Done:  E(RB3LYP) =  -268.347081158     A.U. after    9 cycles
 SCF Done:  E(RB3LYP) =  -268.347087182     A.U. after    8 cycles
 SCF Done:  E(RB3LYP) =  -268.347087626     A.U. after    7 cycles
 Optimization completed.
    -- Stationary point found.
 Normal termination of Gaussian 09 at Thu Sep  8 15:07:31 2022.

 ----------------------------------------------------------------------
 #P Geom=AllCheck Guess=TCheck SCRF=Check GenChk RB3LYP/6-31G(d,p) Freq
 ----------------------------------------------------------------------

 Structure from the checkpoint file:  "B3LYP6-31Gdp.Frag_806.chk"
 --------
 Frag_806
 --------
 Charge =  0 Multiplicity = 1

                         Standard orientation:
 ---------------------------------------------------------------------
 Center     Atomic      Atomic             Coordinates (Angstroms)
 Number     Number       Type             X           Y           Z
 ---------------------------------------------------------------------
      1          6           0       -0.585898    1.377715    0.000000
      2          6           0       -0.502486    0.036845    0.000000
      3          8           0       -1.556692   -0.818307    0.000000
      4          8           0        0.614842   -0.717311   -0.000000
      5          6           0        1.857288   -0.029466    0.000000
      6          1           0       -1.553916    1.863490    0.000000
      7          1           0        0.288966    2.009687   -0.000001
      8          1           0       -2.367098   -0.293180   -0.000001
      9          1           0        1.962547    0.597419   -0.893502
     10          1           0        1.962547    0.597419    0.893502
     11          1           0        2.628333   -0.800446    0.000000
 ---------------------------------------------------------------------

 SCF Done:  E(RB3LYP) =  -268.347087626     A.U. after    1 cycles

 The electronic state is 1-A.
 Alpha  occ. eigenvalues --  -19.18182 -19.17916 -10.29507 -10.24167 -10.15844
 Alpha  occ. eigenvalues --   -1.09960  -1.03448  -0.74579  -0.71360  -0.59841
 Alpha  occ. eigenvalues --   -0.52375  -0.49201  -0.47330  -0.44086  -0.41249
 Alpha  occ. eigenvalues --   -0.39843  -0.37233  -0.34313  -0.30380  -0.21169
 Alpha virt. eigenvalues --    0.06550   0.06837   0.10825   0.13266   0.15013
 Alpha virt. eigenvalues --    0.16130   0.16817   0.18186   0.26916   0.33102
 Alpha virt. eigenvalues --    0.37891   0.49420   0.53095   0.55197   0.57712

 Mulliken charges:
               1
     1  C   -0.373869
     2  C    0.576599
     3  O   -0.515602
     4  O   -0.460844
     5  C   -0.081564
     6  H    0.077078
     7  H    0.093712
     8  H    0.323236
     9  H    0.116997
    10  H    0.116997
    11  H    0.127259
 Sum of Mulliken charges =  -0.00000

 Dipole moment (field-independent basis, Debye):
    X=              0.2681    Y=              1.4367    Z=             -0.0000  Tot=              1.4615
 Quadrupole moment (field-independent basis, Debye-Ang):
   XX=            -20.7915   YY=            -32.9717   ZZ=            -31.5888
   XY=             -0.9433   XZ=              0.0000   YZ=             -0.0000

  Exact polarizability:  46.553  -2.645  44.104   0.000  -0.000  23.253
 Approx polarizability:  56.797  -2.564  72.241  -0.000  -0.000  31.670

                      1                      2                      3
                      A                      A                      A
 Frequencies --    117.9411               236.6338               320.2959
 Red. masses --      3.6703                 1.0550                 2.8900
 Frc consts  --      0.0301                 0.0348                 0.1747
 IR Inten    --      0.9956                 0.5873                 4.0024

                      4                      5                      6
                      A                      A                      A
 Frequencies --    334.1697               489.7547               564.1469
 Red. masses --      1.0486                 2.7436                 3.8420
 Frc consts  --      0.0690                 0.3877                 0.7204
 IR Inten    --    117.7333                20.4937                 4.2963

                      7                      8                      9
                      A                      A                      A
 Frequencies --    669.3672               671.1107               700.6783
 Red. masses --      1.1980                 2.3323                 1.8084
 Frc consts  --      0.3163                 0.6189                 0.5231
 IR Inten    --      3.9567                 0.0651                94.4215

                     10                     11                     12
                      A                      A                      A
 Frequencies --    895.3275               981.8911              1120.3368
 Red. masses --      3.8750                 1.6942                 4.0086
 Frc consts  --      1.8301                 0.9624                 2.9645
 IR Inten    --     25.9766                12.3158                10.8886

                     13                     14                     15
                      A                      A                      A
 Frequencies --   1183.2657              1220.1671              1231.7868
 Red. masses --      1.2731                 1.4599                 1.7158
 Frc consts  --      1.0502                 1.2806                 1.5339
 IR Inten    --      1.1934               153.9083               186.0656

                     16                     17                     18
                      A                      A                      A
 Frequencies --   1415.5051              1450.1516              1499.4736
 Red. masses --      2.4487                 1.1849                 1.0466
 Frc consts  --      2.8907                 1.4681                 1.3865
 IR Inten    --    149.0560                21.7018                 6.5151

                     19                     20                     21
                      A                      A                      A
 Frequencies --   1505.0900              1522.0717              1726.4268
 Red. masses --      1.3293                 1.0490                 5.9754
 Frc consts  --      1.7742                 1.4318                10.4933
 IR Inten    --     19.8663                13.4360               301.8343

                     22                     23                     24
                      A                      A                      A
 Frequencies --   3026.9410              3091.4954              3158.3680
 Red. masses --      1.0338                 1.1064                 1.1013
 Frc consts  --      5.5809                 6.2299                 6.4729
 IR Inten    --     33.7314                38.0015                19.1677

                     25                     26                     27
                      A                      A                      A
 Frequencies --   3198.1903              3293.2244              3843.7804
 Red. masses --      1.0630                 1.1137                 1.0656
 Frc consts  --      6.4063                 7.1161                 9.2759
 IR Inten    --      2.2845                 7.4323                43.1664

 - Thermochemistry -
 -------------------
 Temperature   298.150 Kelvin.  Pressure   1.00000 Atm.
 Atom     1 has atomic number  6 and mass  12.00000

 Molecular mass:    74.03678 amu.
 Principal axes and moments of inertia in atomic units:
                           1         2         3
     Eigenvalues --   186.20988 420.52552 595.24238
           X            0.99983  -0.01846   0.00000
           Y            0.01846   0.99983  -0.00000
           Z           -0.00000   0.00000   1.00000
 This molecule is an asymmetric top.
 Rotational symmetry number  1.
 Rotational temperatures (Kelvin)      0.46514     0.20597     0.14551
 Rotational constants (GHZ):           9.69197     4.29163     3.03194
 Zero-point vibrational energy     236068.6 (Joules/Mol)
                                   56.42175 (Kcal/Mol)
 Warning -- explicit consideration of   6 degrees of freedom as
           vibrations may cause significant error
 Vibrational temperatures:    169.69   340.46   460.83   480.80   704.65
          (Kelvin)            811.68   963.07   965.58  1008.12  1288.17
                             1412.72  1611.91  1702.45  1755.55  1772.26
                             2036.59  2086.44  2157.41  2165.49  2189.92
                             2483.94  4355.09  4447.97  4544.18  4601.48
                             4738.21  5530.34

 Zero-point correction=                           0.089914 (Hartree/Particle)
 Thermal correction to Energy=                    0.095697
 Thermal correction to Enthalpy=                  0.096642
 Thermal correction to Gibbs Free Energy=         0.061311
 Sum of electronic and zero-point Energies=           -268.257174
 Sum of electronic and thermal Energies=              -268.251390
 Sum of electronic and thermal Enthalpies=            -268.250446
 Sum of electronic and thermal Free Energies=         -268.285777

                     E (Thermal)             CV                S
                      KCal/Mol        Cal/Mol-Kelvin    Cal/Mol-Kelvin
 Total                   60.051             20.108             74.360
 Electronic               0.000              0.000              0.000
 Translational            0.889              2.981             38.822
 Rotational               0.889              2.981             25.347
 Vibrational             58.274             14.146             10.191
 Vibration     1          0.608              1.934              3.134
 Vibration     2          0.656              1.785              1.828
 Vibration     3          0.706              1.635              1.309
 Vibration     4          0.716              1.607              1.240
 Vibration     5          0.846              1.273              0.684
 Vibration     6          0.920              1.109              0.516

 Optimization completed.
    -- Stationary point found.
 Normal termination of Gaussian 09 at Thu Sep  8 15:07:39 2022.
