 Gaussian 09, Revision E.01,
 Gaussian 09:  ES64L-G09RevE.01 30-Nov-2015

 ----------------------------
 #P OPT Freq B3LYP/6-31G(d,p)
 ----------------------------

 --------
 Frag_668
 --------
 Symbolic Z-matrix:
 Charge =  0 Multiplicity = 1

 SCF Done:  E(RB3LYP) =  -249.703299431     A.U. after   12 cycles
 SCF Done:  E(RB3LYP) =  -249.703331716     A.U. after    8 cycles
 SCF Done:  E(RB3LYP) =  -249.703334349     A.U. after    8 cycles
 SCF Done:  E(RB3LYP) =  -249.703334799     A.U. after    7 cycles
 Optimization completed.
    -- Stationary point found.
 Normal termination of Gaussian 09 at Thu Sep  8 15:06:42 2022.

 ----------------------------------------------------------------------
 #P Geom=AllCheck Guess=TCheck SCRF=Check GenChk RB3LYP/6-31G(d,p) Freq
 ----------------------------------------------------------------------

 Structure from the checkpoint file:  "B3LYP6-31Gdp.Frag_668.chk"
 --------
 Frag_668
 --------
 Charge =  0 Multiplicity = 1

                         Standard orientation:
 ---------------------------------------------------------------------
 Center     Atomic      Atomic             Coordinates (Angstroms)
 Number     Number       Type             X           Y           Z
 ---------------------------------------------------------------------
      1          6           0        1.610209   -0.789937   -0.085488
      2          7           0        0.400571   -0.004009   -0.283708
      3          6           0        0.584783    1.394114    0.093769
      4          6           0       -0.765608   -0.593880    0.350080
      5          8           0       -1.958210   -0.017362   -0.136256
      6          1           0        1.947650   -0.824938    0.967726
      7          1           0        2.424464   -0.362806   -0.679348
      8          1           0        1.448106   -1.818268   -0.424383
      9          1           0        1.345560    1.853944   -0.544811
     10          1           0       -0.357574    1.927061   -0.045662
     11          1           0        0.899574    1.515930    1.147436
     12          1           0       -0.728047   -1.678637    0.163553
     13          1           0       -0.794577   -0.437882    1.443081
     14          1           0       -1.899781   -0.069227   -1.101756
 ---------------------------------------------------------------------

 SCF Done:  E(RB3LYP) =  -249.703334799     A.U. after    1 cycles

 The electronic state is 1-A.
 Alpha  occ. eigenvalues --  -19.14201 -14.32781 -10.25139 -10.20643 -10.19884
 Alpha  occ. eigenvalues --   -1.02364  -0.91033  -0.70549  -0.68942  -0.59743
 Alpha  occ. eigenvalues --   -0.50936  -0.47914  -0.46506  -0.42727  -0.41261
 Alpha  occ. eigenvalues --   -0.39068  -0.37668  -0.36534  -0.33312  -0.27437
 Alpha  occ. eigenvalues --   -0.21979
 Alpha virt. eigenvalues --    0.08581   0.09613   0.14029   0.15207   0.15313
 Alpha virt. eigenvalues --    0.15897   0.17293   0.17775   0.18281   0.21346
 Alpha virt. eigenvalues --    0.23708   0.25778   0.27362   0.50857   0.51973

 Mulliken charges:
               1
     1  C   -0.163515
     2  N   -0.422288
     3  C   -0.168315
     4  C    0.213297
     5  O   -0.536461
     6  H    0.084473
     7  H    0.110142
     8  H    0.107297
     9  H    0.105478
    10  H    0.125074
    11  H    0.081081
    12  H    0.077893
    13  H    0.084183
    14  H    0.301661
 Sum of Mulliken charges =  -0.00000

 Dipole moment (field-independent basis, Debye):
    X=              1.4109    Y=             -0.4667    Z=             -0.4295  Tot=              1.5469
 Quadrupole moment (field-independent basis, Debye-Ang):
   XX=            -34.8980   YY=            -30.8317   ZZ=            -31.3158
   XY=              0.5296   XZ=              2.1254   YZ=             -0.0942

  Exact polarizability:  48.555  -0.317  45.352   0.661  -0.272  41.099
 Approx polarizability:  62.272  -0.829  58.346   0.868  -0.287  58.531

                      1                      2                      3
                      A                      A                      A
 Frequencies --    138.9414               235.8654               247.9483
 Red. masses --      2.5045                 1.2879                 1.0366
 Frc consts  --      0.0285                 0.0422                 0.0375
 IR Inten    --      5.6452                 0.0320                 0.6121

                      4                      5                      6
                      A                      A                      A
 Frequencies --    294.4145               361.4529               404.6162
 Red. masses --      1.9717                 2.0560                 2.1444
 Frc consts  --      0.1007                 0.1583                 0.2068
 IR Inten    --      2.5995                15.4787                 5.5490

                      7                      8                      9
                      A                      A                      A
 Frequencies --    420.3146               552.0115               848.6532
 Red. masses --      1.3049                 2.9601                 3.8380
 Frc consts  --      0.1358                 0.5314                 1.6286
 IR Inten    --    114.0890                26.9491                29.6658

                     10                     11                     12
                      A                      A                      A
 Frequencies --   1019.4725              1061.3106              1071.1251
 Red. masses --      1.7024                 1.8017                 1.4486
 Frc consts  --      1.0425                 1.1957                 0.9792
 IR Inten    --     30.9761                63.6826                13.8334

                     13                     14                     15
                      A                      A                      A
 Frequencies --   1092.8326              1129.5914              1172.7230
 Red. masses --      4.3176                 1.3475                 1.2917
 Frc consts  --      3.0381                 1.0130                 1.0466
 IR Inten    --    107.5516                 4.3210                 7.4631

                     16                     17                     18
                      A                      A                      A
 Frequencies --   1228.2213              1295.3553              1321.4064
 Red. masses --      1.7589                 2.0044                 2.2708
 Frc consts  --      1.5633                 1.9816                 2.3361
 IR Inten    --     11.8266                29.3383                23.5779

                     19                     20                     21
                      A                      A                      A
 Frequencies --   1394.4416              1437.7354              1450.0215
 Red. masses --      1.2513                 1.2034                 1.1729
 Frc consts  --      1.4335                 1.4656                 1.4529
 IR Inten    --     20.5034                47.8794                15.3716

                     22                     23                     24
                      A                      A                      A
 Frequencies --   1486.7041              1497.6314              1508.5202
 Red. masses --      1.1735                 1.0553                 1.0626
 Frc consts  --      1.5282                 1.3946                 1.4247
 IR Inten    --     16.8889                 9.5156                12.3106

                     25                     26                     27
                      A                      A                      A
 Frequencies --   1518.6196              1529.8407              1538.7558
 Red. masses --      1.0536                 1.0558                 1.0985
 Frc consts  --      1.4316                 1.4558                 1.5324
 IR Inten    --      9.7374                 8.5471                 1.2022

                     28                     29                     30
                      A                      A                      A
 Frequencies --   2937.2907              2944.1420              2963.9384
 Red. masses --      1.0597                 1.0602                 1.0605
 Frc consts  --      5.3868                 5.4145                 5.4892
 IR Inten    --     38.7898                85.3639               129.5465

                     31                     32                     33
                      A                      A                      A
 Frequencies --   3006.1406              3070.5981              3083.7594
 Red. masses --      1.1031                 1.0719                 1.0755
 Frc consts  --      5.8732                 5.9544                 6.0258
 IR Inten    --     68.5409                35.1066                36.0238

                     34                     35                     36
                      A                      A                      A
 Frequencies --   3115.9001              3145.5591              3783.2657
 Red. masses --      1.1037                 1.1004                 1.0651
 Frc consts  --      6.3135                 6.4149                 8.9821
 IR Inten    --     31.6278                13.6482                13.0847

 - Thermochemistry -
 -------------------
 Temperature   298.150 Kelvin.  Pressure   1.00000 Atm.
 Atom     1 has atomic number  6 and mass  12.00000

 Molecular mass:    75.06841 amu.
 Principal axes and moments of inertia in atomic units:
                           1         2         3
     Eigenvalues --   219.25203 480.93200 631.34347
           X            0.99997  -0.00329   0.00705
           Y            0.00329   0.99999   0.00072
           Z           -0.00705  -0.00070   0.99997
 This molecule is an asymmetric top.
 Rotational symmetry number  1.
 Rotational temperatures (Kelvin)      0.39504     0.18010     0.13719
 Rotational constants (GHZ):           8.23135     3.75259     2.85857
 Zero-point vibrational energy     330822.0 (Joules/Mol)
                                   79.06836 (Kcal/Mol)
 Warning -- explicit consideration of   8 degrees of freedom as
           vibrations may cause significant error
 Vibrational temperatures:    199.91   339.36   356.74   423.60   520.05
          (Kelvin)            582.15   604.74   794.22  1221.02  1466.79
                             1526.99  1541.11  1572.34  1625.23  1687.28
                             1767.13  1863.72  1901.21  2006.29  2068.58
                             2086.25  2139.03  2154.75  2170.42  2184.95
                             2201.10  2213.92  4226.10  4235.96  4264.44
                             4325.16  4417.90  4436.84  4483.08  4525.75
                             5443.27

 Zero-point correction=                           0.126003 (Hartree/Particle)
 Thermal correction to Energy=                    0.132362
 Thermal correction to Enthalpy=                  0.133306
 Thermal correction to Gibbs Free Energy=         0.096876
 Sum of electronic and zero-point Energies=           -249.577331
 Sum of electronic and thermal Energies=              -249.570973
 Sum of electronic and thermal Enthalpies=            -249.570029
 Sum of electronic and thermal Free Energies=         -249.606459

                     E (Thermal)             CV                S
                      KCal/Mol        Cal/Mol-Kelvin    Cal/Mol-Kelvin
 Total                   83.058             22.198             76.675
 Electronic               0.000              0.000              0.000
 Translational            0.889              2.981             38.863
 Rotational               0.889              2.981             25.701
 Vibrational             81.281             16.236             12.110
 Vibration     1          0.615              1.914              2.818
 Vibration     2          0.655              1.786              1.834
 Vibration     3          0.662              1.766              1.745
 Vibration     4          0.689              1.684              1.448
 Vibration     5          0.736              1.552              1.116
 Vibration     6          0.770              1.460              0.946
 Vibration     7          0.783              1.426              0.891
 Vibration     8          0.907              1.135              0.540

 Optimization completed.
    -- Stationary point found.
 Normal termination of Gaussian 09 at Thu Sep  8 15:06:52 2022.
