 Gaussian 09, Revision E.01,
 Gaussian 09:  ES64L-G09RevE.01 30-Nov-2015

 ----------------------------
 #P OPT Freq B3LYP/6-31G(d,p)
 ----------------------------

 --------
 Frag_789
 --------
 Symbolic Z-matrix:
 Charge =  0 Multiplicity = 1

 SCF Done:  E(RB3LYP) =  -287.815900926     A.U. after   14 cycles
 SCF Done:  E(RB3LYP) =  -287.815957121     A.U. after    9 cycles
 SCF Done:  E(RB3LYP) =  -287.815960428     A.U. after    8 cycles
 Optimization completed.
    -- Stationary point found.
 Normal termination of Gaussian 09 at Thu Sep  8 15:19:56 2022.

 ----------------------------------------------------------------------
 #P Geom=AllCheck Guess=TCheck SCRF=Check GenChk RB3LYP/6-31G(d,p) Freq
 ----------------------------------------------------------------------

 Structure from the checkpoint file:  "B3LYP6-31Gdp.Frag_789.chk"
 --------
 Frag_789
 --------
 Charge =  0 Multiplicity = 1

                         Standard orientation:
 ---------------------------------------------------------------------
 Center     Atomic      Atomic             Coordinates (Angstroms)
 Number     Number       Type             X           Y           Z
 ---------------------------------------------------------------------
      1          6           0       -1.138003   -1.268579   -0.348789
      2          6           0       -0.354692   -0.000022    0.039370
      3          6           0       -1.137385    1.269044   -0.348487
      4          8           0       -0.140129   -0.000313    1.437828
      5          6           0        0.980871   -0.000148   -0.684868
      6          7           0        2.054038   -0.000107   -0.003704
      7          1           0       -1.338171   -1.312674   -1.425037
      8          1           0       -2.094424   -1.275282    0.181541
      9          1           0       -0.578479   -2.161309   -0.055708
     10          1           0       -0.577458    2.161412   -0.055068
     11          1           0       -1.337410    1.313580   -1.424744
     12          1           0       -2.093862    1.276030    0.181739
     13          1           0        0.829104    0.000156    1.551053
     14          1           0        0.938743   -0.000261   -1.782674
     15          1           0        2.889974   -0.000168   -0.591150
 ---------------------------------------------------------------------

 SCF Done:  E(RB3LYP) =  -287.815960428     A.U. after    1 cycles

 The electronic state is 1-A.
 Alpha  occ. eigenvalues --  -19.12258 -14.33904 -10.24434 -10.24366 -10.17725
 Alpha  occ. eigenvalues --  -10.17724  -1.01027  -0.91082  -0.77779  -0.68997
 Alpha  occ. eigenvalues --   -0.64087  -0.55432  -0.52165  -0.48739  -0.43755
 Alpha  occ. eigenvalues --   -0.43543  -0.39174  -0.39085  -0.36434  -0.35791
 Alpha  occ. eigenvalues --   -0.32363  -0.32240  -0.28329  -0.25466
 Alpha virt. eigenvalues --   -0.01304   0.07669   0.10782   0.13175   0.14421
 Alpha virt. eigenvalues --    0.15610   0.16515   0.19177   0.19677   0.20506
 Alpha virt. eigenvalues --    0.20704   0.24689   0.24801   0.27664   0.39816

 Mulliken charges:
               1
     1  C   -0.305608
     2  C    0.256614
     3  C   -0.305602
     4  O   -0.574167
     5  C    0.144152
     6  N   -0.519123
     7  H    0.090282
     8  H    0.120378
     9  H    0.113647
    10  H    0.113633
    11  H    0.090279
    12  H    0.120372
    13  H    0.322740
    14  H    0.089567
    15  H    0.242840
 Sum of Mulliken charges =  -0.00000

 Dipole moment (field-independent basis, Debye):
    X=              0.6974    Y=              0.0007    Z=             -2.8653  Tot=              2.9490
 Quadrupole moment (field-independent basis, Debye-Ang):
   XX=            -34.3391   YY=            -37.6629   ZZ=            -38.4473
   XY=              0.0001   XZ=             -1.5167   YZ=              0.0022

  Exact polarizability:  64.101  -0.000  43.740   2.128   0.001  50.619
 Approx polarizability:  89.366  -0.000  56.634   7.213  -0.000  76.582

                      1                      2                      3
                      A                      A                      A
 Frequencies --    107.2114               228.5016               262.0067
 Red. masses --      3.5273                 1.0208                 1.1059
 Frc consts  --      0.0239                 0.0314                 0.0447
 IR Inten    --      0.0663                 0.0002                 0.5022

                      4                      5                      6
                      A                      A                      A
 Frequencies --    317.7827               320.0706               350.9741
 Red. masses --      2.5555                 2.0069                 2.7142
 Frc consts  --      0.1521                 0.1211                 0.1970
 IR Inten    --      4.6360                11.6062                 6.5281

                      7                      8                      9
                      A                      A                      A
 Frequencies --    401.3924               409.3996               484.1063
 Red. masses --      1.7582                 2.9467                 1.4291
 Frc consts  --      0.1669                 0.2910                 0.1973
 IR Inten    --     47.9288                 5.6975                39.6455

                     10                     11                     12
                      A                      A                      A
 Frequencies --    627.0542               790.2020               795.8538
 Red. masses --      3.9476                 3.4322                 1.5177
 Frc consts  --      0.9145                 1.2627                 0.5664
 IR Inten    --      9.8821                28.4430                35.1433

                     13                     14                     15
                      A                      A                      A
 Frequencies --    898.5488               930.8418               994.9642
 Red. masses --      2.0148                 1.4938                 2.1169
 Frc consts  --      0.9585                 0.7626                 1.2347
 IR Inten    --     10.3543                 1.3102                40.0584

                     16                     17                     18
                      A                      A                      A
 Frequencies --   1020.8472              1105.2651              1148.5335
 Red. masses --      1.3016                 1.2641                 1.2521
 Frc consts  --      0.7992                 0.9099                 0.9731
 IR Inten    --      4.5530                 8.8598                37.5024

                     19                     20                     21
                      A                      A                      A
 Frequencies --   1191.6768              1195.7242              1293.9269
 Red. masses --      1.7586                 3.3838                 2.1853
 Frc consts  --      1.4714                 2.8504                 2.1557
 IR Inten    --     62.7608                30.0611                10.7264

                     22                     23                     24
                      A                      A                      A
 Frequencies --   1402.4229              1408.3126              1426.9398
 Red. masses --      1.2497                 1.3279                 1.3861
 Frc consts  --      1.4482                 1.5517                 1.6629
 IR Inten    --      5.5766                50.2594                17.9476

                     25                     26                     27
                      A                      A                      A
 Frequencies --   1438.6508              1490.1060              1498.6579
 Red. masses --      1.3048                 1.0484                 1.0461
 Frc consts  --      1.5911                 1.3716                 1.3843
 IR Inten    --     93.7533                 0.2804                 1.2910

                     28                     29                     30
                      A                      A                      A
 Frequencies --   1513.7939              1521.5713              1732.0820
 Red. masses --      1.0906                 1.0671                 7.1360
 Frc consts  --      1.4725                 1.4556                12.6137
 IR Inten    --      8.0013                 1.4943                60.9308

                     31                     32                     33
                      A                      A                      A
 Frequencies --   3043.4302              3044.9109              3053.1269
 Red. masses --      1.0353                 1.0579                 1.0655
 Frc consts  --      5.6502                 5.7787                 5.8521
 IR Inten    --     17.9041                 7.5872                47.7794

                     34                     35                     36
                      A                      A                      A
 Frequencies --   3119.2057              3124.4455              3134.1988
 Red. masses --      1.1012                 1.1017                 1.1040
 Frc consts  --      6.3124                 6.3368                 6.3898
 IR Inten    --      4.4435                44.4109                14.1846

                     37                     38                     39
                      A                      A                      A
 Frequencies --   3136.4676              3482.9688              3642.4977
 Red. masses --      1.1032                 1.0770                 1.0653
 Frc consts  --      6.3941                 7.6980                 8.3275
 IR Inten    --     25.5200                 0.1772               101.1090

 - Thermochemistry -
 -------------------
 Temperature   298.150 Kelvin.  Pressure   1.00000 Atm.
 Atom     1 has atomic number  6 and mass  12.00000

 Molecular mass:    87.06841 amu.
 Principal axes and moments of inertia in atomic units:
                           1         2         3
     Eigenvalues --   380.09007 636.17801 647.54028
           X            0.99988  -0.00000   0.01523
           Y           -0.00001   1.00000   0.00050
           Z           -0.01523  -0.00050   0.99988
 This molecule is an asymmetric top.
 Rotational symmetry number  1.
 Rotational temperatures (Kelvin)      0.22788     0.13615     0.13376
 Rotational constants (GHZ):           4.74819     2.83685     2.78707
 Zero-point vibrational energy     341466.1 (Joules/Mol)
                                   81.61235 (Kcal/Mol)
 Warning -- explicit consideration of   9 degrees of freedom as
           vibrations may cause significant error
 Vibrational temperatures:    154.25   328.76   376.97   457.22   460.51
          (Kelvin)            504.97   577.51   589.03   696.52   902.19
                             1136.92  1145.05  1292.81  1339.27  1431.53
                             1468.77  1590.23  1652.48  1714.56  1720.38
                             1861.67  2017.77  2026.25  2053.05  2069.90
                             2143.93  2156.23  2178.01  2189.20  2492.08
                             4378.81  4380.94  4392.76  4487.84  4495.37
                             4509.41  4512.67  5011.21  5240.74

 Zero-point correction=                           0.130058 (Hartree/Particle)
 Thermal correction to Energy=                    0.137217
 Thermal correction to Enthalpy=                  0.138161
 Thermal correction to Gibbs Free Energy=         0.099812
 Sum of electronic and zero-point Energies=           -287.685903
 Sum of electronic and thermal Energies=              -287.678744
 Sum of electronic and thermal Enthalpies=            -287.677799
 Sum of electronic and thermal Free Energies=         -287.716148

                     E (Thermal)             CV                S
                      KCal/Mol        Cal/Mol-Kelvin    Cal/Mol-Kelvin
 Total                   86.105             26.304             80.712
 Electronic               0.000              0.000              0.000
 Translational            0.889              2.981             39.305
 Rotational               0.889              2.981             26.551
 Vibrational             84.327             20.342             14.855
 Vibration     1          0.606              1.943              3.319
 Vibration     2          0.651              1.798              1.891
 Vibration     3          0.669              1.742              1.648
 Vibration     4          0.704              1.640              1.321
 Vibration     5          0.706              1.635              1.310
 Vibration     6          0.728              1.573              1.162
 Vibration     7          0.767              1.467              0.958
 Vibration     8          0.774              1.450              0.929
 Vibration     9          0.840              1.285              0.699

 Optimization completed.
    -- Stationary point found.
 Normal termination of Gaussian 09 at Thu Sep  8 15:20:09 2022.
