 Gaussian 09, Revision E.01,
 Gaussian 09:  ES64L-G09RevE.01 30-Nov-2015

 ----------------------------
 #P OPT Freq B3LYP/6-31G(d,p)
 ----------------------------

 --------
 Frag_594
 --------
 Symbolic Z-matrix:
 Charge =  0 Multiplicity = 1

 SCF Done:  E(RB3LYP) =  -328.356362915     A.U. after   13 cycles
 SCF Done:  E(RB3LYP) =  -328.356400667     A.U. after   10 cycles
 SCF Done:  E(RB3LYP) =  -328.356341876     A.U. after   10 cycles
 SCF Done:  E(RB3LYP) =  -328.356409136     A.U. after    9 cycles
 SCF Done:  E(RB3LYP) =  -328.356409375     A.U. after    7 cycles
 Optimization completed.
    -- Stationary point found.
 Normal termination of Gaussian 09 at Thu Sep  8 15:06:35 2022.

 ----------------------------------------------------------------------
 #P Geom=AllCheck Guess=TCheck SCRF=Check GenChk RB3LYP/6-31G(d,p) Freq
 ----------------------------------------------------------------------

 Structure from the checkpoint file:  "B3LYP6-31Gdp.Frag_594.chk"
 --------
 Frag_594
 --------
 Charge =  0 Multiplicity = 1

                         Standard orientation:
 ---------------------------------------------------------------------
 Center     Atomic      Atomic             Coordinates (Angstroms)
 Number     Number       Type             X           Y           Z
 ---------------------------------------------------------------------
      1          6           0        1.670664    1.160821   -0.088871
      2          6           0        0.818804   -0.037000   -0.514610
      3          7           0        1.428944   -1.260458    0.048258
      4          6           0       -0.644227    0.031249    0.032535
      5          6           0       -1.483791   -1.126473   -0.543668
      6          6           0       -1.324389    1.364566   -0.285870
      7          8           0       -0.591306   -0.080905    1.453160
      8          1           0        2.714755    1.017326   -0.390448
      9          1           0        1.633794    1.281272    0.997339
     10          1           0        1.322558    2.085958   -0.553040
     11          1           0        0.771521   -0.063547   -1.616116
     12          1           0        2.442078   -1.208338   -0.005275
     13          1           0        1.150857   -2.082049   -0.480509
     14          1           0       -1.557224   -1.072628   -1.636258
     15          1           0       -1.062198   -2.099669   -0.272292
     16          1           0       -2.494305   -1.085038   -0.127911
     17          1           0       -2.362298    1.340352    0.058663
     18          1           0       -0.824608    2.190791    0.223892
     19          1           0       -1.327016    1.561532   -1.363517
     20          1           0        0.097566   -0.754500    1.605273
 ---------------------------------------------------------------------

 SCF Done:  E(RB3LYP) =  -328.356409375     A.U. after    1 cycles

 The electronic state is 1-A.
 Alpha  occ. eigenvalues --  -19.11539 -14.32518 -10.22915 -10.21449 -10.17461
 Alpha  occ. eigenvalues --  -10.16720 -10.16546  -0.99773  -0.88771  -0.76921
 Alpha  occ. eigenvalues --   -0.72442  -0.67913  -0.62066  -0.54396  -0.49915
 Alpha  occ. eigenvalues --   -0.47969  -0.46174  -0.44606  -0.41254  -0.39754
 Alpha  occ. eigenvalues --   -0.37562  -0.37471  -0.36915  -0.36236  -0.34660
 Alpha  occ. eigenvalues --   -0.33107  -0.29953  -0.25792  -0.24114
 Alpha virt. eigenvalues --    0.06614   0.11172   0.11776   0.13076   0.14461
 Alpha virt. eigenvalues --    0.14762   0.16035   0.16665   0.17746   0.19787
 Alpha virt. eigenvalues --    0.20089   0.20795   0.21442   0.22933   0.23859

 Mulliken charges:
               1
     1  C   -0.322588
     2  C    0.048719
     3  N   -0.627242
     4  C    0.295426
     5  C   -0.316606
     6  C   -0.309804
     7  O   -0.569405
     8  H    0.087645
     9  H    0.127407
    10  H    0.111154
    11  H    0.070473
    12  H    0.243277
    13  H    0.246488
    14  H    0.088291
    15  H    0.089919
    16  H    0.112359
    17  H    0.108365
    18  H    0.112219
    19  H    0.090391
    20  H    0.313513
 Sum of Mulliken charges =  -0.00000

 Dipole moment (field-independent basis, Debye):
    X=              1.6577    Y=             -0.8356    Z=             -2.2020  Tot=              2.8800
 Quadrupole moment (field-independent basis, Debye-Ang):
   XX=            -42.7370   YY=            -43.0929   ZZ=            -48.1082
   XY=             -1.5067   XZ=              0.8386   YZ=              0.4010

  Exact polarizability:  70.287  -0.712  65.754   1.264  -0.079  58.220
 Approx polarizability:  90.110  -2.591  87.481   0.740  -0.640  88.089

                      1                      2                      3
                      A                      A                      A
 Frequencies --    106.2343               208.5810               227.6411
 Red. masses --      2.9116                 1.0883                 1.4194
 Frc consts  --      0.0194                 0.0279                 0.0433
 IR Inten    --      2.5132                 0.5946                 1.3153

                      4                      5                      6
                      A                      A                      A
 Frequencies --    243.7828               284.2594               295.7226
 Red. masses --      1.2029                 1.2085                 1.5552
 Frc consts  --      0.0421                 0.0575                 0.0801
 IR Inten    --      2.5430                12.3177                 1.8604

                      7                      8                      9
                      A                      A                      A
 Frequencies --    307.1863               366.8995               384.2679
 Red. masses --      2.4015                 2.8280                 2.3772
 Frc consts  --      0.1335                 0.2243                 0.2068
 IR Inten    --      2.3841                 8.6270                 2.2267

                     10                     11                     12
                      A                      A                      A
 Frequencies --    386.4307               456.8640               504.2374
 Red. masses --      2.1424                 2.1935                 3.1422
 Frc consts  --      0.1885                 0.2698                 0.4707
 IR Inten    --      2.5171                 0.5413                 4.0657

                     13                     14                     15
                      A                      A                      A
 Frequencies --    595.5214               634.8745               729.0899
 Red. masses --      2.4168                 1.2126                 2.5035
 Frc consts  --      0.5050                 0.2880                 0.7841
 IR Inten    --     24.5208               117.7242                 7.6726

                     16                     17                     18
                      A                      A                      A
 Frequencies --    861.5525               877.3018               930.5956
 Red. masses --      2.1608                 1.6413                 1.5290
 Frc consts  --      0.9450                 0.7443                 0.7802
 IR Inten    --     23.5922                74.1756                 1.7627

                     19                     20                     21
                      A                      A                      A
 Frequencies --    948.4738               974.0203              1009.3466
 Red. masses --      1.6370                 2.0917                 1.5104
 Frc consts  --      0.8676                 1.1692                 0.9066
 IR Inten    --     11.3789                35.7076                 0.2874

                     22                     23                     24
                      A                      A                      A
 Frequencies --   1016.7175              1054.9938              1111.3953
 Red. masses --      1.3264                 1.4586                 2.2150
 Frc consts  --      0.8078                 0.9565                 1.6120
 IR Inten    --      1.5094                 4.6815                25.9533

                     25                     26                     27
                      A                      A                      A
 Frequencies --   1181.0383              1213.4248              1229.2423
 Red. masses --      1.7423                 2.4279                 2.1374
 Frc consts  --      1.4319                 2.1062                 1.9029
 IR Inten    --     41.3558                32.7734                 5.1586

                     28                     29                     30
                      A                      A                      A
 Frequencies --   1278.6943              1356.8016              1383.3300
 Red. masses --      1.6322                 1.3844                 1.3489
 Frc consts  --      1.5724                 1.5016                 1.5208
 IR Inten    --     14.1851                40.7240                12.5895

                     31                     32                     33
                      A                      A                      A
 Frequencies --   1405.7827              1418.5596              1424.4987
 Red. masses --      1.2963                 1.3091                 1.3417
 Frc consts  --      1.5093                 1.5521                 1.6041
 IR Inten    --      9.1025                27.0340                 7.5257

                     34                     35                     36
                      A                      A                      A
 Frequencies --   1438.8924              1490.5661              1504.0569
 Red. masses --      1.4534                 1.0526                 1.0487
 Frc consts  --      1.7730                 1.3779                 1.3977
 IR Inten    --     47.6834                 1.2764                 0.2279

                     37                     38                     39
                      A                      A                      A
 Frequencies --   1510.7964              1514.8102              1520.4142
 Red. masses --      1.0710                 1.0541                 1.0680
 Frc consts  --      1.4403                 1.4252                 1.4545
 IR Inten    --      1.1048                 4.0687                14.7807

                     40                     41                     42
                      A                      A                      A
 Frequencies --   1533.4452              1665.5588              2972.7715
 Red. masses --      1.0541                 1.0909                 1.0837
 Frc consts  --      1.4604                 1.7831                 5.6427
 IR Inten    --      1.0126                41.7474                53.2119

                     43                     44                     45
                      A                      A                      A
 Frequencies --   3038.2258              3047.1127              3052.4797
 Red. masses --      1.0370                 1.0409                 1.0379
 Frc consts  --      5.6401                 5.6942                 5.6981
 IR Inten    --     23.7377                29.3553                15.2664

                     46                     47                     48
                      A                      A                      A
 Frequencies --   3108.8364              3117.5566              3119.4552
 Red. masses --      1.1013                 1.0961                 1.1019
 Frc consts  --      6.2712                 6.2767                 6.3173
 IR Inten    --     30.4166                19.8396                10.6846

                     49                     50                     51
                      A                      A                      A
 Frequencies --   3127.3857              3142.7885              3150.3645
 Red. masses --      1.1008                 1.1018                 1.1014
 Frc consts  --      6.3433                 6.4117                 6.4406
 IR Inten    --     45.4603                27.7110                15.3344

                     52                     53                     54
                      A                      A                      A
 Frequencies --   3512.4571              3595.3960              3660.7909
 Red. masses --      1.0498                 1.0933                 1.0645
 Frc consts  --      7.6311                 8.3266                 8.4054
 IR Inten    --      0.2822                 0.4289                74.7234

 - Thermochemistry -
 -------------------
 Temperature   298.150 Kelvin.  Pressure   1.00000 Atm.
 Atom     1 has atomic number  6 and mass  12.00000

 Molecular mass:   103.09971 amu.
 Principal axes and moments of inertia in atomic units:
                           1         2         3
     Eigenvalues --   566.13703 782.51611 969.61454
           X            0.99931   0.02767   0.02478
           Y           -0.02792   0.99956   0.01012
           Z           -0.02449  -0.01080   0.99964
 This molecule is an asymmetric top.
 Rotational symmetry number  1.
 Warning -- assumption of classical behavior for rotation
           may cause significant error
 Rotational temperatures (Kelvin)      0.15299     0.11069     0.08933
 Rotational constants (GHZ):           3.18782     2.30633     1.86130
 Zero-point vibrational energy     479891.1 (Joules/Mol)
                                  114.69672 (Kcal/Mol)
 Warning -- explicit consideration of  13 degrees of freedom as
           vibrations may cause significant error
 Vibrational temperatures:    152.85   300.10   327.52   350.75   408.99
          (Kelvin)            425.48   441.97   527.89   552.88   555.99
                              657.32   725.48   856.82   913.44  1049.00
                             1239.58  1262.24  1338.92  1364.64  1401.40
                             1452.22  1462.83  1517.90  1599.05  1699.25
                             1745.85  1768.60  1839.75  1952.13  1990.30
                             2022.61  2040.99  2049.53  2070.24  2144.59
                             2164.00  2173.70  2179.47  2187.53  2206.28
                             2396.36  4277.15  4371.32  4384.11  4391.83
                             4472.92  4485.46  4488.19  4499.60  4521.77
                             4532.67  5053.64  5172.97  5267.06

 Zero-point correction=                           0.182781 (Hartree/Particle)
 Thermal correction to Energy=                    0.191564
 Thermal correction to Enthalpy=                  0.192508
 Thermal correction to Gibbs Free Energy=         0.150825
 Sum of electronic and zero-point Energies=           -328.173629
 Sum of electronic and thermal Energies=              -328.164845
 Sum of electronic and thermal Enthalpies=            -328.163901
 Sum of electronic and thermal Free Energies=         -328.205585

                     E (Thermal)             CV                S
                      KCal/Mol        Cal/Mol-Kelvin    Cal/Mol-Kelvin
 Total                  120.208             33.822             87.730
 Electronic               0.000              0.000              0.000
 Translational            0.889              2.981             39.809
 Rotational               0.889              2.981             27.554
 Vibrational            118.431             27.860             20.367
 Vibration     1          0.605              1.944              3.337
 Vibration     2          0.642              1.828              2.056
 Vibration     3          0.651              1.799              1.897
 Vibration     4          0.659              1.773              1.775
 Vibration     5          0.683              1.703              1.508
 Vibration     6          0.690              1.682              1.441
 Vibration     7          0.697              1.660              1.377
 Vibration     8          0.740              1.540              1.093
 Vibration     9          0.753              1.504              1.022
 Vibration    10          0.755              1.499              1.014
 Vibration    11          0.815              1.346              0.775
 Vibration    12          0.860              1.241              0.648
 Vibration    13          0.953              1.041              0.457

 Optimization completed.
    -- Stationary point found.
 Normal termination of Gaussian 09 at Thu Sep  8 15:06:55 2022.
