 Gaussian 09, Revision E.01,
 Gaussian 09:  ES64L-G09RevE.01 30-Nov-2015

 ----------------------------
 #P OPT Freq B3LYP/6-31G(d,p)
 ----------------------------

 ---------
 Frag_1062
 ---------
 Symbolic Z-matrix:
 Charge =  0 Multiplicity = 1

 SCF Done:  E(RB3LYP) =  -244.580170908     A.U. after   16 cycles
 SCF Done:  E(RB3LYP) =  -244.580251519     A.U. after   10 cycles
 SCF Done:  E(RB3LYP) =  -244.580252865     A.U. after   11 cycles
 SCF Done:  E(RB3LYP) =  -244.580263318     A.U. after    9 cycles
 SCF Done:  E(RB3LYP) =  -244.580265855     A.U. after    8 cycles
 Optimization completed.
    -- Stationary point found.
 Normal termination of Gaussian 09 at Thu Sep  8 14:54:01 2022.

 ----------------------------------------------------------------------
 #P Geom=AllCheck Guess=TCheck SCRF=Check GenChk RB3LYP/6-31G(d,p) Freq
 ----------------------------------------------------------------------

 Structure from the checkpoint file:  "B3LYP6-31Gdp.Frag_1062.chk"
 ---------
 Frag_1062
 ---------
 Charge =  0 Multiplicity = 1

                         Standard orientation:
 ---------------------------------------------------------------------
 Center     Atomic      Atomic             Coordinates (Angstroms)
 Number     Number       Type             X           Y           Z
 ---------------------------------------------------------------------
      1          6           0       -0.522033    1.355509   -0.000041
      2          6           0       -0.585671   -0.179465   -0.000144
      3          7           0       -1.703181   -0.831480    0.000136
      4          7           0        0.576736   -0.919403   -0.000200
      5          7           0        1.755100   -0.049362    0.000113
      6          1           0       -1.531474    1.769517    0.000129
      7          1           0       -0.010509    1.759775    0.886002
      8          1           0       -0.010764    1.759900   -0.886179
      9          1           0       -2.483140   -0.174001    0.000245
     10          1           0        1.869926    0.564556   -0.825355
     11          1           0        2.541676   -0.698246   -0.000112
     12          1           0        1.869920    0.563953    0.826034
 ---------------------------------------------------------------------

 SCF Done:  E(RB3LYP) =  -244.580265855     A.U. after    1 cycles

 The electronic state is 1-A.
 Alpha  occ. eigenvalues --  -14.48085 -14.29234 -14.23808 -10.21115 -10.18920
 Alpha  occ. eigenvalues --   -1.02348  -0.86319  -0.76170  -0.71185  -0.59759
 Alpha  occ. eigenvalues --   -0.58323  -0.53106  -0.44869  -0.42183  -0.41046
 Alpha  occ. eigenvalues --   -0.39402  -0.29399  -0.25750  -0.20315  -0.16282
 Alpha virt. eigenvalues --    0.00596   0.06420   0.07185   0.07971   0.10504
 Alpha virt. eigenvalues --    0.14911   0.15948   0.21245   0.21287   0.25785
 Alpha virt. eigenvalues --    0.36924   0.45519   0.51784   0.55276   0.55418

 Mulliken charges:
               1
     1  C   -0.402291
     2  C    0.413857
     3  N   -0.587637
     4  N   -0.453955
     5  N   -0.399083
     6  H    0.124896
     7  H    0.094484
     8  H    0.094508
     9  H    0.188014
    10  H    0.294604
    11  H    0.337989
    12  H    0.294614
 Sum of Mulliken charges =   0.00000

 Dipole moment (field-independent basis, Debye):
    X=              6.2287    Y=              5.1922    Z=              0.0008  Tot=              8.1090
 Quadrupole moment (field-independent basis, Debye-Ang):
   XX=            -20.4066   YY=            -36.7970   ZZ=            -30.9041
   XY=             -3.4676   XZ=              0.0013   YZ=             -0.0002

  Exact polarizability:  64.712   4.679  43.482  -0.001  -0.000  28.770
 Approx polarizability:  98.215  11.602  63.970  -0.004  -0.000  41.091

                      1                      2                      3
                      A                      A                      A
 Frequencies --     44.5657               171.5623               223.1436
 Red. masses --      2.0938                 1.2517                 1.1415
 Frc consts  --      0.0025                 0.0217                 0.0335
 IR Inten    --     10.5908                 5.0133                 6.8157

                      4                      5                      6
                      A                      A                      A
 Frequencies --    339.2567               502.8670               542.7641
 Red. masses --      2.8628                 2.8022                 3.9689
 Frc consts  --      0.1941                 0.4175                 0.6889
 IR Inten    --     12.2508                 3.4686                17.9332

                      7                      8                      9
                      A                      A                      A
 Frequencies --    550.7993               717.7598               737.2288
 Red. masses --      2.5945                 1.1342                 5.5588
 Frc consts  --      0.4638                 0.3443                 1.7801
 IR Inten    --     19.3498                46.2533                13.9470

                     10                     11                     12
                      A                      A                      A
 Frequencies --    870.1975               996.9776              1038.1268
 Red. masses --      6.7581                 1.4015                 1.5175
 Frc consts  --      3.0152                 0.8208                 0.9636
 IR Inten    --      6.6449                24.2634                17.9339

                     13                     14                     15
                      A                      A                      A
 Frequencies --   1047.1839              1096.8703              1181.3990
 Red. masses --      1.2956                 1.4069                 1.5327
 Frc consts  --      0.8371                 0.9973                 1.2604
 IR Inten    --      5.5964                23.5670               229.7224

                     16                     17                     18
                      A                      A                      A
 Frequencies --   1388.9494              1424.1383              1487.4477
 Red. masses --      1.3543                 2.1513                 1.1322
 Frc consts  --      1.5394                 2.5707                 1.4759
 IR Inten    --      6.0993                56.1628                23.7490

                     19                     20                     21
                      A                      A                      A
 Frequencies --   1496.3136              1508.2533              1649.5646
 Red. masses --      1.2215                 1.0469                 1.0581
 Frc consts  --      1.6113                 1.4031                 1.6963
 IR Inten    --      7.9143                 3.7633                34.8820

                     22                     23                     24
                      A                      A                      A
 Frequencies --   1655.1601              1667.3835              2998.2981
 Red. masses --      1.6077                 1.9969                 1.0430
 Frc consts  --      2.5949                 3.2710                 5.5246
 IR Inten    --    277.9305                64.6903                31.5079

                     25                     26                     27
                      A                      A                      A
 Frequencies --   3048.2765              3140.9385              3221.1199
 Red. masses --      1.1001                 1.0944                 1.0341
 Frc consts  --      6.0226                 6.3615                 6.3218
 IR Inten    --     40.1587                11.8752                98.0411

                     28                     29                     30
                      A                      A                      A
 Frequencies --   3240.5295              3484.5892              3530.9219
 Red. masses --      1.0957                 1.0752                 1.0800
 Frc consts  --      6.7789                 7.6921                 7.9336
 IR Inten    --      3.9552                 8.4521                65.9341

 - Thermochemistry -
 -------------------
 Temperature   298.150 Kelvin.  Pressure   1.00000 Atm.
 Atom     1 has atomic number  6 and mass  12.00000

 Molecular mass:    73.06400 amu.
 Principal axes and moments of inertia in atomic units:
                           1         2         3
     Eigenvalues --   203.69433 431.65561 614.23198
           X            0.99960  -0.02819   0.00000
           Y            0.02819   0.99960  -0.00000
           Z           -0.00000   0.00000   1.00000
 This molecule is an asymmetric top.
 Rotational symmetry number  1.
 Rotational temperatures (Kelvin)      0.42521     0.20065     0.14101
 Rotational constants (GHZ):           8.86005     4.18097     2.93821
 Zero-point vibrational energy     269175.2 (Joules/Mol)
                                   64.33443 (Kcal/Mol)
 Warning -- explicit consideration of   7 degrees of freedom as
           vibrations may cause significant error
 Vibrational temperatures:     64.12   246.84   321.05   488.11   723.51
          (Kelvin)            780.92   792.48  1032.69  1060.71  1252.02
                             1434.43  1493.63  1506.66  1578.15  1699.77
                             1998.39  2049.01  2140.10  2152.86  2170.04
                             2373.35  2381.40  2398.99  4313.88  4385.78
                             4519.10  4634.47  4662.39  5013.54  5080.20

 Zero-point correction=                           0.102523 (Hartree/Particle)
 Thermal correction to Energy=                    0.108758
 Thermal correction to Enthalpy=                  0.109702
 Thermal correction to Gibbs Free Energy=         0.072738
 Sum of electronic and zero-point Energies=           -244.477742
 Sum of electronic and thermal Energies=              -244.471508
 Sum of electronic and thermal Enthalpies=            -244.470564
 Sum of electronic and thermal Free Energies=         -244.507528

                     E (Thermal)             CV                S
                      KCal/Mol        Cal/Mol-Kelvin    Cal/Mol-Kelvin
 Total                   68.247             20.965             77.798
 Electronic               0.000              0.000              0.000
 Translational            0.889              2.981             38.783
 Rotational               0.889              2.981             25.494
 Vibrational             66.469             15.004             13.522
 Vibration     1          0.595              1.980              5.045
 Vibration     2          0.626              1.877              2.418
 Vibration     3          0.649              1.806              1.933
 Vibration     4          0.719              1.597              1.216
 Vibration     5          0.858              1.244              0.651
 Vibration     6          0.898              1.156              0.559
 Vibration     7          0.906              1.138              0.543

 Normal termination of Gaussian 09 at Thu Sep  8 14:54:10 2022.
