 Gaussian 09, Revision E.01,
 Gaussian 09:  ES64L-G09RevE.01 30-Nov-2015

 ----------------------------
 #P OPT Freq B3LYP/6-31G(d,p)
 ----------------------------

 --------
 Frag_658
 --------
 Symbolic Z-matrix:
 Charge =  0 Multiplicity = 1

 SCF Done:  E(RB3LYP) =  -324.935671478     A.U. after   13 cycles
 SCF Done:  E(RB3LYP) =  -324.935731229     A.U. after   10 cycles
 SCF Done:  E(RB3LYP) =  -324.935747024     A.U. after    9 cycles
 SCF Done:  E(RB3LYP) =  -324.935753082     A.U. after    9 cycles
 SCF Done:  E(RB3LYP) =  -324.935758222     A.U. after    9 cycles
 SCF Done:  E(RB3LYP) =  -324.935761085     A.U. after    9 cycles
 SCF Done:  E(RB3LYP) =  -324.935762245     A.U. after    7 cycles
 SCF Done:  E(RB3LYP) =  -324.935762544     A.U. after    7 cycles
 Optimization completed.
    -- Stationary point found.
 Normal termination of Gaussian 09 at Thu Sep  8 15:21:38 2022.

 ----------------------------------------------------------------------
 #P Geom=AllCheck Guess=TCheck SCRF=Check GenChk RB3LYP/6-31G(d,p) Freq
 ----------------------------------------------------------------------

 Structure from the checkpoint file:  "B3LYP6-31Gdp.Frag_658.chk"
 --------
 Frag_658
 --------
 Charge =  0 Multiplicity = 1

                         Standard orientation:
 ---------------------------------------------------------------------
 Center     Atomic      Atomic             Coordinates (Angstroms)
 Number     Number       Type             X           Y           Z
 ---------------------------------------------------------------------
      1          6           0        1.998245   -0.040622   -0.062455
      2          8           0        0.781155   -0.499544   -0.617180
      3          6           0       -0.413195   -0.029706   -0.009858
      4          6           0       -0.702193    1.428192   -0.383732
      5          7           0       -1.430106   -0.894776   -0.540495
      6          8           0       -0.359420   -0.180895    1.411289
      7          1           0        2.118218    1.050260   -0.144755
      8          1           0        2.794924   -0.513157   -0.640687
      9          1           0        2.104479   -0.333424    0.989417
     10          1           0        0.067969    2.102110    0.006501
     11          1           0       -0.733367    1.523946   -1.469900
     12          1           0       -1.665294    1.740722    0.029895
     13          1           0       -1.132447   -1.855116   -0.383828
     14          1           0       -2.287644   -0.749903   -0.014311
     15          1           0        0.072880    0.594323    1.794534
 ---------------------------------------------------------------------

 SCF Done:  E(RB3LYP) =  -324.935762544     A.U. after    1 cycles

 The electronic state is 1-A.
 Alpha  occ. eigenvalues --  -19.14833 -19.14489 -14.31016 -10.30993 -10.22742
 Alpha  occ. eigenvalues --  -10.18026  -1.06442  -0.99472  -0.87534  -0.73244
 Alpha  occ. eigenvalues --   -0.69183  -0.58849  -0.52796  -0.50069  -0.48475
 Alpha  occ. eigenvalues --   -0.44557  -0.43146  -0.40515  -0.40217  -0.38513
 Alpha  occ. eigenvalues --   -0.34899  -0.32995  -0.29072  -0.26068  -0.24821
 Alpha virt. eigenvalues --    0.06476   0.10289   0.12218   0.13329   0.15135
 Alpha virt. eigenvalues --    0.16031   0.16362   0.18107   0.18520   0.21243
 Alpha virt. eigenvalues --    0.22950   0.26246   0.26353   0.31085   0.51439

 Mulliken charges:
               1
     1  C   -0.076408
     2  O   -0.482483
     3  C    0.569902
     4  C   -0.325090
     5  N   -0.581050
     6  O   -0.541657
     7  H    0.085339
     8  H    0.120401
     9  H    0.100696
    10  H    0.089438
    11  H    0.138037
    12  H    0.109132
    13  H    0.251314
    14  H    0.242702
    15  H    0.299729
 Sum of Mulliken charges =   0.00000

 Dipole moment (field-independent basis, Debye):
    X=              0.5915    Y=              1.6106    Z=              1.4856  Tot=              2.2695
 Quadrupole moment (field-independent basis, Debye-Ang):
   XX=            -32.9894   YY=            -34.8460   ZZ=            -40.2717
   XY=              1.0585   XZ=             -0.2092   YZ=              0.9609

  Exact polarizability:  53.432   1.042  46.214   0.741   1.520  41.990
 Approx polarizability:  66.716   2.376  61.826   0.646   4.031  60.613

                      1                      2                      3
                      A                      A                      A
 Frequencies --     82.7730               193.6253               232.3963
 Red. masses --      1.7932                 1.3181                 1.0507
 Frc consts  --      0.0072                 0.0291                 0.0334
 IR Inten    --      2.2857                 4.5121                10.8321

                      4                      5                      6
                      A                      A                      A
 Frequencies --    258.1876               295.7140               335.8958
 Red. masses --      1.0791                 3.1713                 1.4371
 Frc consts  --      0.0424                 0.1634                 0.0955
 IR Inten    --      3.6469                14.7563               100.0588

                      7                      8                      9
                      A                      A                      A
 Frequencies --    373.5079               396.8877               474.8995
 Red. masses --      1.9548                 2.5491                 2.8703
 Frc consts  --      0.1607                 0.2366                 0.3814
 IR Inten    --     31.1115                 2.4543                19.2134

                     10                     11                     12
                      A                      A                      A
 Frequencies --    538.3790               580.5492               765.8315
 Red. masses --      3.3790                 3.9046                 4.1832
 Frc consts  --      0.5771                 0.7754                 1.4455
 IR Inten    --     29.7072                 0.7865                12.5228

                     13                     14                     15
                      A                      A                      A
 Frequencies --    864.0687               920.0616               972.1577
 Red. masses --      2.4252                 1.7334                 1.8371
 Frc consts  --      1.0668                 0.8645                 1.0230
 IR Inten    --     76.6421               163.2555                10.2979

                     16                     17                     18
                      A                      A                      A
 Frequencies --   1025.4722              1118.5355              1159.7420
 Red. masses --      1.5744                 2.7031                 1.6888
 Frc consts  --      0.9755                 1.9925                 1.3383
 IR Inten    --     18.1850               106.5847                63.2881

                     19                     20                     21
                      A                      A                      A
 Frequencies --   1169.0061              1182.6106              1219.9850
 Red. masses --      2.7585                 1.4527                 1.4485
 Frc consts  --      2.2210                 1.1971                 1.2702
 IR Inten    --    158.6433                59.8051                28.6146

                     22                     23                     24
                      A                      A                      A
 Frequencies --   1329.6234              1391.6724              1432.0917
 Red. masses --      1.7923                 1.5500                 1.7560
 Frc consts  --      1.8669                 1.7687                 2.1219
 IR Inten    --     97.2247                38.8421                80.3506

                     25                     26                     27
                      A                      A                      A
 Frequencies --   1481.0351              1499.5807              1506.6928
 Red. masses --      1.1330                 1.0627                 1.0680
 Frc consts  --      1.4643                 1.4080                 1.4285
 IR Inten    --      1.0109                 1.8513                 1.0170

                     28                     29                     30
                      A                      A                      A
 Frequencies --   1512.9199              1530.0748              1655.0197
 Red. masses --      1.0576                 1.0533                 1.1098
 Frc consts  --      1.4263                 1.4529                 1.7910
 IR Inten    --      0.8618                 9.3230                40.0064

                     31                     32                     33
                      A                      A                      A
 Frequencies --   2998.0329              3054.1362              3065.4409
 Red. masses --      1.0429                 1.0399                 1.0944
 Frc consts  --      5.5227                 5.7149                 6.0594
 IR Inten    --     52.2995                12.3966                56.6341

                     34                     35                     36
                      A                      A                      A
 Frequencies --   3121.5300              3135.3682              3161.4838
 Red. masses --      1.1006                 1.0985                 1.1019
 Frc consts  --      6.3185                 6.3622                 6.4892
 IR Inten    --     29.5301                23.1379                11.5149

                     37                     38                     39
                      A                      A                      A
 Frequencies --   3505.0072              3596.9095              3805.1911
 Red. masses --      1.0494                 1.0924                 1.0659
 Frc consts  --      7.5954                 8.3270                 9.0933
 IR Inten    --      1.3725                 2.2306                 5.8656

 - Thermochemistry -
 -------------------
 Temperature   298.150 Kelvin.  Pressure   1.00000 Atm.
 Atom     1 has atomic number  6 and mass  12.00000

 Molecular mass:    91.06333 amu.
 Principal axes and moments of inertia in atomic units:
                           1         2         3
     Eigenvalues --   380.81408 620.98958 639.26840
           X            0.99975   0.00423   0.02174
           Y           -0.00196   0.99465  -0.10327
           Z           -0.02206   0.10320   0.99442
 This molecule is an asymmetric top.
 Rotational symmetry number  1.
 Rotational temperatures (Kelvin)      0.22744     0.13948     0.13549
 Rotational constants (GHZ):           4.73917     2.90623     2.82314
 Zero-point vibrational energy     340589.4 (Joules/Mol)
                                   81.40281 (Kcal/Mol)
 Warning -- explicit consideration of  11 degrees of freedom as
           vibrations may cause significant error
 Vibrational temperatures:    119.09   278.58   334.37   371.47   425.47
          (Kelvin)            483.28   537.39   571.03   683.27   774.61
                              835.28  1101.86  1243.20  1323.76  1398.72
                             1475.42  1609.32  1668.61  1681.94  1701.51
                             1755.28  1913.03  2002.30  2060.46  2130.88
                             2157.56  2167.79  2176.75  2201.43  2381.20
                             4313.50  4394.22  4410.48  4491.18  4511.09
                             4548.66  5042.92  5175.14  5474.81

 Zero-point correction=                           0.129724 (Hartree/Particle)
 Thermal correction to Energy=                    0.137366
 Thermal correction to Enthalpy=                  0.138310
 Thermal correction to Gibbs Free Energy=         0.098841
 Sum of electronic and zero-point Energies=           -324.806039
 Sum of electronic and thermal Energies=              -324.798397
 Sum of electronic and thermal Enthalpies=            -324.797453
 Sum of electronic and thermal Free Energies=         -324.836922

                     E (Thermal)             CV                S
                      KCal/Mol        Cal/Mol-Kelvin    Cal/Mol-Kelvin
 Total                   86.198             27.518             83.070
 Electronic               0.000              0.000              0.000
 Translational            0.889              2.981             39.439
 Rotational               0.889              2.981             26.516
 Vibrational             84.421             21.556             17.115
 Vibration     1          0.600              1.961              3.824
 Vibration     2          0.635              1.849              2.193
 Vibration     3          0.653              1.791              1.860
 Vibration     4          0.667              1.749              1.674
 Vibration     5          0.690              1.682              1.441
 Vibration     6          0.717              1.604              1.232
 Vibration     7          0.745              1.526              1.065
 Vibration     8          0.763              1.477              0.974
 Vibration     9          0.832              1.306              0.724
 Vibration    10          0.893              1.165              0.569
 Vibration    11          0.937              1.073              0.484

 Normal termination of Gaussian 09 at Thu Sep  8 15:21:50 2022.
