 Gaussian 09, Revision E.01,
 Gaussian 09:  ES64L-G09RevE.01 30-Nov-2015

 ----------------------------
 #P OPT Freq B3LYP/6-31G(d,p)
 ----------------------------

 --------
 Frag_970
 --------
 Symbolic Z-matrix:
 Charge =  0 Multiplicity = 1

 SCF Done:  E(RB3LYP) =  -264.498669959     A.U. after   13 cycles
 SCF Done:  E(RB3LYP) =  -264.498742802     A.U. after   10 cycles
 SCF Done:  E(RB3LYP) =  -264.498751084     A.U. after    8 cycles
 SCF Done:  E(RB3LYP) =  -264.498752939     A.U. after    8 cycles
 SCF Done:  E(RB3LYP) =  -264.498753165     A.U. after    7 cycles
 Optimization completed.
    -- Stationary point found.
 Normal termination of Gaussian 09 at Thu Sep  8 15:09:41 2022.

 ----------------------------------------------------------------------
 #P Geom=AllCheck Guess=TCheck SCRF=Check GenChk RB3LYP/6-31G(d,p) Freq
 ----------------------------------------------------------------------

 Structure from the checkpoint file:  "B3LYP6-31Gdp.Frag_970.chk"
 --------
 Frag_970
 --------
 Charge =  0 Multiplicity = 1

                         Standard orientation:
 ---------------------------------------------------------------------
 Center     Atomic      Atomic             Coordinates (Angstroms)
 Number     Number       Type             X           Y           Z
 ---------------------------------------------------------------------
      1          6           0       -1.783588   -0.580131    0.124094
      2          6           0       -0.594959    0.015081   -0.045231
      3          8           0       -0.427355    1.354933   -0.054071
      4          7           0        0.605765   -0.699664   -0.303291
      5          7           0        1.765561   -0.027599    0.163852
      6          1           0       -2.680805    0.015078    0.217618
      7          1           0       -1.869719   -1.659675    0.117551
      8          1           0        0.542293    1.487673   -0.025351
      9          1           0        0.536013   -1.671966   -0.019063
     10          1           0        2.535870   -0.224575   -0.466098
     11          1           0        2.027189   -0.304858    1.110803
 ---------------------------------------------------------------------

 SCF Done:  E(RB3LYP) =  -264.498753165     A.U. after    1 cycles

 The electronic state is 1-A.
 Alpha  occ. eigenvalues --  -19.15430 -14.37981 -14.37387 -10.25833 -10.13944
 Alpha  occ. eigenvalues --   -1.05670  -0.97656  -0.81073  -0.70398  -0.57298
 Alpha  occ. eigenvalues --   -0.54123  -0.53550  -0.51306  -0.42172  -0.39095
 Alpha  occ. eigenvalues --   -0.38225  -0.35356  -0.29504  -0.27991  -0.18836
 Alpha virt. eigenvalues --    0.05043   0.06985   0.10223   0.13503   0.14231
 Alpha virt. eigenvalues --    0.16606   0.18265   0.21401   0.26821   0.34628
 Alpha virt. eigenvalues --    0.38035   0.55900   0.56889   0.59108   0.61205

 Mulliken charges:
               1
     1  C   -0.349360
     2  C    0.551709
     3  O   -0.544748
     4  N   -0.444072
     5  N   -0.501257
     6  H    0.095802
     7  H    0.067943
     8  H    0.332533
     9  H    0.254167
    10  H    0.277460
    11  H    0.259823
 Sum of Mulliken charges =   0.00000

 Dipole moment (field-independent basis, Debye):
    X=              3.6643    Y=             -1.9633    Z=              0.9833  Tot=              4.2718
 Quadrupole moment (field-independent basis, Debye-Ang):
   XX=            -25.5297   YY=            -28.9137   ZZ=            -31.4645
   XY=             -0.5948   XZ=              0.9032   YZ=             -0.9707

  Exact polarizability:  57.942   5.374  38.299  -1.209  -0.564  22.355
 Approx polarizability:  79.125  11.105  56.056  -3.481  -1.255  31.616

                      1                      2                      3
                      A                      A                      A
 Frequencies --    133.5777               320.7433               370.1762
 Red. masses --      3.1464                 2.7411                 1.2488
 Frc consts  --      0.0331                 0.1661                 0.1008
 IR Inten    --     10.3254                14.9116                14.5597

                      4                      5                      6
                      A                      A                      A
 Frequencies --    433.6423               540.9276               639.5138
 Red. masses --      2.3098                 1.4604                 1.7957
 Frc consts  --      0.2559                 0.2518                 0.4327
 IR Inten    --      0.9901                81.2179                25.9197

                      7                      8                      9
                      A                      A                      A
 Frequencies --    671.8251               714.9735               723.8352
 Red. masses --      2.9496                 1.2645                 1.6964
 Frc consts  --      0.7844                 0.3809                 0.5237
 IR Inten    --      9.4520                12.3997               124.2875

                     10                     11                     12
                      A                      A                      A
 Frequencies --    730.4312               876.2047               971.3324
 Red. masses --      1.3798                 1.9104                 1.6620
 Frc consts  --      0.4337                 0.8641                 0.9239
 IR Inten    --     74.0846                24.1714                60.4867

                     13                     14                     15
                      A                      A                      A
 Frequencies --    982.4234              1142.9336              1282.3642
 Red. masses --      2.3542                 2.4782                 1.4652
 Frc consts  --      1.3387                 1.9073                 1.4196
 IR Inten    --     66.2067                 5.2385                25.7948

                     16                     17                     18
                      A                      A                      A
 Frequencies --   1305.3726              1409.2071              1446.3520
 Red. masses --      1.2846                 1.6756                 1.5153
 Frc consts  --      1.2897                 1.9605                 1.8677
 IR Inten    --     45.1103                51.3133               209.6685

                     19                     20                     21
                      A                      A                      A
 Frequencies --   1486.5592              1681.6348              1772.6565
 Red. masses --      1.2121                 1.0984                 4.8269
 Frc consts  --      1.5781                 1.8302                 8.9365
 IR Inten    --      3.0786                15.3819               242.6687

                     22                     23                     24
                      A                      A                      A
 Frequencies --   3192.5414              3289.7174              3441.7572
 Red. masses --      1.0606                 1.1165                 1.0538
 Frc consts  --      6.3690                 7.1192                 7.3549
 IR Inten    --      2.4225                 6.2913                 9.6236

                     25                     26                     27
                      A                      A                      A
 Frequencies --   3534.4015              3582.0662              3596.7500
 Red. masses --      1.0759                 1.0899                 1.0639
 Frc consts  --      7.9185                 8.2394                 8.1088
 IR Inten    --      2.5679                15.2712               199.7834

 - Thermochemistry -
 -------------------
 Temperature   298.150 Kelvin.  Pressure   1.00000 Atm.
 Atom     1 has atomic number  6 and mass  12.00000

 Molecular mass:    74.04801 amu.
 Principal axes and moments of inertia in atomic units:
                           1         2         3
     Eigenvalues --   184.10632 426.97300 586.59281
           X            0.99967   0.02558   0.00210
           Y           -0.02556   0.99962  -0.01017
           Z           -0.00236   0.01011   0.99995
 This molecule is an asymmetric top.
 Rotational symmetry number  1.
 Rotational temperatures (Kelvin)      0.47046     0.20286     0.14766
 Rotational constants (GHZ):           9.80271     4.22683     3.07665
 Zero-point vibrational energy     240891.5 (Joules/Mol)
                                   57.57446 (Kcal/Mol)
 Warning -- explicit consideration of   5 degrees of freedom as
           vibrations may cause significant error
 Vibrational temperatures:    192.19   461.48   532.60   623.91   778.27
          (Kelvin)            920.12   966.61  1028.69  1041.44  1050.93
                             1260.66  1397.53  1413.49  1644.42  1845.03
                             1878.14  2027.53  2080.98  2138.82  2419.49
                             2550.45  4593.35  4733.16  4951.91  5085.21
                             5153.79  5174.91

 Zero-point correction=                           0.091751 (Hartree/Particle)
 Thermal correction to Energy=                    0.097245
 Thermal correction to Enthalpy=                  0.098189
 Thermal correction to Gibbs Free Energy=         0.063534
 Sum of electronic and zero-point Energies=           -264.407002
 Sum of electronic and thermal Energies=              -264.401508
 Sum of electronic and thermal Enthalpies=            -264.400564
 Sum of electronic and thermal Free Energies=         -264.435219

                     E (Thermal)             CV                S
                      KCal/Mol        Cal/Mol-Kelvin    Cal/Mol-Kelvin
 Total                   61.022             20.022             72.937
 Electronic               0.000              0.000              0.000
 Translational            0.889              2.981             38.822
 Rotational               0.889              2.981             25.337
 Vibrational             59.245             14.060              8.778
 Vibration     1          0.613              1.920              2.894
 Vibration     2          0.706              1.634              1.306
 Vibration     3          0.742              1.533              1.079
 Vibration     4          0.794              1.397              0.847
 Vibration     5          0.896              1.160              0.563

 Optimization completed.
    -- Stationary point found.
 Normal termination of Gaussian 09 at Thu Sep  8 15:09:49 2022.
