 Gaussian 09, Revision E.01,
 Gaussian 09:  ES64L-G09RevE.01 30-Nov-2015

 ----------------------------
 #P OPT Freq B3LYP/6-31G(d,p)
 ----------------------------

 --------
 Frag_590
 --------
 Symbolic Z-matrix:
 Charge =  0 Multiplicity = 1

 SCF Done:  E(RB3LYP) =  -244.681126835     A.U. after   13 cycles
 SCF Done:  E(RB3LYP) =  -244.681173566     A.U. after   10 cycles
 SCF Done:  E(RB3LYP) =  -244.681177688     A.U. after    9 cycles
 SCF Done:  E(RB3LYP) =  -244.681180936     A.U. after    8 cycles
 SCF Done:  E(RB3LYP) =  -244.681182448     A.U. after    7 cycles
 SCF Done:  E(RB3LYP) =  -244.681182976     A.U. after    8 cycles
 Optimization completed.
    -- Stationary point found.
 Normal termination of Gaussian 09 at Thu Sep  8 15:13:57 2022.

 ----------------------------------------------------------------------
 #P Geom=AllCheck Guess=TCheck SCRF=Check GenChk RB3LYP/6-31G(d,p) Freq
 ----------------------------------------------------------------------

 Structure from the checkpoint file:  "B3LYP6-31Gdp.Frag_590.chk"
 --------
 Frag_590
 --------
 Charge =  0 Multiplicity = 1

                         Standard orientation:
 ---------------------------------------------------------------------
 Center     Atomic      Atomic             Coordinates (Angstroms)
 Number     Number       Type             X           Y           Z
 ---------------------------------------------------------------------
      1          7           0       -0.591041    1.410166    0.074053
      2          6           0       -0.561825    0.135130    0.029942
      3          7           0       -1.726365   -0.593822   -0.165742
      4          6           0        0.697502   -0.729004    0.125247
      5          7           0        1.896964    0.080273   -0.062520
      6          1           0        0.371511    1.743868    0.172788
      7          1           0       -1.754693   -1.524875    0.226226
      8          1           0       -2.566776   -0.054749   -0.002374
      9          1           0        0.735063   -1.168689    1.131015
     10          1           0        0.594068   -1.570769   -0.579996
     11          1           0        2.720374   -0.424712    0.249699
     12          1           0        2.029488    0.286854   -1.049031
 ---------------------------------------------------------------------

 SCF Done:  E(RB3LYP) =  -244.681182976     A.U. after    1 cycles

 The electronic state is 1-A.
 Alpha  occ. eigenvalues --  -14.33399 -14.32771 -14.27495 -10.24169 -10.22290
 Alpha  occ. eigenvalues --   -0.93433  -0.88644  -0.82936  -0.69196  -0.56430
 Alpha  occ. eigenvalues --   -0.52246  -0.49830  -0.46390  -0.42533  -0.42044
 Alpha  occ. eigenvalues --   -0.39552  -0.33319  -0.25128  -0.24346  -0.22642
 Alpha virt. eigenvalues --    0.04325   0.07692   0.08511   0.13212   0.14686
 Alpha virt. eigenvalues --    0.15407   0.18059   0.19972   0.22540   0.26331
 Alpha virt. eigenvalues --    0.33814   0.42421   0.54251   0.55909   0.56734

 Mulliken charges:
               1
     1  N   -0.575723
     2  C    0.425830
     3  N   -0.604806
     4  C   -0.115483
     5  N   -0.606400
     6  H    0.239148
     7  H    0.250894
     8  H    0.267776
     9  H    0.122049
    10  H    0.099219
    11  H    0.245862
    12  H    0.251635
 Sum of Mulliken charges =  -0.00000

 Dipole moment (field-independent basis, Debye):
    X=              1.3530    Y=             -3.4882    Z=              0.2577  Tot=              3.7502
 Quadrupole moment (field-independent basis, Debye-Ang):
   XX=            -24.5611   YY=            -32.6522   ZZ=            -31.0694
   XY=              1.9905   XZ=             -3.1158   YZ=             -2.0416

  Exact polarizability:  48.244   2.644  48.378   0.702  -0.828  27.691
 Approx polarizability:  59.748   5.282  78.154   2.158  -0.209  39.350

                      1                      2                      3
                      A                      A                      A
 Frequencies --    117.1333               249.3382               292.7615
 Red. masses --      2.2569                 1.1761                 2.5943
 Frc consts  --      0.0182                 0.0431                 0.1310
 IR Inten    --      3.8963                40.8061                10.1814

                      4                      5                      6
                      A                      A                      A
 Frequencies --    368.9739               456.1727               515.2838
 Red. masses --      1.2306                 2.9046                 1.8100
 Frc consts  --      0.0987                 0.3561                 0.2832
 IR Inten    --     55.0920                 0.3950                59.9296

                      7                      8                      9
                      A                      A                      A
 Frequencies --    606.5338               640.6287               804.4443
 Red. masses --      3.0877                 1.6225                 2.0013
 Frc consts  --      0.6693                 0.3923                 0.7631
 IR Inten    --     44.9742               188.7027                37.3964

                     10                     11                     12
                      A                      A                      A
 Frequencies --    862.4098               914.3415              1002.4618
 Red. masses --      1.6263                 1.1608                 1.5518
 Frc consts  --      0.7126                 0.5718                 0.9188
 IR Inten    --     85.5629                39.5185                14.3530

                     13                     14                     15
                      A                      A                      A
 Frequencies --   1097.9668              1123.4477              1172.2813
 Red. masses --      2.7824                 1.7070                 1.3543
 Frc consts  --      1.9763                 1.2694                 1.0965
 IR Inten    --     18.3506                13.7312                62.5454

                     16                     17                     18
                      A                      A                      A
 Frequencies --   1188.7138              1327.8713              1385.9648
 Red. masses --      1.3151                 1.2132                 1.4062
 Frc consts  --      1.0948                 1.2604                 1.5914
 IR Inten    --     42.7787                21.3846                31.6858

                     19                     20                     21
                      A                      A                      A
 Frequencies --   1461.3781              1507.8746              1638.2983
 Red. masses --      2.1354                 1.0991                 1.2299
 Frc consts  --      2.6870                 1.4724                 1.9449
 IR Inten    --     42.9156                 2.1834                51.9677

                     22                     23                     24
                      A                      A                      A
 Frequencies --   1665.7066              1751.4729              2973.3450
 Red. masses --      1.1068                 6.0631                 1.0701
 Frc consts  --      1.8093                10.9586                 5.5738
 IR Inten    --     44.4480               173.3014                66.4258

                     25                     26                     27
                      A                      A                      A
 Frequencies --   3049.4654              3463.3275              3510.7340
 Red. masses --      1.0909                 1.0726                 1.0500
 Frc consts  --      5.9772                 7.5802                 7.6251
 IR Inten    --     23.5631                10.2945                 0.1342

                     28                     29                     30
                      A                      A                      A
 Frequencies --   3565.4595              3599.4141              3683.7869
 Red. masses --      1.0466                 1.0933                 1.0997
 Frc consts  --      7.8393                 8.3457                 8.7926
 IR Inten    --     12.4053                 1.1836                15.5456

 - Thermochemistry -
 -------------------
 Temperature   298.150 Kelvin.  Pressure   1.00000 Atm.
 Atom     1 has atomic number  7 and mass  14.00307

 Molecular mass:    73.06400 amu.
 Principal axes and moments of inertia in atomic units:
                           1         2         3
     Eigenvalues --   187.41532 473.39513 635.33437
           X            0.99987   0.01232  -0.01032
           Y           -0.01251   0.99974  -0.01920
           Z            0.01009   0.01933   0.99976
 This molecule is an asymmetric top.
 Rotational symmetry number  1.
 Rotational temperatures (Kelvin)      0.46215     0.18296     0.13633
 Rotational constants (GHZ):           9.62964     3.81234     2.84062
 Zero-point vibrational energy     275123.1 (Joules/Mol)
                                   65.75600 (Kcal/Mol)
 Warning -- explicit consideration of   7 degrees of freedom as
           vibrations may cause significant error
 Vibrational temperatures:    168.53   358.74   421.22   530.87   656.33
          (Kelvin)            741.38   872.67   921.72  1157.41  1240.81
                             1315.53  1442.32  1579.73  1616.39  1686.65
                             1710.29  1910.51  1994.09  2102.59  2169.49
                             2357.14  2396.58  2519.98  4277.97  4387.50
                             4982.95  5051.16  5129.89  5178.75  5300.14

 Zero-point correction=                           0.104789 (Hartree/Particle)
 Thermal correction to Energy=                    0.110695
 Thermal correction to Enthalpy=                  0.111639
 Thermal correction to Gibbs Free Energy=         0.076075
 Sum of electronic and zero-point Energies=           -244.576394
 Sum of electronic and thermal Energies=              -244.570488
 Sum of electronic and thermal Enthalpies=            -244.569544
 Sum of electronic and thermal Free Energies=         -244.605107

                     E (Thermal)             CV                S
                      KCal/Mol        Cal/Mol-Kelvin    Cal/Mol-Kelvin
 Total                   69.462             20.965             74.849
 Electronic               0.000              0.000              0.000
 Translational            0.889              2.981             38.783
 Rotational               0.889              2.981             25.536
 Vibrational             67.684             15.004             10.531
 Vibration     1          0.608              1.935              3.147
 Vibration     2          0.662              1.764              1.735
 Vibration     3          0.688              1.687              1.458
 Vibration     4          0.741              1.536              1.084
 Vibration     5          0.814              1.347              0.777
 Vibration     6          0.870              1.216              0.621
 Vibration     7          0.965              1.018              0.439

 Normal termination of Gaussian 09 at Thu Sep  8 15:14:06 2022.
