 Gaussian 09, Revision D.01,
 Gaussian 09:  ES64L-G09RevD.01 24-Apr-2013

 --------------------------------
 #P OPT=calcfc Freq B3LYP/6-31G**
 --------------------------------

 -------
 Frag_96
 -------
 Symbolic Z-matrix:
 Charge =  0 Multiplicity = 1

 SCF Done:  E(RB3LYP) =  -251.906239196     A.U. after   14 cycles
 SCF Done:  E(RB3LYP) =  -251.907387476     A.U. after   12 cycles
 SCF Done:  E(RB3LYP) =  -251.907421115     A.U. after   13 cycles
 SCF Done:  E(RB3LYP) =  -251.909276185     A.U. after   12 cycles
 SCF Done:  E(RB3LYP) =  -251.908979487     A.U. after   11 cycles
 SCF Done:  E(RB3LYP) =  -251.909279276     A.U. after    9 cycles
 SCF Done:  E(RB3LYP) =  -251.910178641     A.U. after   12 cycles
 SCF Done:  E(RB3LYP) =  -251.864866948     A.U. after   14 cycles
 SCF Done:  E(RB3LYP) =  -251.910470247     A.U. after    9 cycles
 SCF Done:  E(RB3LYP) =  -251.911249937     A.U. after   14 cycles
 SCF Done:  E(RB3LYP) =  -251.911711742     A.U. after   11 cycles
 SCF Done:  E(RB3LYP) =  -251.911950420     A.U. after   10 cycles
 SCF Done:  E(RB3LYP) =  -251.912035402     A.U. after   10 cycles
 SCF Done:  E(RB3LYP) =  -251.911978441     A.U. after   11 cycles
 SCF Done:  E(RB3LYP) =  -251.912074669     A.U. after   11 cycles
 SCF Done:  E(RB3LYP) =  -251.912084952     A.U. after    9 cycles
 SCF Done:  E(RB3LYP) =  -251.912089319     A.U. after    9 cycles
 SCF Done:  E(RB3LYP) =  -251.912090141     A.U. after    7 cycles
 SCF Done:  E(RB3LYP) =  -251.912090177     A.U. after    6 cycles
 Optimization completed.
    -- Stationary point found.
 Normal termination of Gaussian 09 at Fri Jul 23 12:40:16 2021.

 ----------------------------------------------------------------------
 #P Geom=AllCheck Guess=TCheck SCRF=Check GenChk RB3LYP/6-31G(d,p) Freq
 ----------------------------------------------------------------------

 Structure from the checkpoint file:  "/vol2/users/liuj201281/HOFBenchmark/IsodesmicSplit/Sample60/Ring26/Running/Gau-355923.chk"
 -------
 Frag_96
 -------
 Charge =  0 Multiplicity = 1

                         Standard orientation:
 ---------------------------------------------------------------------
 Center     Atomic      Atomic             Coordinates (Angstroms)
 Number     Number       Type             X           Y           Z
 ---------------------------------------------------------------------
      1          6           0        1.418795    1.359040    0.025233
      2          6           0        0.666742    0.051845   -0.025484
      3          6           0        1.560457   -1.170007   -0.030284
      4          6           0       -0.681123   -0.054549   -0.005439
      5          6           0       -1.655747    1.096661   -0.020636
      6          7           0       -1.351804   -1.289355    0.123147
      7          1           0        2.067660    1.476842   -0.854191
      8          1           0        2.082570    1.393974    0.901119
      9          1           0        0.774227    2.237610    0.078936
     10          1           0        2.507223   -0.950699   -0.536871
     11          1           0        1.117424   -2.026119   -0.553784
     12          1           0        1.816662   -1.508196    0.984076
     13          1           0       -1.175646    2.061749   -0.173344
     14          1           0       -2.387900    0.964074   -0.829539
     15          1           0       -2.223442    1.134631    0.916592
     16          1           0       -0.772954   -2.105651   -0.023319
     17          1           0       -2.197946   -1.350672   -0.432048
 ---------------------------------------------------------------------

 SCF Done:  E(RB3LYP) =  -251.912090177     A.U. after    1 cycles

 The electronic state is 1-A.
 Alpha  occ. eigenvalues --  -14.32325 -10.20447 -10.17626 -10.17249 -10.16857
 Alpha  occ. eigenvalues --  -10.16467  -0.89638  -0.77687  -0.72213  -0.67587
 Alpha  occ. eigenvalues --   -0.62680  -0.52123  -0.49190  -0.45595  -0.42395
 Alpha  occ. eigenvalues --   -0.40836  -0.39856  -0.38504  -0.37404  -0.36768
 Alpha  occ. eigenvalues --   -0.35198  -0.32526  -0.29565  -0.18226
 Alpha virt. eigenvalues --    0.05348   0.07865   0.11714   0.12436   0.14043
 Alpha virt. eigenvalues --    0.15331   0.17174   0.17881   0.18385   0.19697
 Alpha virt. eigenvalues --    0.21912   0.24835   0.24983   0.26280   0.27134

 Mulliken charges:
               1
     1  C   -0.362928
     2  C    0.070355
     3  C   -0.373025
     4  C    0.224538
     5  C   -0.364745
     6  N   -0.631517
     7  H    0.101444
     8  H    0.104798
     9  H    0.098046
    10  H    0.103496
    11  H    0.087257
    12  H    0.115449
    13  H    0.112745
    14  H    0.098937
    15  H    0.126268
    16  H    0.246136
    17  H    0.242747
 Sum of Mulliken charges =   0.00000

 Dipole moment (field-independent basis, Debye):
    X=             -0.4745    Y=             -0.4593    Z=             -0.9461  Tot=              1.1538
 Quadrupole moment (field-independent basis, Debye-Ang):
   XX=            -36.8260   YY=            -36.2021   ZZ=            -40.6467
   XY=              0.1877   XZ=              2.2480   YZ=              1.6866

  Exact polarizability:  84.190   2.221  62.811   1.127   0.156  42.820
 Approx polarizability: 121.715   7.199  82.442   0.422  -0.587  61.546

                      1                      2                      3
                      A                      A                      A
 Frequencies --     85.7387               122.2991               143.8211
 Red. masses --      1.1363                 1.0553                 1.5107
 Frc consts  --      0.0049                 0.0093                 0.0184
 IR Inten    --      0.4704                 1.3461                 0.7220

                      4                      5                      6
                      A                      A                      A
 Frequencies --    170.9933               315.9441               317.6304
 Red. masses --      1.3401                 2.1097                 1.9302
 Frc consts  --      0.0231                 0.1241                 0.1147
 IR Inten    --      0.5416                13.5109                 7.1814

                      7                      8                      9
                      A                      A                      A
 Frequencies --    347.9323               397.7265               438.7039
 Red. masses --      1.3429                 2.2247                 2.4434
 Frc consts  --      0.0958                 0.2073                 0.2771
 IR Inten    --     31.5374                 0.8764                 3.9363

                     10                     11                     12
                      A                      A                      A
 Frequencies --    517.5206               554.0764               689.2687
 Red. masses --      3.1100                 2.4687                 1.8524
 Frc consts  --      0.4907                 0.4465                 0.5185
 IR Inten    --      1.7170                28.1065               214.9919

                     13                     14                     15
                      A                      A                      A
 Frequencies --    716.6180               923.9195               979.1930
 Red. masses --      2.3360                 2.2936                 1.3429
 Frc consts  --      0.7068                 1.1536                 0.7586
 IR Inten    --     52.0850                 0.3235                 0.6241

                     16                     17                     18
                      A                      A                      A
 Frequencies --   1001.1697              1019.1437              1064.5122
 Red. masses --      1.2885                 1.3453                 1.4666
 Frc consts  --      0.7610                 0.8233                 0.9792
 IR Inten    --      5.7184                 0.7553                 2.3753

                     19                     20                     21
                      A                      A                      A
 Frequencies --   1088.7993              1096.3171              1210.8352
 Red. masses --      1.4736                 1.5408                 3.8496
 Frc consts  --      1.0292                 1.0911                 3.3254
 IR Inten    --      8.2766                 1.0366                12.2440

                     22                     23                     24
                      A                      A                      A
 Frequencies --   1254.5633              1330.5837              1422.0083
 Red. masses --      2.0379                 2.6621                 1.2941
 Frc consts  --      1.8898                 2.7769                 1.5418
 IR Inten    --     36.9229                21.6101                 4.6447

                     25                     26                     27
                      A                      A                      A
 Frequencies --   1425.4024              1442.4313              1489.2184
 Red. masses --      1.3585                 1.2563                 1.0553
 Frc consts  --      1.6262                 1.5400                 1.3789
 IR Inten    --      0.8153                 1.5702                 0.4406

                     28                     29                     30
                      A                      A                      A
 Frequencies --   1497.0441              1501.0174              1505.5371
 Red. masses --      1.0445                 1.0515                 1.0509
 Frc consts  --      1.3792                 1.3959                 1.4035
 IR Inten    --      5.7590                 0.9081                 6.4657

                     31                     32                     33
                      A                      A                      A
 Frequencies --   1512.0638              1518.1276              1660.4028
 Red. masses --      1.0517                 1.0718                 1.1422
 Frc consts  --      1.4168                 1.4554                 1.8554
 IR Inten    --      5.8970                 6.9124                45.1784

                     34                     35                     36
                      A                      A                      A
 Frequencies --   1751.2416              3006.7513              3012.3133
 Red. masses --      5.8009                 1.0416                 1.0420
 Frc consts  --     10.4819                 5.5480                 5.5706
 IR Inten    --     54.5913                46.1745                80.7618

                     37                     38                     39
                      A                      A                      A
 Frequencies --   3024.0381              3044.5409              3061.9156
 Red. masses --      1.0486                 1.0998                 1.0971
 Frc consts  --      5.6497                 6.0062                 6.0601
 IR Inten    --     31.6241                38.8109                37.6608

                     40                     41                     42
                      A                      A                      A
 Frequencies --   3076.6900              3089.0584              3137.3324
 Red. masses --      1.0938                 1.0994                 1.0944
 Frc consts  --      6.1003                 6.1811                 6.3466
 IR Inten    --     23.9347                33.0742                27.1573

                     43                     44                     45
                      A                      A                      A
 Frequencies --   3171.6753              3536.0601              3648.7162
 Red. masses --      1.0933                 1.0491                 1.0947
 Frc consts  --      6.4800                 7.7290                 8.5870
 IR Inten    --     21.2975                 0.6774                 1.4892

 - Thermochemistry -
 -------------------
 Temperature   298.150 Kelvin.  Pressure   1.00000 Atm.
 Atom     1 has atomic number  6 and mass  12.00000

 Molecular mass:    85.08915 amu.
 Principal axes and moments of inertia in atomic units:
                           1         2         3
     Eigenvalues --   395.48932 591.93402 950.84316
           X            0.99908  -0.04224   0.00690
           Y            0.04219   0.99908   0.00800
           Z           -0.00723  -0.00770   0.99994
 This molecule is an asymmetric top.
 Rotational symmetry number  1.
 Rotational temperatures (Kelvin)      0.21900     0.14632     0.09109
 Rotational constants (GHZ):           4.56331     3.04889     1.89804
 Zero-point vibrational energy     402668.4 (Joules/Mol)
                                   96.24005 (Kcal/Mol)
 Warning -- explicit consideration of  11 degrees of freedom as
           vibrations may cause significant error
 Vibrational temperatures:    123.36   175.96   206.93   246.02   454.57
          (Kelvin)            457.00   500.60   572.24   631.20   744.60
                              797.19   991.70  1031.05  1329.31  1408.84
                             1440.46  1466.32  1531.59  1566.54  1577.35
                             1742.12  1805.03  1914.41  2045.95  2050.83
                             2075.33  2142.65  2153.91  2159.63  2166.13
                             2175.52  2184.24  2388.95  2519.64  4326.04
                             4334.04  4350.91  4380.41  4405.41  4426.67
                             4444.46  4513.92  4563.33  5087.60  5249.68

 Zero-point correction=                           0.153368 (Hartree/Particle)
 Thermal correction to Energy=                    0.161620
 Thermal correction to Enthalpy=                  0.162564
 Thermal correction to Gibbs Free Energy=         0.121534
 Sum of electronic and zero-point Energies=           -251.758722
 Sum of electronic and thermal Energies=              -251.750470
 Sum of electronic and thermal Enthalpies=            -251.749526
 Sum of electronic and thermal Free Energies=         -251.790556

                     E (Thermal)             CV                S
                      KCal/Mol        Cal/Mol-Kelvin    Cal/Mol-Kelvin
 Total                  101.418             29.146             86.354
 Electronic               0.000              0.000              0.000
 Translational            0.889              2.981             39.237
 Rotational               0.889              2.981             26.901
 Vibrational             99.641             23.184             20.216
 Vibration     1          0.601              1.959              3.755
 Vibration     2          0.610              1.931              3.064
 Vibration     3          0.616              1.909              2.752
 Vibration     4          0.626              1.878              2.425
 Vibration     5          0.703              1.643              1.331
 Vibration     6          0.704              1.640              1.322
 Vibration     7          0.726              1.579              1.176
 Vibration     8          0.764              1.475              0.971
 Vibration     9          0.799              1.386              0.831
 Vibration    10          0.873              1.211              0.616
 Vibration    11          0.909              1.131              0.536

 Optimization completed.
    -- Stationary point found.
 Normal termination of Gaussian 09 at Fri Jul 23 12:41:03 2021.
