 Gaussian 09, Revision E.01,
 Gaussian 09:  ES64L-G09RevE.01 30-Nov-2015

 ----------------------------
 #P OPT Freq B3LYP/6-31G(d,p)
 ----------------------------

 --------
 Frag_578
 --------
 Symbolic Z-matrix:
 Charge =  0 Multiplicity = 1

 SCF Done:  E(RB3LYP) =  -230.252577578     A.U. after   11 cycles
 SCF Done:  E(RB3LYP) =  -230.252615572     A.U. after    8 cycles
 SCF Done:  E(RB3LYP) =  -230.252618710     A.U. after    7 cycles
 SCF Done:  E(RB3LYP) =  -230.252620189     A.U. after    7 cycles
 SCF Done:  E(RB3LYP) =  -230.252621792     A.U. after    8 cycles
 SCF Done:  E(RB3LYP) =  -230.252623316     A.U. after    8 cycles
 SCF Done:  E(RB3LYP) =  -230.252623485     A.U. after    7 cycles
 Optimization completed.
    -- Stationary point found.
 Normal termination of Gaussian 09 at Thu Sep  8 15:13:51 2022.

 ----------------------------------------------------------------------
 #P Geom=AllCheck Guess=TCheck SCRF=Check GenChk RB3LYP/6-31G(d,p) Freq
 ----------------------------------------------------------------------

 Structure from the checkpoint file:  "B3LYP6-31Gdp.Frag_578.chk"
 --------
 Frag_578
 --------
 Charge =  0 Multiplicity = 1

                         Standard orientation:
 ---------------------------------------------------------------------
 Center     Atomic      Atomic             Coordinates (Angstroms)
 Number     Number       Type             X           Y           Z
 ---------------------------------------------------------------------
      1          8           0       -1.435634   -0.600590   -0.059314
      2          6           0       -0.719242    0.579940    0.256691
      3          6           0        0.719240    0.579939   -0.256694
      4          8           0        1.435632   -0.600590    0.059316
      5          1           0       -1.277033   -0.805561   -0.990452
      6          1           0       -0.724186    0.642535    1.352905
      7          1           0       -1.224119    1.488093   -0.115503
      8          1           0        1.224116    1.488095    0.115493
      9          1           0        0.724183    0.642526   -1.352909
     10          1           0        1.277077   -0.805524    0.990470
 ---------------------------------------------------------------------

 SCF Done:  E(RB3LYP) =  -230.252623485     A.U. after    1 cycles

 The electronic state is 1-A.
 Alpha  occ. eigenvalues --  -19.14515 -19.14515 -10.23585 -10.23563  -1.02874
 Alpha  occ. eigenvalues --   -1.00756  -0.73729  -0.63189  -0.51797  -0.47868
 Alpha  occ. eigenvalues --   -0.46063  -0.45000  -0.39647  -0.34978  -0.32619
 Alpha  occ. eigenvalues --   -0.27735  -0.26360
 Alpha virt. eigenvalues --    0.06912   0.09382   0.12326   0.13604   0.15867
 Alpha virt. eigenvalues --    0.17381   0.19595   0.22988   0.26686   0.52479
 Alpha virt. eigenvalues --    0.53450   0.58013   0.59610   0.63221   0.66328

 Mulliken charges:
               1
     1  O   -0.528026
     2  C    0.037553
     3  C    0.037547
     4  O   -0.528026
     5  H    0.307361
     6  H    0.100528
     7  H    0.082586
     8  H    0.082587
     9  H    0.100529
    10  H    0.307361
 Sum of Mulliken charges =   0.00000

 Dipole moment (field-independent basis, Debye):
    X=              0.0001    Y=              1.4238    Z=              0.0000  Tot=              1.4238
 Quadrupole moment (field-independent basis, Debye-Ang):
   XX=            -29.9210   YY=            -24.8005   ZZ=            -20.5097
   XY=              0.0000   XZ=              3.3476   YZ=              0.0001

  Exact polarizability:  28.586  -0.000  30.666   0.229   0.000  30.654
 Approx polarizability:  35.439  -0.000  41.405  -0.103   0.000  42.189

                      1                      2                      3
                      A                      A                      A
 Frequencies --     97.9656               165.9383               300.7328
 Red. masses --      1.7069                 1.0989                 1.5194
 Frc consts  --      0.0097                 0.0178                 0.0810
 IR Inten    --      9.6316               210.4277                42.4396

                      4                      5                      6
                      A                      A                      A
 Frequencies --    314.4717               541.6404               874.0714
 Red. masses --      2.5654                 2.1978                 3.0349
 Frc consts  --      0.1495                 0.3799                 1.3661
 IR Inten    --      6.9012                10.9184                31.3738

                      7                      8                      9
                      A                      A                      A
 Frequencies --    893.1223              1056.2799              1093.6371
 Red. masses --      1.7830                 1.3511                 3.5914
 Frc consts  --      0.8380                 0.8882                 2.5308
 IR Inten    --     15.4903                39.1312                53.2569

                     10                     11                     12
                      A                      A                      A
 Frequencies --   1136.0039              1170.1052              1290.1759
 Red. masses --      4.4365                 1.0926                 1.0992
 Frc consts  --      3.3733                 0.8814                 1.0781
 IR Inten    --    101.9728                24.0931                 2.2219

                     13                     14                     15
                      A                      A                      A
 Frequencies --   1346.6439              1393.8205              1430.0171
 Red. masses --      1.3887                 1.2261                 1.2407
 Frc consts  --      1.4837                 1.4034                 1.4949
 IR Inten    --     18.1036                 3.9121                50.9047

                     16                     17                     18
                      A                      A                      A
 Frequencies --   1441.8728              1521.6841              1525.6792
 Red. masses --      1.3490                 1.0929                 1.0835
 Frc consts  --      1.6523                 1.4910                 1.4859
 IR Inten    --     48.3792                 1.3947                 2.5156

                     19                     20                     21
                      A                      A                      A
 Frequencies --   2967.8652              2982.6429              3043.6513
 Red. masses --      1.0687                 1.0734                 1.0896
 Frc consts  --      5.5460                 5.6260                 5.9472
 IR Inten    --     19.6999               125.0371                 0.3169

                     22                     23                     24
                      A                      A                      A
 Frequencies --   3065.7060              3809.8412              3810.9897
 Red. masses --      1.0951                 1.0662                 1.0661
 Frc consts  --      6.0640                 9.1184                 9.1226
 IR Inten    --     83.1607                21.1073                 7.3396

 - Thermochemistry -
 -------------------
 Temperature   298.150 Kelvin.  Pressure   1.00000 Atm.
 Atom     1 has atomic number  8 and mass  15.99491

 Molecular mass:    62.03678 amu.
 Principal axes and moments of inertia in atomic units:
                           1         2         3
     Eigenvalues --   119.56638 332.46636 399.33527
           X            0.99994   0.00000   0.01081
           Y           -0.00000   1.00000   0.00000
           Z           -0.01081  -0.00000   0.99994
 This molecule is an asymmetric top.
 Rotational symmetry number  1.
 Rotational temperatures (Kelvin)      0.72440     0.26052     0.21689
 Rotational constants (GHZ):          15.09405     5.42834     4.51936
 Zero-point vibrational energy     222951.4 (Joules/Mol)
                                   53.28666 (Kcal/Mol)
 Warning -- explicit consideration of   5 degrees of freedom as
           vibrations may cause significant error
 Vibrational temperatures:    140.95   238.75   432.69   452.45   779.30
          (Kelvin)           1257.59  1285.00  1519.75  1573.50  1634.45
                             1683.52  1856.27  1937.52  2005.39  2057.47
                             2074.53  2189.36  2195.11  4270.09  4291.35
                             4379.13  4410.86  5481.50  5483.16

 Zero-point correction=                           0.084918 (Hartree/Particle)
 Thermal correction to Energy=                    0.090382
 Thermal correction to Enthalpy=                  0.091327
 Thermal correction to Gibbs Free Energy=         0.056870
 Sum of electronic and zero-point Energies=           -230.167706
 Sum of electronic and thermal Energies=              -230.162241
 Sum of electronic and thermal Enthalpies=            -230.161297
 Sum of electronic and thermal Free Energies=         -230.195753

                     E (Thermal)             CV                S
                      KCal/Mol        Cal/Mol-Kelvin    Cal/Mol-Kelvin
 Total                   56.716             17.113             72.520
 Electronic               0.000              0.000              0.000
 Translational            0.889              2.981             38.295
 Rotational               0.889              2.981             24.277
 Vibrational             54.938             11.152              9.948
 Vibration     1          0.603              1.951              3.494
 Vibration     2          0.624              1.884              2.481
 Vibration     3          0.693              1.672              1.413
 Vibration     4          0.702              1.646              1.339
 Vibration     5          0.897              1.158              0.562

 Optimization completed.
    -- Stationary point found.
 Normal termination of Gaussian 09 at Thu Sep  8 15:13:58 2022.
