 Gaussian 09, Revision E.01,
 Gaussian 09:  ES64L-G09RevE.01 30-Nov-2015

 ----------------------------
 #P OPT Freq B3LYP/6-31G(d,p)
 ----------------------------

 ---------
 Frag_1001
 ---------
 Symbolic Z-matrix:
 Charge =  0 Multiplicity = 1

 SCF Done:  E(RB3LYP) =  -324.522899400     A.U. after   12 cycles
 SCF Done:  E(RB3LYP) =  -324.522927681     A.U. after    8 cycles
 SCF Done:  E(RB3LYP) =  -324.522929280     A.U. after    7 cycles
 SCF Done:  E(RB3LYP) =  -324.522929416     A.U. after    6 cycles
 SCF Done:  E(RB3LYP) =  -324.522929404     A.U. after    7 cycles
 SCF Done:  E(RB3LYP) =  -324.522929464     A.U. after    6 cycles
 Optimization completed.
    -- Stationary point found.
 Normal termination of Gaussian 09 at Thu Sep  8 14:49:48 2022.

 ----------------------------------------------------------------------
 #P Geom=AllCheck Guess=TCheck SCRF=Check GenChk RB3LYP/6-31G(d,p) Freq
 ----------------------------------------------------------------------

 Structure from the checkpoint file:  "B3LYP6-31Gdp.Frag_1001.chk"
 ---------
 Frag_1001
 ---------
 Charge =  0 Multiplicity = 1

                         Standard orientation:
 ---------------------------------------------------------------------
 Center     Atomic      Atomic             Coordinates (Angstroms)
 Number     Number       Type             X           Y           Z
 ---------------------------------------------------------------------
      1          6           0        1.590399   -1.259368    0.031718
      2          6           0        0.860768    0.000001   -0.452402
      3          6           0        1.590398    1.259359    0.031746
      4          6           0       -0.637276    0.000000   -0.009523
      5          7           0       -1.257196   -1.245146   -0.497735
      6          7           0       -1.257108    1.245301   -0.497440
      7          7           0       -0.748635   -0.000155    1.449495
      8          1           0        1.574267   -1.296202    1.125370
      9          1           0        1.124161   -2.173532   -0.342078
     10          1           0        2.635749   -1.242209   -0.294698
     11          1           0        0.863652    0.000014   -1.555986
     12          1           0        2.635749    1.242204   -0.294663
     13          1           0        1.574247    1.296172    1.125398
     14          1           0        1.124164    2.173531   -0.342036
     15          1           0       -2.268777   -1.178371   -0.392718
     16          1           0       -1.073518   -1.357941   -1.492928
     17          1           0       -1.073333    1.358367   -1.492583
     18          1           0       -2.268701    1.178528   -0.392542
     19          1           0       -1.216528    0.834645    1.780079
     20          1           0       -1.216290   -0.835156    1.779910
 ---------------------------------------------------------------------

 SCF Done:  E(RB3LYP) =  -324.522929464     A.U. after    1 cycles

 The electronic state is 1-A.
 Alpha  occ. eigenvalues --  -14.31359 -14.31359 -14.30179 -10.26273 -10.17667
 Alpha  occ. eigenvalues --  -10.15274 -10.15273  -0.94094  -0.83609  -0.82902
 Alpha  occ. eigenvalues --   -0.76860  -0.66100  -0.62351  -0.54862  -0.50454
 Alpha  occ. eigenvalues --   -0.48962  -0.46447  -0.45594  -0.41206  -0.40867
 Alpha  occ. eigenvalues --   -0.40132  -0.36798  -0.35913  -0.32173  -0.31803
 Alpha  occ. eigenvalues --   -0.31559  -0.28974  -0.22782  -0.22200
 Alpha virt. eigenvalues --    0.05972   0.11130   0.11865   0.12347   0.14301
 Alpha virt. eigenvalues --    0.15642   0.16703   0.17485   0.18390   0.18569
 Alpha virt. eigenvalues --    0.19926   0.22110   0.22235   0.23156   0.26808

 Mulliken charges:
               1
     1  C   -0.305740
     2  C   -0.038298
     3  C   -0.305730
     4  C    0.353390
     5  N   -0.585907
     6  N   -0.585910
     7  N   -0.588369
     8  H    0.118750
     9  H    0.104310
    10  H    0.085956
    11  H    0.056530
    12  H    0.085954
    13  H    0.118753
    14  H    0.104303
    15  H    0.217312
    16  H    0.229157
    17  H    0.229162
    18  H    0.217313
    19  H    0.244531
    20  H    0.244534
 Sum of Mulliken charges =  -0.00000

 Dipole moment (field-independent basis, Debye):
    X=             -2.5362    Y=              0.0001    Z=             -1.5289  Tot=              2.9614
 Quadrupole moment (field-independent basis, Debye-Ang):
   XX=            -39.5231   YY=            -49.9644   ZZ=            -42.0733
   XY=             -0.0003   XZ=             -0.3658   YZ=             -0.0016

  Exact polarizability:  69.560  -0.000  63.400  -1.389  -0.000  61.249
 Approx polarizability:  88.577  -0.000  85.922  -3.243  -0.001  89.889

                      1                      2                      3
                      A                      A                      A
 Frequencies --     79.5382               152.9615               213.3484
 Red. masses --      1.8597                 1.2658                 1.0806
 Frc consts  --      0.0069                 0.0174                 0.0290
 IR Inten    --      2.1609                21.9376                 0.0598

                      4                      5                      6
                      A                      A                      A
 Frequencies --    236.5230               260.5922               280.4584
 Red. masses --      1.1178                 1.5947                 2.3675
 Frc consts  --      0.0368                 0.0638                 0.1097
 IR Inten    --      1.5016                 4.6813                10.5258

                      7                      8                      9
                      A                      A                      A
 Frequencies --    291.3168               330.7151               367.1601
 Red. masses --      1.5024                 1.2305                 2.2042
 Frc consts  --      0.0751                 0.0793                 0.1751
 IR Inten    --      2.8018                48.9095                19.5901

                     10                     11                     12
                      A                      A                      A
 Frequencies --    402.9696               431.5593               497.3412
 Red. masses --      2.9507                 2.5687                 2.7059
 Frc consts  --      0.2823                 0.2819                 0.3943
 IR Inten    --      0.6122                 5.5152                14.4360

                     13                     14                     15
                      A                      A                      A
 Frequencies --    524.9053               587.3542               729.4272
 Red. masses --      3.6938                 2.3950                 1.5031
 Frc consts  --      0.5996                 0.4868                 0.4712
 IR Inten    --     16.5937                 4.0258               140.7609

                     16                     17                     18
                      A                      A                      A
 Frequencies --    730.6667               816.8032               874.7756
 Red. masses --      2.3382                 1.2925                 2.4185
 Frc consts  --      0.7355                 0.5081                 1.0904
 IR Inten    --     17.7459               309.7821                12.2453

                     19                     20                     21
                      A                      A                      A
 Frequencies --    913.4449               938.6937               971.6595
 Red. masses --      1.9801                 1.1513                 1.4592
 Frc consts  --      0.9734                 0.5977                 0.8117
 IR Inten    --      1.1741                 1.7599                 3.6970

                     22                     23                     24
                      A                      A                      A
 Frequencies --    989.4167               999.4210              1083.9544
 Red. masses --      1.8321                 2.1725                 1.4268
 Frc consts  --      1.0567                 1.2785                 0.9878
 IR Inten    --     31.3666                17.4791                13.2587

                     25                     26                     27
                      A                      A                      A
 Frequencies --   1118.0984              1179.0541              1192.1115
 Red. masses --      1.6172                 1.3641                 2.4524
 Frc consts  --      1.1912                 1.1173                 2.0534
 IR Inten    --      0.0666                 0.5726                55.1523

                     28                     29                     30
                      A                      A                      A
 Frequencies --   1214.0547              1299.7982              1360.3736
 Red. masses --      2.0023                 1.6292                 1.4058
 Frc consts  --      1.7388                 1.6218                 1.5328
 IR Inten    --      7.8889                39.5250                 0.0002

                     31                     32                     33
                      A                      A                      A
 Frequencies --   1364.8276              1397.0829              1408.6365
 Red. masses --      1.6040                 1.7450                 1.2940
 Frc consts  --      1.7604                 2.0068                 1.5128
 IR Inten    --      1.2713                11.2616                 2.2122

                     34                     35                     36
                      A                      A                      A
 Frequencies --   1436.9031              1494.8788              1510.6919
 Red. masses --      1.3751                 1.0421                 1.0438
 Frc consts  --      1.6727                 1.3721                 1.4035
 IR Inten    --     18.1533                 0.1456                 4.3327

                     37                     38                     39
                      A                      A                      A
 Frequencies --   1514.0276              1535.4874              1620.0249
 Red. masses --      1.0485                 1.0582                 1.1136
 Frc consts  --      1.4161                 1.4700                 1.7220
 IR Inten    --      0.9225                10.3269                44.7158

                     40                     41                     42
                      A                      A                      A
 Frequencies --   1646.2781              1664.9751              2973.2226
 Red. masses --      1.1092                 1.0949                 1.0822
 Frc consts  --      1.7712                 1.7883                 5.6366
 IR Inten    --      9.0084                51.7177                49.6983

                     43                     44                     45
                      A                      A                      A
 Frequencies --   3047.2483              3052.9272              3115.6015
 Red. masses --      1.0374                 1.0374                 1.1005
 Frc consts  --      5.6755                 5.6965                 6.2938
 IR Inten    --     19.8965                39.1273                 3.3200

                     46                     47                     48
                      A                      A                      A
 Frequencies --   3120.5360              3140.3979              3141.7249
 Red. masses --      1.1004                 1.1016                 1.1013
 Frc consts  --      6.3134                 6.4010                 6.4047
 IR Inten    --     48.3467                21.3311                25.2949

                     49                     50                     51
                      A                      A                      A
 Frequencies --   3467.8746              3469.8075              3545.2976
 Red. masses --      1.0505                 1.0488                 1.0488
 Frc consts  --      7.4438                 7.4394                 7.7667
 IR Inten    --      0.0387                 6.1040                 2.4616

                     52                     53                     54
                      A                      A                      A
 Frequencies --   3560.4117              3561.3444              3657.0032
 Red. masses --      1.0928                 1.0900                 1.0974
 Frc consts  --      8.1620                 8.1453                 8.6473
 IR Inten    --      0.0164                 1.3999                 7.1058

 - Thermochemistry -
 -------------------
 Temperature   298.150 Kelvin.  Pressure   1.00000 Atm.
 Atom     1 has atomic number  6 and mass  12.00000

 Molecular mass:   103.11095 amu.
 Principal axes and moments of inertia in atomic units:
                           1         2         3
     Eigenvalues --   574.41121 785.35934 963.95170
           X            0.99999  -0.00000   0.00467
           Y            0.00000   1.00000  -0.00001
           Z           -0.00467   0.00001   0.99999
 This molecule is an asymmetric top.
 Rotational symmetry number  1.
 Warning -- assumption of classical behavior for rotation
           may cause significant error
 Rotational temperatures (Kelvin)      0.15079     0.11029     0.08985
 Rotational constants (GHZ):           3.14190     2.29798     1.87223
 Zero-point vibrational energy     481590.9 (Joules/Mol)
                                  115.10298 (Kcal/Mol)
 Warning -- explicit consideration of  14 degrees of freedom as
           vibrations may cause significant error
 Vibrational temperatures:    114.44   220.08   306.96   340.30   374.93
          (Kelvin)            403.52   419.14   475.82   528.26   579.78
                              620.92   715.56   755.22   845.07  1049.48
                             1051.27  1175.20  1258.61  1314.24  1350.57
                             1398.00  1423.55  1437.94  1559.57  1608.69
                             1696.39  1715.18  1746.75  1870.12  1957.27
                             1963.68  2010.09  2026.71  2067.38  2150.79
                             2173.55  2178.35  2209.22  2330.85  2368.62
                             2395.52  4277.80  4384.31  4392.48  4482.65
                             4489.75  4518.33  4520.24  4989.49  4992.27
                             5100.89  5122.63  5123.97  5261.61

 Zero-point correction=                           0.183428 (Hartree/Particle)
 Thermal correction to Energy=                    0.192706
 Thermal correction to Enthalpy=                  0.193651
 Thermal correction to Gibbs Free Energy=         0.150804
 Sum of electronic and zero-point Energies=           -324.339501
 Sum of electronic and thermal Energies=              -324.330223
 Sum of electronic and thermal Enthalpies=            -324.329279
 Sum of electronic and thermal Free Energies=         -324.372125

                     E (Thermal)             CV                S
                      KCal/Mol        Cal/Mol-Kelvin    Cal/Mol-Kelvin
 Total                  120.925             35.212             90.177
 Electronic               0.000              0.000              0.000
 Translational            0.889              2.981             39.809
 Rotational               0.889              2.981             27.566
 Vibrational            119.148             29.250             22.802
 Vibration     1          0.600              1.963              3.902
 Vibration     2          0.619              1.899              2.635
 Vibration     3          0.644              1.821              2.015
 Vibration     4          0.655              1.785              1.829
 Vibration     5          0.669              1.745              1.658
 Vibration     6          0.680              1.710              1.531
 Vibration     7          0.687              1.690              1.466
 Vibration     8          0.713              1.614              1.257
 Vibration     9          0.740              1.540              1.092
 Vibration    10          0.768              1.464              0.952
 Vibration    11          0.793              1.401              0.854
 Vibration    12          0.853              1.256              0.665
 Vibration    13          0.880              1.195              0.599
 Vibration    14          0.944              1.059              0.472

 Optimization completed.
    -- Stationary point found.
 Normal termination of Gaussian 09 at Thu Sep  8 14:50:08 2022.
