 Gaussian 09, Revision E.01,
 Gaussian 09:  ES64L-G09RevE.01 30-Nov-2015

 ----------------------------
 #P OPT Freq B3LYP/6-31G(d,p)
 ----------------------------

 --------
 Frag_489
 --------
 Symbolic Z-matrix:
 Charge =  0 Multiplicity = 1

 SCF Done:  E(RB3LYP) =  -312.316005413     A.U. after   13 cycles
 SCF Done:  E(RB3LYP) =  -312.316038854     A.U. after   10 cycles
 SCF Done:  E(RB3LYP) =  -312.316043004     A.U. after    8 cycles
 SCF Done:  E(RB3LYP) =  -312.316044584     A.U. after    8 cycles
 SCF Done:  E(RB3LYP) =  -312.316045265     A.U. after    7 cycles
 SCF Done:  E(RB3LYP) =  -312.316045280     A.U. after    7 cycles
 SCF Done:  E(RB3LYP) =  -312.316045292     A.U. after    6 cycles
 Optimization completed.
    -- Stationary point found.
 Normal termination of Gaussian 09 at Thu Sep  8 15:23:39 2022.

 ----------------------------------------------------------------------
 #P Geom=AllCheck Guess=TCheck SCRF=Check GenChk RB3LYP/6-31G(d,p) Freq
 ----------------------------------------------------------------------

 Structure from the checkpoint file:  "B3LYP6-31Gdp.Frag_489.chk"
 --------
 Frag_489
 --------
 Charge =  0 Multiplicity = 1

                         Standard orientation:
 ---------------------------------------------------------------------
 Center     Atomic      Atomic             Coordinates (Angstroms)
 Number     Number       Type             X           Y           Z
 ---------------------------------------------------------------------
      1          6           0        1.787024    1.048480   -0.019943
      2          6           0        0.850477   -0.078797   -0.464370
      3          8           0        1.410761   -1.347495   -0.107057
      4          6           0       -0.633496    0.045909    0.003351
      5          6           0       -1.225528    1.385557   -0.475385
      6          6           0       -1.431546   -1.109682   -0.632293
      7          6           0       -0.746676   -0.048159    1.537339
      8          1           0        1.465702    2.024697   -0.392735
      9          1           0        2.792097    0.851275   -0.402985
     10          1           0        1.851961    1.113162    1.072844
     11          1           0        0.835048   -0.095454   -1.562015
     12          1           0        1.592773   -1.326624    0.842013
     13          1           0       -2.302263    1.418916   -0.276970
     14          1           0       -0.772478    2.243792    0.030704
     15          1           0       -1.086035    1.517721   -1.554935
     16          1           0       -0.994323   -2.074989   -0.366572
     17          1           0       -2.474774   -1.092792   -0.298075
     18          1           0       -1.430192   -1.031852   -1.725851
     19          1           0       -1.795757    0.010622    1.845935
     20          1           0       -0.212999    0.763570    2.043073
     21          1           0       -0.356381   -1.001942    1.909835
 ---------------------------------------------------------------------

 SCF Done:  E(RB3LYP) =  -312.316045292     A.U. after    1 cycles

 The electronic state is 1-A.
 Alpha  occ. eigenvalues --  -19.13736 -10.22888 -10.19304 -10.17545 -10.17447
 Alpha  occ. eigenvalues --  -10.17271 -10.16344  -1.01041  -0.81213  -0.73141
 Alpha  occ. eigenvalues --   -0.68456  -0.67764  -0.62447  -0.54143  -0.47669
 Alpha  occ. eigenvalues --   -0.45888  -0.44676  -0.43256  -0.42364  -0.39250
 Alpha  occ. eigenvalues --   -0.37989  -0.37703  -0.36544  -0.35860  -0.34586
 Alpha  occ. eigenvalues --   -0.32461  -0.32134  -0.30254  -0.25862
 Alpha virt. eigenvalues --    0.06790   0.09920   0.12052   0.13241   0.13841
 Alpha virt. eigenvalues --    0.14245   0.15082   0.16417   0.17911   0.18972
 Alpha virt. eigenvalues --    0.19788   0.20446   0.21289   0.22426   0.23078

 Mulliken charges:
               1
     1  C   -0.341731
     2  C    0.191615
     3  O   -0.549486
     4  C    0.037159
     5  C   -0.308052
     6  C   -0.300401
     7  C   -0.321764
     8  H    0.107458
     9  H    0.116509
    10  H    0.094448
    11  H    0.089991
    12  H    0.299399
    13  H    0.098674
    14  H    0.098159
    15  H    0.097176
    16  H    0.117807
    17  H    0.088793
    18  H    0.092343
    19  H    0.103720
    20  H    0.097094
    21  H    0.091089
 Sum of Mulliken charges =  -0.00000

 Dipole moment (field-independent basis, Debye):
    X=             -0.2205    Y=              1.1699    Z=              0.9984  Tot=              1.5537
 Quadrupole moment (field-independent basis, Debye-Ang):
   XX=            -46.6910   YY=            -48.6880   ZZ=            -44.7766
   XY=              1.4626   XZ=              1.8660   YZ=             -2.1808

  Exact polarizability:  71.235   1.029  67.025   0.768  -0.977  66.305
 Approx polarizability:  92.894  -1.578  93.187   0.699  -1.014  95.065

                      1                      2                      3
                      A                      A                      A
 Frequencies --     79.0822               214.4312               240.3274
 Red. masses --      2.6241                 1.0281                 1.5955
 Frc consts  --      0.0097                 0.0279                 0.0543
 IR Inten    --      0.8683                 3.1912                 7.2145

                      4                      5                      6
                      A                      A                      A
 Frequencies --    249.0827               259.0468               277.9894
 Red. masses --      1.1710                 1.2239                 1.6512
 Frc consts  --      0.0428                 0.0484                 0.0752
 IR Inten    --      0.8713                18.2046                 0.9354

                      7                      8                      9
                      A                      A                      A
 Frequencies --    299.3847               319.0038               355.4866
 Red. masses --      1.7198                 1.1577                 2.0159
 Frc consts  --      0.0908                 0.0694                 0.1501
 IR Inten    --      3.4843                81.5777                 7.4421

                     10                     11                     12
                      A                      A                      A
 Frequencies --    362.5595               384.0417               446.7618
 Red. masses --      2.3178                 2.2236                 2.3757
 Frc consts  --      0.1795                 0.1932                 0.2794
 IR Inten    --      2.0832                 0.6994                 2.7052

                     13                     14                     15
                      A                      A                      A
 Frequencies --    490.0207               553.3374               708.5615
 Red. masses --      3.0875                 2.4835                 2.8655
 Frc consts  --      0.4368                 0.4480                 0.8476
 IR Inten    --     14.2684                 0.8096                 2.2090

                     16                     17                     18
                      A                      A                      A
 Frequencies --    845.8926               928.3648               937.8838
 Red. masses --      2.2547                 2.0069                 1.7704
 Frc consts  --      0.9505                 1.0191                 0.9175
 IR Inten    --      1.4666                14.4475                 1.8938

                     19                     20                     21
                      A                      A                      A
 Frequencies --    943.4555               964.5386              1005.6554
 Red. masses --      1.6258                 1.2215                 1.3134
 Frc consts  --      0.8526                 0.6696                 0.7826
 IR Inten    --      0.3759                 0.1935                 8.3281

                     22                     23                     24
                      A                      A                      A
 Frequencies --   1032.3679              1065.9209              1093.3380
 Red. masses --      1.6271                 1.4709                 1.7558
 Frc consts  --      1.0217                 0.9846                 1.2366
 IR Inten    --      6.5129                31.0438                33.7753

                     25                     26                     27
                      A                      A                      A
 Frequencies --   1122.1094              1225.0212              1252.3215
 Red. masses --      2.2147                 2.0473                 2.6643
 Frc consts  --      1.6430                 1.8102                 2.4619
 IR Inten    --     59.6973                 6.5625                 1.1891

                     28                     29                     30
                      A                      A                      A
 Frequencies --   1282.0988              1304.4517              1370.8561
 Red. masses --      2.6762                 1.6236                 1.3718
 Frc consts  --      2.5919                 1.6278                 1.5189
 IR Inten    --      0.7537                13.5581                 2.8040

                     31                     32                     33
                      A                      A                      A
 Frequencies --   1408.5417              1411.8242              1417.3885
 Red. masses --      1.2609                 1.2434                 1.1994
 Frc consts  --      1.4739                 1.4603                 1.4196
 IR Inten    --      6.6055                 7.1735                14.8655

                     34                     35                     36
                      A                      A                      A
 Frequencies --   1426.2554              1443.7436              1494.0916
 Red. masses --      1.2649                 1.2242                 1.0484
 Frc consts  --      1.5160                 1.5034                 1.3790
 IR Inten    --     31.8460                 9.0966                 0.3296

                     37                     38                     39
                      A                      A                      A
 Frequencies --   1501.4526              1507.0219              1508.8648
 Red. masses --      1.0465                 1.0470                 1.0539
 Frc consts  --      1.3900                 1.4009                 1.4136
 IR Inten    --      0.4037                 0.5542                 1.1277

                     40                     41                     42
                      A                      A                      A
 Frequencies --   1513.6222              1525.4484              1526.3825
 Red. masses --      1.0483                 1.0554                 1.0516
 Frc consts  --      1.4151                 1.4470                 1.4436
 IR Inten    --     10.3434                 0.3759                 4.9220

                     43                     44                     45
                      A                      A                      A
 Frequencies --   1537.0737              3034.6076              3035.5238
 Red. masses --      1.0606                 1.0371                 1.0364
 Frc consts  --      1.4763                 5.6270                 5.6263
 IR Inten    --     11.7354                21.6038                30.4352

                     46                     47                     48
                      A                      A                      A
 Frequencies --   3036.2508              3044.5371              3046.3782
 Red. masses --      1.0669                 1.0531                 1.0404
 Frc consts  --      5.7949                 5.7514                 5.6885
 IR Inten    --     12.8607                24.1141                21.3056

                     49                     50                     51
                      A                      A                      A
 Frequencies --   3098.9902              3103.0787              3105.6162
 Red. masses --      1.1020                 1.1017                 1.1009
 Frc consts  --      6.2357                 6.2504                 6.2561
 IR Inten    --      3.0223                23.4472                32.8719

                     52                     53                     54
                      A                      A                      A
 Frequencies --   3108.7183              3114.8497              3116.6832
 Red. masses --      1.1005                 1.1012                 1.0983
 Frc consts  --      6.2661                 6.2950                 6.2859
 IR Inten    --     52.0352                63.8072                23.7160

                     55                     56                     57
                      A                      A                      A
 Frequencies --   3136.6900              3137.5858              3807.5250
 Red. masses --      1.1016                 1.1002                 1.0658
 Frc consts  --      6.3858                 6.3816                 9.1038
 IR Inten    --      6.3154                36.1899                 9.2215

 - Thermochemistry -
 -------------------
 Temperature   298.150 Kelvin.  Pressure   1.00000 Atm.
 Atom     1 has atomic number  6 and mass  12.00000

 Molecular mass:   102.10447 amu.
 Principal axes and moments of inertia in atomic units:
                           1         2         3
     Eigenvalues --   591.20177 821.67658 982.22240
           X            0.99701   0.07580   0.01482
           Y           -0.07548   0.99693  -0.02084
           Z           -0.01635   0.01966   0.99967
 This molecule is an asymmetric top.
 Rotational symmetry number  1.
 Warning -- assumption of classical behavior for rotation
           may cause significant error
 Rotational temperatures (Kelvin)      0.14650     0.10541     0.08818
 Rotational constants (GHZ):           3.05267     2.19641     1.83741
 Zero-point vibrational energy     506990.2 (Joules/Mol)
                                  121.17356 (Kcal/Mol)
 Warning -- explicit consideration of  14 degrees of freedom as
           vibrations may cause significant error
 Vibrational temperatures:    113.78   308.52   345.78   358.37   372.71
          (Kelvin)            399.96   430.75   458.97   511.47   521.64
                              552.55   642.79   705.03   796.13  1019.46
                             1217.05  1335.71  1349.40  1357.42  1387.75
                             1446.91  1485.35  1533.62  1573.07  1614.46
                             1762.53  1801.81  1844.65  1876.81  1972.35
                             2026.57  2031.30  2039.30  2052.06  2077.22
                             2149.66  2160.25  2168.27  2170.92  2177.76
                             2194.78  2196.12  2211.50  4366.12  4367.44
                             4368.48  4380.40  4383.05  4458.75  4464.63
                             4468.28  4472.75  4481.57  4484.21  4512.99
                             4514.28  5478.17

 Zero-point correction=                           0.193102 (Hartree/Particle)
 Thermal correction to Energy=                    0.202326
 Thermal correction to Enthalpy=                  0.203270
 Thermal correction to Gibbs Free Energy=         0.160617
 Sum of electronic and zero-point Energies=           -312.122943
 Sum of electronic and thermal Energies=              -312.113719
 Sum of electronic and thermal Enthalpies=            -312.112775
 Sum of electronic and thermal Free Energies=         -312.155428

                     E (Thermal)             CV                S
                      KCal/Mol        Cal/Mol-Kelvin    Cal/Mol-Kelvin
 Total                  126.962             35.034             89.771
 Electronic               0.000              0.000              0.000
 Translational            0.889              2.981             39.780
 Rotational               0.889              2.981             27.658
 Vibrational            125.184             29.072             22.333
 Vibration     1          0.600              1.963              3.914
 Vibration     2          0.644              1.819              2.006
 Vibration     3          0.657              1.779              1.800
 Vibration     4          0.662              1.764              1.737
 Vibration     5          0.668              1.747              1.668
 Vibration     6          0.679              1.714              1.546
 Vibration     7          0.692              1.675              1.420
 Vibration     8          0.705              1.637              1.315
 Vibration     9          0.731              1.564              1.142
 Vibration    10          0.736              1.549              1.111
 Vibration    11          0.753              1.504              1.023
 Vibration    12          0.806              1.368              0.806
 Vibration    13          0.846              1.272              0.684
 Vibration    14          0.909              1.132              0.537

 Optimization completed.
    -- Stationary point found.
 Normal termination of Gaussian 09 at Thu Sep  8 15:24:00 2022.
