 Gaussian 09, Revision E.01,
 Gaussian 09:  ES64L-G09RevE.01 30-Nov-2015

 ----------------------------
 #P OPT Freq B3LYP/6-31G(d,p)
 ----------------------------

 --------
 Frag_736
 --------
 Symbolic Z-matrix:
 Charge =  0 Multiplicity = 1

 SCF Done:  E(RB3LYP) =  -204.091251270     A.U. after   14 cycles
 SCF Done:  E(RB3LYP) =  -204.091297487     A.U. after   10 cycles
 SCF Done:  E(RB3LYP) =  -204.091299097     A.U. after    9 cycles
 SCF Done:  E(RB3LYP) =  -204.091299515     A.U. after    9 cycles
 Optimization completed.
    -- Stationary point found.
 Normal termination of Gaussian 09 at Thu Sep  8 14:59:37 2022.

 ----------------------------------------------------------------------
 #P Geom=AllCheck Guess=TCheck SCRF=Check GenChk RB3LYP/6-31G(d,p) Freq
 ----------------------------------------------------------------------

 Structure from the checkpoint file:  "B3LYP6-31Gdp.Frag_736.chk"
 --------
 Frag_736
 --------
 Charge =  0 Multiplicity = 1

                         Standard orientation:
 ---------------------------------------------------------------------
 Center     Atomic      Atomic             Coordinates (Angstroms)
 Number     Number       Type             X           Y           Z
 ---------------------------------------------------------------------
      1          7           0        1.758393   -0.066072    0.000086
      2          6           0        0.580518    0.399029   -0.000237
      3          7           0       -0.574844   -0.461978    0.000016
      4          7           0       -1.635454    0.201062    0.000232
      5          1           0        1.709069   -1.092854    0.000085
      6          1           0        0.380824    1.474221   -0.000033
      7          1           0       -2.409664   -0.486619   -0.000975
 ---------------------------------------------------------------------

 SCF Done:  E(RB3LYP) =  -204.091299515     A.U. after    1 cycles

 The electronic state is 1-A.
 Alpha  occ. eigenvalues --  -14.41171 -14.40665 -14.34777 -10.26662  -1.05670
 Alpha  occ. eigenvalues --   -0.92653  -0.73587  -0.59869  -0.52355  -0.48525
 Alpha  occ. eigenvalues --   -0.43543  -0.41451  -0.33060  -0.30190  -0.25660
 Alpha virt. eigenvalues --   -0.09390   0.02454   0.09127   0.10792   0.14733
 Alpha virt. eigenvalues --    0.23817   0.34169   0.34589   0.52999   0.57662
 Alpha virt. eigenvalues --    0.58708   0.61583   0.66913   0.67438   0.70918

 Mulliken charges:
               1
     1  N   -0.455181
     2  C    0.284745
     3  N   -0.222717
     4  N   -0.244106
     5  H    0.246739
     6  H    0.125007
     7  H    0.265513
 Sum of Mulliken charges =  -0.00000

 Dipole moment (field-independent basis, Debye):
    X=             -1.7065    Y=             -0.9790    Z=             -0.0014  Tot=              1.9673
 Quadrupole moment (field-independent basis, Debye-Ang):
   XX=            -24.3628   YY=            -22.6010   ZZ=            -23.1012
   XY=              0.1777   XZ=              0.0037   YZ=             -0.0005

  Exact polarizability:  52.143  -3.329  27.488   0.006   0.002  13.665
 Approx polarizability:  88.956 -12.076  40.291   0.010   0.003  19.991

                      1                      2                      3
                      A                      A                      A
 Frequencies --    149.8304               384.4469               620.3100
 Red. masses --      5.4374                 3.4531                 5.1226
 Frc consts  --      0.0719                 0.3007                 1.1613
 IR Inten    --      0.9375                 3.1468                14.6463

                      4                      5                      6
                      A                      A                      A
 Frequencies --    754.6163               978.5354              1030.8353
 Red. masses --      1.2943                 3.3670                 1.4737
 Frc consts  --      0.4343                 1.8995                 0.9227
 IR Inten    --      0.2135                58.6298                70.6003

                      7                      8                      9
                      A                      A                      A
 Frequencies --   1126.5453              1240.5174              1383.4537
 Red. masses --      1.0850                 1.2818                 1.2343
 Frc consts  --      0.8113                 1.1622                 1.3918
 IR Inten    --     55.6390                47.6350                29.4600

                     10                     11                     12
                      A                      A                      A
 Frequencies --   1490.1312              1621.7134              1733.4398
 Red. masses --      1.3056                11.5539                 8.2413
 Frc consts  --      1.7081                17.9031                14.5903
 IR Inten    --     50.3885                 3.1054                29.3316

                     13                     14                     15
                      A                      A                      A
 Frequencies --   3129.5961              3282.0099              3420.3121
 Red. masses --      1.0932                 1.0747                 1.0728
 Frc consts  --      6.3086                 6.8203                 7.3947
 IR Inten    --     19.2676                12.2080                 0.0051

 - Thermochemistry -
 -------------------
 Temperature   298.150 Kelvin.  Pressure   1.00000 Atm.
 Atom     1 has atomic number  7 and mass  14.00307

 Molecular mass:    57.03270 amu.
 Principal axes and moments of inertia in atomic units:
                           1         2         3
     Eigenvalues --    32.70654 351.25864 383.96516
           X            1.00000  -0.00148   0.00003
           Y            0.00148   1.00000   0.00004
           Z           -0.00003  -0.00004   1.00000
 This molecule is an asymmetric top.
 Rotational symmetry number  1.
 Rotational temperatures (Kelvin)      2.64821     0.24658     0.22558
 Rotational constants (GHZ):          55.17982     5.13793     4.70027
 Zero-point vibrational energy     133660.5 (Joules/Mol)
                                   31.94563 (Kcal/Mol)
 Warning -- explicit consideration of   3 degrees of freedom as
           vibrations may cause significant error
 Vibrational temperatures:    215.57   553.13   892.49  1085.72  1407.89
          (Kelvin)           1483.14  1620.85  1784.83  1990.48  2143.96
                             2333.28  2494.03  4502.79  4722.07  4921.06

 Zero-point correction=                           0.050909 (Hartree/Particle)
 Thermal correction to Energy=                    0.055079
 Thermal correction to Enthalpy=                  0.056023
 Thermal correction to Gibbs Free Energy=         0.024794
 Sum of electronic and zero-point Energies=           -204.040391
 Sum of electronic and thermal Energies=              -204.036221
 Sum of electronic and thermal Enthalpies=            -204.035277
 Sum of electronic and thermal Free Energies=         -204.066506

                     E (Thermal)             CV                S
                      KCal/Mol        Cal/Mol-Kelvin    Cal/Mol-Kelvin
 Total                   34.562             12.540             65.727
 Electronic               0.000              0.000              0.000
 Translational            0.889              2.981             38.044
 Rotational               0.889              2.981             23.005
 Vibrational             32.785              6.578              4.678
 Vibration     1          0.618              1.903              2.674
 Vibration     2          0.753              1.503              1.022
 Vibration     3          0.980              0.989              0.416

 Optimization completed.
    -- Stationary point found.
 Normal termination of Gaussian 09 at Thu Sep  8 14:59:43 2022.
