 Gaussian 09, Revision E.01,
 Gaussian 09:  ES64L-G09RevE.01 30-Nov-2015

 ----------------------------
 #P OPT Freq B3LYP/6-31G(d,p)
 ----------------------------

 --------
 Frag_485
 --------
 Symbolic Z-matrix:
 Charge =  0 Multiplicity = 1

 SCF Done:  E(RB3LYP) =  -312.317831801     A.U. after   13 cycles
 SCF Done:  E(RB3LYP) =  -312.317859084     A.U. after    8 cycles
 SCF Done:  E(RB3LYP) =  -312.317861281     A.U. after    8 cycles
 SCF Done:  E(RB3LYP) =  -312.317862414     A.U. after    7 cycles
 SCF Done:  E(RB3LYP) =  -312.317862963     A.U. after    6 cycles
 SCF Done:  E(RB3LYP) =  -312.317863017     A.U. after    7 cycles
 Optimization completed.
    -- Stationary point found.
 Normal termination of Gaussian 09 at Thu Sep  8 14:58:35 2022.

 ----------------------------------------------------------------------
 #P Geom=AllCheck Guess=TCheck SCRF=Check GenChk RB3LYP/6-31G(d,p) Freq
 ----------------------------------------------------------------------

 Structure from the checkpoint file:  "B3LYP6-31Gdp.Frag_485.chk"
 --------
 Frag_485
 --------
 Charge =  0 Multiplicity = 1

                         Standard orientation:
 ---------------------------------------------------------------------
 Center     Atomic      Atomic             Coordinates (Angstroms)
 Number     Number       Type             X           Y           Z
 ---------------------------------------------------------------------
      1          6           0        1.546161    1.345203    0.101829
      2          6           0        0.851186    0.084418   -0.438304
      3          6           0        1.681240   -1.161324   -0.086556
      4          6           0       -0.649001   -0.040239   -0.021084
      5          6           0       -0.852862   -0.135529    1.499342
      6          6           0       -1.477613    1.115071   -0.594264
      7          8           0       -1.211140   -1.209626   -0.646932
      8          1           0        1.623017    1.327877    1.194786
      9          1           0        2.565650    1.413221   -0.292444
     10          1           0        1.024859    2.262942   -0.184009
     11          1           0        0.828866    0.155005   -1.534399
     12          1           0        1.246241   -2.073759   -0.506653
     13          1           0        1.786748   -1.294355    0.996178
     14          1           0        2.691301   -1.071259   -0.499146
     15          1           0       -0.315341   -0.990165    1.925935
     16          1           0       -1.916895   -0.266852    1.716327
     17          1           0       -0.507753    0.764485    2.016838
     18          1           0       -2.538170    0.932952   -0.400132
     19          1           0       -1.339143    1.182754   -1.677687
     20          1           0       -1.205224    2.073882   -0.146414
     21          1           0       -0.849710   -1.985323   -0.199499
 ---------------------------------------------------------------------

 SCF Done:  E(RB3LYP) =  -312.317863017     A.U. after    1 cycles

 The electronic state is 1-A.
 Alpha  occ. eigenvalues --  -19.13236 -10.23571 -10.18469 -10.17520 -10.17345
 Alpha  occ. eigenvalues --  -10.17334 -10.16662  -1.00734  -0.80188  -0.74383
 Alpha  occ. eigenvalues --   -0.68979  -0.67827  -0.61036  -0.54268  -0.49287
 Alpha  occ. eigenvalues --   -0.45066  -0.44599  -0.43337  -0.40557  -0.39245
 Alpha  occ. eigenvalues --   -0.38161  -0.37679  -0.37309  -0.35306  -0.34359
 Alpha  occ. eigenvalues --   -0.32976  -0.32299  -0.30518  -0.25665
 Alpha virt. eigenvalues --    0.06721   0.10413   0.12128   0.12691   0.13764
 Alpha virt. eigenvalues --    0.14645   0.15058   0.16405   0.16940   0.18807
 Alpha virt. eigenvalues --    0.19823   0.20728   0.21492   0.23160   0.24029

 Mulliken charges:
               1
     1  C   -0.320611
     2  C   -0.037419
     3  C   -0.334143
     4  C    0.267931
     5  C   -0.328236
     6  C   -0.304119
     7  O   -0.557525
     8  H    0.101017
     9  H    0.099974
    10  H    0.103252
    11  H    0.091860
    12  H    0.092593
    13  H    0.100791
    14  H    0.104781
    15  H    0.090562
    16  H    0.112136
    17  H    0.103737
    18  H    0.109425
    19  H    0.107817
    20  H    0.097341
    21  H    0.298836
 Sum of Mulliken charges =  -0.00000

 Dipole moment (field-independent basis, Debye):
    X=              1.0012    Y=              0.0510    Z=              1.0797  Tot=              1.4734
 Quadrupole moment (field-independent basis, Debye-Ang):
   XX=            -48.0847   YY=            -44.0930   ZZ=            -47.2651
   XY=             -1.2672   XZ=             -1.9450   YZ=             -1.6390

  Exact polarizability:  72.096  -1.266  69.052  -0.394  -0.874  63.597
 Approx polarizability:  93.698   0.281  95.069   1.320   0.247  91.553

                      1                      2                      3
                      A                      A                      A
 Frequencies --     54.5828               204.3653               236.3706
 Red. masses --      2.2568                 1.0470                 1.2570
 Frc consts  --      0.0040                 0.0258                 0.0414
 IR Inten    --      0.2272                 4.4500                 0.0692

                      4                      5                      6
                      A                      A                      A
 Frequencies --    245.0234               264.3228               275.9769
 Red. masses --      1.0905                 1.3108                 1.7261
 Frc consts  --      0.0386                 0.0540                 0.0775
 IR Inten    --      1.0845                 2.0524                26.6692

                      7                      8                      9
                      A                      A                      A
 Frequencies --    283.6858               313.7834               361.9188
 Red. masses --      2.1444                 1.3262                 2.1483
 Frc consts  --      0.1017                 0.0769                 0.1658
 IR Inten    --      0.2349                60.1438                13.7591

                     10                     11                     12
                      A                      A                      A
 Frequencies --    376.1943               409.5748               458.7558
 Red. masses --      1.8429                 2.5821                 2.4720
 Frc consts  --      0.1537                 0.2552                 0.3065
 IR Inten    --     11.4546                10.4175                 4.3539

                     13                     14                     15
                      A                      A                      A
 Frequencies --    483.5857               534.3259               695.9127
 Red. masses --      3.0537                 2.4327                 2.9069
 Frc consts  --      0.4208                 0.4092                 0.8295
 IR Inten    --      7.2903                 5.3759                 2.3309

                     16                     17                     18
                      A                      A                      A
 Frequencies --    861.6009               917.8043               931.1054
 Red. masses --      2.3962                 2.1032                 1.2377
 Frc consts  --      1.0480                 1.0438                 0.6322
 IR Inten    --      4.7184                11.0390                 0.5637

                     19                     20                     21
                      A                      A                      A
 Frequencies --    934.4497               958.5760               976.5671
 Red. masses --      1.4769                 1.7223                 1.6285
 Frc consts  --      0.7598                 0.9324                 0.9151
 IR Inten    --      0.0922                17.3036                11.3514

                     22                     23                     24
                      A                      A                      A
 Frequencies --   1010.4203              1060.8781              1124.3559
 Red. masses --      1.3030                 1.4937                 2.1413
 Frc consts  --      0.7838                 0.9905                 1.5949
 IR Inten    --      0.1431                21.7831                 9.9179

                     25                     26                     27
                      A                      A                      A
 Frequencies --   1149.6054              1192.7409              1214.3947
 Red. masses --      1.5633                 1.9535                 2.3640
 Frc consts  --      1.2173                 1.6374                 2.0541
 IR Inten    --     20.6647                30.1790                38.9895

                     28                     29                     30
                      A                      A                      A
 Frequencies --   1267.4847              1331.5809              1354.0654
 Red. masses --      2.6910                 1.4562                 1.3688
 Frc consts  --      2.5471                 1.5213                 1.4787
 IR Inten    --     12.3795                21.6919                 3.8493

                     31                     32                     33
                      A                      A                      A
 Frequencies --   1386.0782              1413.4076              1419.3969
 Red. masses --      1.3615                 1.2605                 1.4921
 Frc consts  --      1.5411                 1.4837                 1.7711
 IR Inten    --     12.4515                 7.9460                20.8979

                     34                     35                     36
                      A                      A                      A
 Frequencies --   1425.9276              1438.1553              1494.1891
 Red. masses --      1.2557                 1.2267                 1.0511
 Frc consts  --      1.5042                 1.4948                 1.3827
 IR Inten    --     13.7187                 3.1625                 1.2143

                     37                     38                     39
                      A                      A                      A
 Frequencies --   1499.3619              1504.5192              1517.0308
 Red. masses --      1.0490                 1.0491                 1.0524
 Frc consts  --      1.3894                 1.3991                 1.4270
 IR Inten    --      0.8340                 1.7118                 6.2125

                     40                     41                     42
                      A                      A                      A
 Frequencies --   1517.7653              1522.8166              1525.3196
 Red. masses --      1.0540                 1.0523                 1.0616
 Frc consts  --      1.4305                 1.4377                 1.4553
 IR Inten    --      1.7345                 3.9634                 2.1334

                     43                     44                     45
                      A                      A                      A
 Frequencies --   1532.6137              3028.5117              3039.1375
 Red. masses --      1.0437                 1.0832                 1.0367
 Frc consts  --      1.4444                 5.8535                 5.6415
 IR Inten    --      7.1746                15.8760                15.2785

                     46                     47                     48
                      A                      A                      A
 Frequencies --   3042.9729              3046.9828              3057.2656
 Red. masses --      1.0373                 1.0365                 1.0364
 Frc consts  --      5.6592                 5.6700                 5.7074
 IR Inten    --     17.5537                32.7213                 8.4803

                     49                     50                     51
                      A                      A                      A
 Frequencies --   3102.8838              3109.8049              3111.5768
 Red. masses --      1.1016                 1.1005                 1.1012
 Frc consts  --      6.2488                 6.2706                 6.2818
 IR Inten    --      6.5173                68.0797                34.2621

                     52                     53                     54
                      A                      A                      A
 Frequencies --   3113.6983              3123.5485              3127.7682
 Red. masses --      1.1004                 1.1014                 1.1024
 Frc consts  --      6.2858                 6.3313                 6.3544
 IR Inten    --     21.4213                23.6887                23.2674

                     55                     56                     57
                      A                      A                      A
 Frequencies --   3130.5333              3142.2394              3820.6679
 Red. masses --      1.1020                 1.1015                 1.0659
 Frc consts  --      6.3633                 6.4080                 9.1677
 IR Inten    --     33.4887                32.0498                 6.6111

 - Thermochemistry -
 -------------------
 Temperature   298.150 Kelvin.  Pressure   1.00000 Atm.
 Atom     1 has atomic number  6 and mass  12.00000

 Molecular mass:   102.10447 amu.
 Principal axes and moments of inertia in atomic units:
                           1         2         3
     Eigenvalues --   586.85229 828.94797 990.42233
           X            0.99829  -0.05682  -0.01339
           Y            0.05613   0.99730  -0.04726
           Z            0.01604   0.04643   0.99879
 This molecule is an asymmetric top.
 Rotational symmetry number  1.
 Warning -- assumption of classical behavior for rotation
           may cause significant error
 Rotational temperatures (Kelvin)      0.14759     0.10449     0.08745
 Rotational constants (GHZ):           3.07529     2.17715     1.82219
 Zero-point vibrational energy     506488.0 (Joules/Mol)
                                  121.05354 (Kcal/Mol)
 Warning -- explicit consideration of  14 degrees of freedom as
           vibrations may cause significant error
 Vibrational temperatures:     78.53   294.04   340.08   352.53   380.30
          (Kelvin)            397.07   408.16   451.46   520.72   541.26
                              589.29   660.05   695.77   768.77  1001.26
                             1239.65  1320.51  1339.65  1344.46  1379.18
                             1405.06  1453.77  1526.37  1617.70  1654.02
                             1716.09  1747.24  1823.63  1915.85  1948.20
                             1994.25  2033.58  2042.19  2051.59  2069.18
                             2149.80  2157.24  2164.66  2182.67  2183.72
                             2190.99  2194.59  2205.09  4357.35  4372.64
                             4378.15  4383.92  4398.72  4464.35  4474.31
                             4476.86  4479.91  4494.08  4500.16  4504.13
                             4520.98  5497.08

 Zero-point correction=                           0.192911 (Hartree/Particle)
 Thermal correction to Energy=                    0.202209
 Thermal correction to Enthalpy=                  0.203153
 Thermal correction to Gibbs Free Energy=         0.160090
 Sum of electronic and zero-point Energies=           -312.124952
 Sum of electronic and thermal Energies=              -312.115654
 Sum of electronic and thermal Enthalpies=            -312.114710
 Sum of electronic and thermal Free Energies=         -312.157773

                     E (Thermal)             CV                S
                      KCal/Mol        Cal/Mol-Kelvin    Cal/Mol-Kelvin
 Total                  126.888             35.149             90.635
 Electronic               0.000              0.000              0.000
 Translational            0.889              2.981             39.780
 Rotational               0.889              2.981             27.668
 Vibrational            125.111             29.187             23.187
 Vibration     1          0.596              1.976              4.644
 Vibration     2          0.640              1.834              2.093
 Vibration     3          0.655              1.785              1.830
 Vibration     4          0.660              1.771              1.766
 Vibration     5          0.671              1.738              1.633
 Vibration     6          0.678              1.718              1.558
 Vibration     7          0.682              1.704              1.511
 Vibration     8          0.702              1.647              1.342
 Vibration     9          0.736              1.551              1.114
 Vibration    10          0.747              1.521              1.054
 Vibration    11          0.774              1.449              0.928
 Vibration    12          0.817              1.342              0.770
 Vibration    13          0.840              1.286              0.700
 Vibration    14          0.889              1.174              0.578

 Normal termination of Gaussian 09 at Thu Sep  8 14:58:56 2022.
