 Gaussian 09, Revision E.01,
 Gaussian 09:  ES64L-G09RevE.01 30-Nov-2015

 ----------------------------
 #P OPT Freq B3LYP/6-31G(d,p)
 ----------------------------

 --------
 Frag_649
 --------
 Symbolic Z-matrix:
 Charge =  0 Multiplicity = 1

 SCF Done:  E(RB3LYP) =  -195.305653060     A.U. after   13 cycles
 SCF Done:  E(RB3LYP) =  -195.305732857     A.U. after    9 cycles
 SCF Done:  E(RB3LYP) =  -195.305733947     A.U. after    8 cycles
 SCF Done:  E(RB3LYP) =  -195.305722262     A.U. after   10 cycles
 SCF Done:  E(RB3LYP) =  -195.305733769     A.U. after    9 cycles
 SCF Done:  E(RB3LYP) =  -195.305734245     A.U. after    7 cycles
 Optimization completed.
    -- Stationary point found.
 Normal termination of Gaussian 09 at Thu Sep  8 14:57:16 2022.

 ----------------------------------------------------------------------
 #P Geom=AllCheck Guess=TCheck SCRF=Check GenChk RB3LYP/6-31G(d,p) Freq
 ----------------------------------------------------------------------

 Structure from the checkpoint file:  "B3LYP6-31Gdp.Frag_649.chk"
 --------
 Frag_649
 --------
 Charge =  0 Multiplicity = 1

                         Standard orientation:
 ---------------------------------------------------------------------
 Center     Atomic      Atomic             Coordinates (Angstroms)
 Number     Number       Type             X           Y           Z
 ---------------------------------------------------------------------
      1          6           0       -2.241821   -0.000046    0.000063
      2          6           0       -0.933967    0.000018   -0.000116
      3          6           0        0.377776    0.000004   -0.000163
      4          6           0        1.172841   -1.288809    0.000067
      5          6           0        1.172869    1.288797    0.000013
      6          1           0       -2.814049   -0.000237   -0.925889
      7          1           0       -2.813806    0.000508    0.926165
      8          1           0        0.522082   -2.165518    0.000159
      9          1           0        1.824304   -1.340920    0.881789
     10          1           0        1.824385   -1.341166   -0.881579
     11          1           0        1.824572    1.340998   -0.881526
     12          1           0        0.522133    2.165521   -0.000143
     13          1           0        1.824186    1.341030    0.881838
 ---------------------------------------------------------------------

 SCF Done:  E(RB3LYP) =  -195.305734245     A.U. after    1 cycles

 The electronic state is 1-A.
 Alpha  occ. eigenvalues --  -10.19775 -10.18683 -10.18352 -10.18351 -10.18199
 Alpha  occ. eigenvalues --   -0.80969  -0.73513  -0.69159  -0.62961  -0.48899
 Alpha  occ. eigenvalues --   -0.45052  -0.43807  -0.42168  -0.41896  -0.38587
 Alpha  occ. eigenvalues --   -0.37454  -0.35780  -0.25366  -0.23480
 Alpha virt. eigenvalues --    0.03047   0.03334   0.10320   0.13541   0.14982
 Alpha virt. eigenvalues --    0.16390   0.17252   0.18523   0.18987   0.21701
 Alpha virt. eigenvalues --    0.22275   0.29845   0.32742   0.40658   0.48303

 Mulliken charges:
               1
     1  C   -0.425381
     2  C    0.250782
     3  C   -0.064897
     4  C   -0.342196
     5  C   -0.342198
     6  H    0.116179
     7  H    0.116187
     8  H    0.118800
     9  H    0.113480
    10  H    0.113483
    11  H    0.113474
    12  H    0.118798
    13  H    0.113489
 Sum of Mulliken charges =  -0.00000

 Dipole moment (field-independent basis, Debye):
    X=              0.5914    Y=              0.0003    Z=              0.0003  Tot=              0.5914
 Quadrupole moment (field-independent basis, Debye-Ang):
   XX=            -29.3778   YY=            -31.7490   ZZ=            -31.4565
   XY=             -0.0008   XZ=             -0.0000   YZ=              0.0009

  Exact polarizability:  86.918   0.000  41.805  -0.001   0.002  37.627
 Approx polarizability: 130.111   0.002  52.152  -0.004   0.003  51.790

                      1                      2                      3
                      A                      A                      A
 Frequencies --    168.5272               182.2279               186.3592
 Red. masses --      1.0250                 1.1028                 3.0623
 Frc consts  --      0.0172                 0.0216                 0.0627
 IR Inten    --      0.0000                 1.1100                 0.0985

                      4                      5                      6
                      A                      A                      A
 Frequencies --    268.9329               340.4345               466.2671
 Red. masses --      2.1888                 2.2761                 2.8376
 Frc consts  --      0.0933                 0.1554                 0.3635
 IR Inten    --      3.7659                 0.1637                 0.3844

                      7                      8                      9
                      A                      A                      A
 Frequencies --    610.5693               614.8065               738.5232
 Red. masses --      4.8840                 1.0091                 3.7525
 Frc consts  --      1.0728                 0.2247                 1.2059
 IR Inten    --      7.7744                 0.0000                 0.0330

                     10                     11                     12
                      A                      A                      A
 Frequencies --    871.0403               970.3253              1006.8007
 Red. masses --      1.3222                 1.4168                 1.2320
 Frc consts  --      0.5910                 0.7860                 0.7358
 IR Inten    --     46.5255                 0.1971                 0.0000

                     13                     14                     15
                      A                      A                      A
 Frequencies --   1030.7710              1031.4525              1102.4723
 Red. masses --      1.4949                 1.5315                 1.5723
 Frc consts  --      0.9358                 0.9600                 1.1260
 IR Inten    --      0.3367                 7.4604                 0.3184

                     16                     17                     18
                      A                      A                      A
 Frequencies --   1215.4319              1326.2929              1410.0838
 Red. masses --      3.9871                 2.0413                 1.2508
 Frc consts  --      3.4703                 2.1156                 1.4653
 IR Inten    --      5.2085                18.1675                 1.6262

                     19                     20                     21
                      A                      A                      A
 Frequencies --   1425.8936              1487.1288              1488.3898
 Red. masses --      1.2349                 1.2232                 1.0463
 Frc consts  --      1.4793                 1.5938                 1.3657
 IR Inten    --      2.7109                 2.7560                 0.0000

                     22                     23                     24
                      A                      A                      A
 Frequencies --   1497.1455              1504.2266              1529.5767
 Red. masses --      1.0446                 1.0428                 1.2819
 Frc consts  --      1.3796                 1.3902                 1.7670
 IR Inten    --      5.6049                12.9098                 0.9013

                     25                     26                     27
                      A                      A                      A
 Frequencies --   2076.3308              3024.3138              3028.9996
 Red. masses --     10.2422                 1.0383                 1.0386
 Frc consts  --     26.0159                 5.5952                 5.6141
 IR Inten    --     21.9591                18.3880                62.3087

                     28                     29                     30
                      A                      A                      A
 Frequencies --   3076.5878              3078.4989              3125.2826
 Red. masses --      1.1011                 1.1006                 1.0580
 Frc consts  --      6.1407                 6.1452                 6.0884
 IR Inten    --      0.0005                52.6443                11.0693

                     31                     32                     33
                      A                      A                      A
 Frequencies --   3139.8448              3140.6641              3195.9056
 Red. masses --      1.0993                 1.0995                 1.1151
 Frc consts  --      6.3853                 6.3901                 6.7107
 IR Inten    --     19.2118                17.7125                 8.0754

 - Thermochemistry -
 -------------------
 Temperature   298.150 Kelvin.  Pressure   1.00000 Atm.
 Atom     1 has atomic number  6 and mass  12.00000

 Molecular mass:    68.06260 amu.
 Principal axes and moments of inertia in atomic units:
                           1         2         3
     Eigenvalues --   219.36571 500.61421 685.25300
           X            1.00000  -0.00001   0.00000
           Y            0.00001   1.00000   0.00001
           Z           -0.00000  -0.00001   1.00000
 This molecule is an asymmetric top.
 Rotational symmetry number  1.
 Rotational temperatures (Kelvin)      0.39484     0.17302     0.12640
 Rotational constants (GHZ):           8.22709     3.60505     2.63369
 Zero-point vibrational energy     295239.0 (Joules/Mol)
                                   70.56382 (Kcal/Mol)
 Warning -- explicit consideration of   8 degrees of freedom as
           vibrations may cause significant error
 Vibrational temperatures:    242.47   262.19   268.13   386.93   489.81
          (Kelvin)            670.85   878.47   884.57  1062.57  1253.23
                             1396.08  1448.56  1483.05  1484.03  1586.21
                             1748.73  1908.24  2028.79  2051.54  2139.64
                             2141.46  2154.06  2164.24  2200.72  2987.37
                             4351.31  4358.05  4426.52  4429.27  4496.58
                             4517.53  4518.71  4598.19

 Zero-point correction=                           0.112451 (Hartree/Particle)
 Thermal correction to Energy=                    0.118845
 Thermal correction to Enthalpy=                  0.119790
 Thermal correction to Gibbs Free Energy=         0.083284
 Sum of electronic and zero-point Energies=           -195.193284
 Sum of electronic and thermal Energies=              -195.186889
 Sum of electronic and thermal Enthalpies=            -195.185945
 Sum of electronic and thermal Free Energies=         -195.222451

                     E (Thermal)             CV                S
                      KCal/Mol        Cal/Mol-Kelvin    Cal/Mol-Kelvin
 Total                   74.577             22.184             76.833
 Electronic               0.000              0.000              0.000
 Translational            0.889              2.981             38.571
 Rotational               0.889              2.981             25.823
 Vibrational             72.799             16.222             12.439
 Vibration     1          0.625              1.881              2.452
 Vibration     2          0.630              1.864              2.305
 Vibration     3          0.632              1.859              2.264
 Vibration     4          0.673              1.730              1.603
 Vibration     5          0.720              1.595              1.210
 Vibration     6          0.824              1.325              0.748
 Vibration     7          0.970              1.009              0.432
 Vibration     8          0.974              1.001              0.425

 Optimization completed.
    -- Stationary point found.
 Normal termination of Gaussian 09 at Thu Sep  8 14:57:25 2022.
