 Gaussian 09, Revision E.01,
 Gaussian 09:  ES64L-G09RevE.01 30-Nov-2015

 ----------------------------
 #P OPT Freq B3LYP/6-31G(d,p)
 ----------------------------

 --------
 Frag_874
 --------
 Symbolic Z-matrix:
 Charge =  0 Multiplicity = 1

 SCF Done:  E(RB3LYP) =  -285.131129822     A.U. after   12 cycles
 SCF Done:  E(RB3LYP) =  -285.131161356     A.U. after    8 cycles
 SCF Done:  E(RB3LYP) =  -285.131166052     A.U. after    8 cycles
 SCF Done:  E(RB3LYP) =  -285.131167881     A.U. after    7 cycles
 Optimization completed.
    -- Stationary point found.
 Normal termination of Gaussian 09 at Thu Sep  8 15:02:51 2022.

 ----------------------------------------------------------------------
 #P Geom=AllCheck Guess=TCheck SCRF=Check GenChk RB3LYP/6-31G(d,p) Freq
 ----------------------------------------------------------------------

 Structure from the checkpoint file:  "B3LYP6-31Gdp.Frag_874.chk"
 --------
 Frag_874
 --------
 Charge =  0 Multiplicity = 1

                         Standard orientation:
 ---------------------------------------------------------------------
 Center     Atomic      Atomic             Coordinates (Angstroms)
 Number     Number       Type             X           Y           Z
 ---------------------------------------------------------------------
      1          6           0        1.670560   -0.779711   -0.528973
      2          7           0        0.649677    0.254029   -0.396449
      3          6           0        0.963904    1.187147    0.688771
      4          7           0       -0.631267   -0.366683   -0.289119
      5          6           0       -1.684231    0.540350   -0.725824
      6          7           0       -0.867722   -0.915077    1.014836
      7          1           0        2.634856   -0.301179   -0.728877
      8          1           0        1.767312   -1.402460    0.374738
      9          1           0        1.412660   -1.422593   -1.373326
     10          1           0        1.904994    1.691526    0.450736
     11          1           0        1.068026    0.694972    1.668232
     12          1           0        0.189414    1.957041    0.760324
     13          1           0       -1.852812    1.389371   -0.037407
     14          1           0       -1.423592    0.936428   -1.708926
     15          1           0       -2.621367   -0.019916   -0.802706
     16          1           0       -1.431103   -1.752042    0.892920
     17          1           0       -1.404605   -0.263744    1.595573
 ---------------------------------------------------------------------

 SCF Done:  E(RB3LYP) =  -285.131167881     A.U. after    1 cycles

 The electronic state is 1-A.
 Alpha  occ. eigenvalues --  -14.36690 -14.33805 -14.33764 -10.20102 -10.19239
 Alpha  occ. eigenvalues --  -10.18536  -0.99751  -0.87180  -0.76976  -0.69595
 Alpha  occ. eigenvalues --   -0.66303  -0.57490  -0.49990  -0.48821  -0.47489
 Alpha  occ. eigenvalues --   -0.43933  -0.42357  -0.40305  -0.39301  -0.37691
 Alpha  occ. eigenvalues --   -0.36150  -0.35480  -0.25293  -0.22563  -0.21270
 Alpha virt. eigenvalues --    0.07348   0.11915   0.12785   0.14158   0.15010
 Alpha virt. eigenvalues --    0.16202   0.16883   0.17017   0.18341   0.19200
 Alpha virt. eigenvalues --    0.19571   0.20513   0.22031   0.25754   0.27205

 Mulliken charges:
               1
     1  C   -0.138919
     2  N   -0.277455
     3  C   -0.172423
     4  N   -0.216764
     5  C   -0.143678
     6  N   -0.451530
     7  H    0.095043
     8  H    0.097806
     9  H    0.110696
    10  H    0.108728
    11  H    0.103216
    12  H    0.098446
    13  H    0.074537
    14  H    0.128144
    15  H    0.101728
    16  H    0.257596
    17  H    0.224829
 Sum of Mulliken charges =  -0.00000

 Dipole moment (field-independent basis, Debye):
    X=             -1.2830    Y=              0.4058    Z=              0.7735  Tot=              1.5522
 Quadrupole moment (field-independent basis, Debye-Ang):
   XX=            -34.2238   YY=            -38.1302   ZZ=            -39.9504
   XY=              1.0260   XZ=             -1.4427   YZ=              0.7908

  Exact polarizability:  62.696   0.970  54.314  -1.374   0.063  51.841
 Approx polarizability:  78.181   2.220  74.625  -2.962  -0.554  73.590

                      1                      2                      3
                      A                      A                      A
 Frequencies --    124.6200               233.3329               248.8478
 Red. masses --      2.5857                 1.1249                 1.1451
 Frc consts  --      0.0237                 0.0361                 0.0418
 IR Inten    --      1.0783                 2.0596                 2.6672

                      4                      5                      6
                      A                      A                      A
 Frequencies --    254.7434               289.6349               300.6858
 Red. masses --      1.0836                 2.0371                 2.1423
 Frc consts  --      0.0414                 0.1007                 0.1141
 IR Inten    --      1.9342                11.9691                 5.3279

                      7                      8                      9
                      A                      A                      A
 Frequencies --    345.0641               374.6007               450.6272
 Red. masses --      1.1572                 2.3368                 2.2012
 Frc consts  --      0.0812                 0.1932                 0.2634
 IR Inten    --     31.1620                 0.4686                 3.7577

                     10                     11                     12
                      A                      A                      A
 Frequencies --    524.1282               588.4167               744.1437
 Red. masses --      2.9932                 3.2888                 4.5277
 Frc consts  --      0.4845                 0.6709                 1.4772
 IR Inten    --      6.6127                 5.0542                 8.8833

                     13                     14                     15
                      A                      A                      A
 Frequencies --    820.3437               948.3482              1036.7235
 Red. masses --      2.8083                 2.5402                 1.6534
 Frc consts  --      1.1135                 1.3460                 1.0470
 IR Inten    --     91.9960                 5.2672                11.3416

                     16                     17                     18
                      A                      A                      A
 Frequencies --   1040.5565              1110.0453              1136.1415
 Red. masses --      1.4652                 1.2309                 1.6813
 Frc consts  --      0.9347                 0.8936                 1.2787
 IR Inten    --     41.6985                 2.5145                 6.0739

                     19                     20                     21
                      A                      A                      A
 Frequencies --   1169.1834              1200.6733              1224.3814
 Red. masses --      1.9703                 1.9323                 1.8830
 Frc consts  --      1.5869                 1.6413                 1.6632
 IR Inten    --      4.6080                 4.6255                14.2310

                     22                     23                     24
                      A                      A                      A
 Frequencies --   1253.4645              1283.3721              1307.9826
 Red. masses --      2.6731                 2.1176                 1.4080
 Frc consts  --      2.4745                 2.0549                 1.4192
 IR Inten    --      4.9916                 5.8604                 4.1790

                     25                     26                     27
                      A                      A                      A
 Frequencies --   1433.5456              1450.4471              1463.6251
 Red. masses --      1.1715                 1.1794                 1.1782
 Frc consts  --      1.4184                 1.4619                 1.4871
 IR Inten    --      0.2747                 0.5368                 0.5921

                     28                     29                     30
                      A                      A                      A
 Frequencies --   1486.2457              1500.6292              1507.6407
 Red. masses --      1.0512                 1.0577                 1.0523
 Frc consts  --      1.3680                 1.4034                 1.4093
 IR Inten    --      7.0884                12.7684                 7.8886

                     31                     32                     33
                      A                      A                      A
 Frequencies --   1511.6464              1521.4330              1533.6490
 Red. masses --      1.0494                 1.0485                 1.0503
 Frc consts  --      1.4128                 1.4299                 1.4555
 IR Inten    --      1.0453                 0.7563                 5.8416

                     34                     35                     36
                      A                      A                      A
 Frequencies --   1669.2005              2946.8945              2990.6417
 Red. masses --      1.0817                 1.0591                 1.0491
 Frc consts  --      1.7757                 5.4191                 5.5284
 IR Inten    --     11.0591                69.9683                47.8452

                     37                     38                     39
                      A                      A                      A
 Frequencies --   2999.0516              3081.6208              3084.2348
 Red. masses --      1.0495                 1.0758                 1.0855
 Frc consts  --      5.5614                 6.0190                 6.0839
 IR Inten    --     60.4461                41.5907                20.4020

                     40                     41                     42
                      A                      A                      A
 Frequencies --   3086.7964              3119.7696              3137.6271
 Red. masses --      1.0850                 1.1028                 1.1019
 Frc consts  --      6.0912                 6.3238                 6.3913
 IR Inten    --     46.6329                30.6910                26.0046

                     43                     44                     45
                      A                      A                      A
 Frequencies --   3147.7036              3390.8942              3553.2199
 Red. masses --      1.1011                 1.0555                 1.0861
 Frc consts  --      6.4277                 7.1507                 8.0791
 IR Inten    --     17.8909                15.7314                 0.2920

 - Thermochemistry -
 -------------------
 Temperature   298.150 Kelvin.  Pressure   1.00000 Atm.
 Atom     1 has atomic number  6 and mass  12.00000

 Molecular mass:    89.09530 amu.
 Principal axes and moments of inertia in atomic units:
                           1         2         3
     Eigenvalues --   377.69767 644.12142 692.37229
           X            0.99964  -0.02640   0.00530
           Y            0.02569   0.99399   0.10646
           Z           -0.00808  -0.10628   0.99430
 This molecule is an asymmetric top.
 Rotational symmetry number  1.
 Rotational temperatures (Kelvin)      0.22932     0.13447     0.12510
 Rotational constants (GHZ):           4.77827     2.80186     2.60661
 Zero-point vibrational energy     404496.8 (Joules/Mol)
                                   96.67705 (Kcal/Mol)
 Warning -- explicit consideration of  11 degrees of freedom as
           vibrations may cause significant error
 Vibrational temperatures:    179.30   335.71   358.04   366.52   416.72
          (Kelvin)            432.62   496.47   538.97   648.35   754.10
                              846.60  1070.66  1180.29  1364.46  1491.61
                             1497.13  1597.11  1634.65  1682.19  1727.50
                             1761.61  1803.45  1846.48  1881.89  2062.55
                             2086.87  2105.83  2138.37  2159.07  2169.16
                             2174.92  2189.00  2206.58  2401.60  4239.92
                             4302.86  4314.96  4433.76  4437.52  4441.21
                             4488.65  4514.34  4528.84  4878.73  5112.28

 Zero-point correction=                           0.154065 (Hartree/Particle)
 Thermal correction to Energy=                    0.161714
 Thermal correction to Enthalpy=                  0.162658
 Thermal correction to Gibbs Free Energy=         0.123466
 Sum of electronic and zero-point Energies=           -284.977103
 Sum of electronic and thermal Energies=              -284.969454
 Sum of electronic and thermal Enthalpies=            -284.968510
 Sum of electronic and thermal Free Energies=         -285.007702

                     E (Thermal)             CV                S
                      KCal/Mol        Cal/Mol-Kelvin    Cal/Mol-Kelvin
 Total                  101.477             28.123             82.488
 Electronic               0.000              0.000              0.000
 Translational            0.889              2.981             39.374
 Rotational               0.889              2.981             26.624
 Vibrational             99.700             22.161             16.490
 Vibration     1          0.610              1.928              3.027
 Vibration     2          0.654              1.790              1.853
 Vibration     3          0.662              1.765              1.739
 Vibration     4          0.665              1.755              1.698
 Vibration     5          0.686              1.693              1.476
 Vibration     6          0.693              1.672              1.413
 Vibration     7          0.723              1.585              1.189
 Vibration     8          0.746              1.524              1.061
 Vibration     9          0.809              1.360              0.794
 Vibration    10          0.879              1.197              0.600
 Vibration    11          0.946              1.056              0.470

 Optimization completed.
    -- Stationary point found.
 Normal termination of Gaussian 09 at Thu Sep  8 15:03:07 2022.
