 Gaussian 09, Revision E.01,
 Gaussian 09:  ES64L-G09RevE.01 30-Nov-2015

 --------------------------------
 #P OPT=calcfc Freq B3LYP/6-31G**
 --------------------------------

 --------
 Frag_372
 --------
 Symbolic Z-matrix:
 Charge =  0 Multiplicity = 1

 SCF Done:  E(RB3LYP) =  -225.104033369     A.U. after   14 cycles
 SCF Done:  E(RB3LYP) =  -225.117446264     A.U. after   13 cycles
 SCF Done:  E(RB3LYP) =  -225.117696186     A.U. after   11 cycles
 SCF Done:  E(RB3LYP) =  -225.117706285     A.U. after    9 cycles
 SCF Done:  E(RB3LYP) =  -225.117706754     A.U. after    8 cycles
 Optimization completed.
    -- Stationary point found.
 Normal termination of Gaussian 09 at Fri Sep 10 20:12:22 2021.

 ----------------------------------------------------------------------
 #P Geom=AllCheck Guess=TCheck SCRF=Check GenChk RB3LYP/6-31G(d,p) Freq
 ----------------------------------------------------------------------

 Structure from the checkpoint file:  "/public/home/users/caep010/.cache/gau_scr/Gau-105718.chk"
 --------
 Frag_372
 --------
 Charge =  0 Multiplicity = 1

                         Standard orientation:
 ---------------------------------------------------------------------
 Center     Atomic      Atomic             Coordinates (Angstroms)
 Number     Number       Type             X           Y           Z
 ---------------------------------------------------------------------
      1          6           0        1.732672    0.036819   -0.000003
      2          7           0        0.565582   -0.474089    0.000001
      3          8           0       -0.420338    0.535181    0.000007
      4          7           0       -1.713933   -0.045316    0.000001
      5          1           0        1.911823    1.112455   -0.000006
      6          1           0        2.570056   -0.653811   -0.000003
      7          1           0       -1.738384   -0.662560   -0.815390
      8          1           0       -1.738378   -0.662616    0.815349
 ---------------------------------------------------------------------

 SCF Done:  E(RB3LYP) =  -225.117706754     A.U. after    1 cycles

 The electronic state is 1-A.
 Alpha  occ. eigenvalues --  -19.21673 -14.39521 -14.37570 -10.22997  -1.11044
 Alpha  occ. eigenvalues --   -0.91088  -0.77875  -0.61466  -0.52940  -0.51397
 Alpha  occ. eigenvalues --   -0.47349  -0.41952  -0.39023  -0.29663  -0.27329
 Alpha  occ. eigenvalues --   -0.26491
 Alpha virt. eigenvalues --   -0.01486   0.07903   0.08448   0.12214   0.15692
 Alpha virt. eigenvalues --    0.16123   0.21213   0.27894   0.53786   0.56894
 Alpha virt. eigenvalues --    0.62823   0.64415   0.67321   0.69544   0.69968

 Mulliken charges:
               1
     1  C   -0.036751
     2  N   -0.113208
     3  O   -0.306682
     4  N   -0.306341
     5  H    0.123354
     6  H    0.128208
     7  H    0.255710
     8  H    0.255710
 Sum of Mulliken charges =  -0.00000

 Dipole moment (field-independent basis, Debye):
    X=              1.2943    Y=             -1.2114    Z=             -0.0001  Tot=              1.7728
 Quadrupole moment (field-independent basis, Debye-Ang):
   XX=            -20.1155   YY=            -24.1445   ZZ=            -22.7923
   XY=              4.1165   XZ=              0.0001   YZ=             -0.0000

  Exact polarizability:  50.025   3.445  24.798   0.000  -0.000  17.946
 Approx polarizability:  70.464   4.920  36.522  -0.000  -0.000  24.675

                      1                      2                      3
                      A                      A                      A
 Frequencies --    130.5818               263.0679               354.9474
 Red. masses --      3.4041                 1.2115                 2.8505
 Frc consts  --      0.0342                 0.0494                 0.2116
 IR Inten    --     19.7613                47.9438                14.1585

                      4                      5                      6
                      A                      A                      A
 Frequencies --    580.1355               789.7248               831.2667
 Red. masses --      3.5075                 1.1992                 5.6188
 Frc consts  --      0.6955                 0.4406                 2.2876
 IR Inten    --     11.1252                 1.5066                80.8228

                      7                      8                      9
                      A                      A                      A
 Frequencies --    921.6864               975.9006              1191.4104
 Red. masses --      4.4617                 1.3700                 1.5620
 Frc consts  --      2.2331                 0.7687                 1.3064
 IR Inten    --     14.5430                31.4840                61.7220

                     10                     11                     12
                      A                      A                      A
 Frequencies --   1253.1674              1348.7105              1439.0236
 Red. masses --      1.7245                 1.1204                 1.1687
 Frc consts  --      1.5956                 1.2008                 1.4259
 IR Inten    --     43.5710                 1.9804                 5.4755

                     13                     14                     15
                      A                      A                      A
 Frequencies --   1669.5356              1706.0897              3119.5235
 Red. masses --      1.1455                 4.1480                 1.0578
 Frc consts  --      1.8813                 7.1136                 6.0648
 IR Inten    --     32.3511                 0.3662                 4.8633

                     16                     17                     18
                      A                      A                      A
 Frequencies --   3241.1837              3405.9401              3502.7435
 Red. masses --      1.1175                 1.0461                 1.0962
 Frc consts  --      6.9168                 7.1501                 7.9245
 IR Inten    --      5.6376                 7.8384                 0.6119

 - Thermochemistry -
 -------------------
 Temperature   298.150 Kelvin.  Pressure   1.00000 Atm.
 Atom     1 has atomic number  6 and mass  12.00000

 Molecular mass:    60.03236 amu.
 Principal axes and moments of inertia in atomic units:
                           1         2         3
     Eigenvalues --    41.36432 365.32941 397.12287
           X            0.99955   0.02993   0.00000
           Y           -0.02993   0.99955  -0.00000
           Z           -0.00000   0.00000   1.00000
 This molecule is an asymmetric top.
 Rotational symmetry number  1.
 Rotational temperatures (Kelvin)      2.09393     0.23708     0.21810
 Rotational constants (GHZ):          43.63038     4.94004     4.54454
 Zero-point vibrational energy     159848.8 (Joules/Mol)
                                   38.20479 (Kcal/Mol)
 Warning -- explicit consideration of   4 degrees of freedom as
           vibrations may cause significant error
 Vibrational temperatures:    187.88   378.50   510.69   834.68  1136.24
          (Kelvin)           1196.01  1326.10  1404.10  1714.17  1803.03
                             1940.49  2070.43  2402.09  2454.68  4488.29
                             4663.33  4900.38  5039.66

 Zero-point correction=                           0.060883 (Hartree/Particle)
 Thermal correction to Energy=                    0.065681
 Thermal correction to Enthalpy=                  0.066625
 Thermal correction to Gibbs Free Energy=         0.034093
 Sum of electronic and zero-point Energies=           -225.056824
 Sum of electronic and thermal Energies=              -225.052025
 Sum of electronic and thermal Enthalpies=            -225.051081
 Sum of electronic and thermal Free Energies=         -225.083614

                     E (Thermal)             CV                S
                      KCal/Mol        Cal/Mol-Kelvin    Cal/Mol-Kelvin
 Total                   41.216             15.087             68.470
 Electronic               0.000              0.000              0.000
 Translational            0.889              2.981             38.197
 Rotational               0.889              2.981             23.311
 Vibrational             39.438              9.125              6.962
 Vibration     1          0.612              1.923              2.937
 Vibration     2          0.670              1.741              1.641
 Vibration     3          0.731              1.565              1.144
 Vibration     4          0.937              1.074              0.485

 Optimization completed.
    -- Stationary point found.
 Normal termination of Gaussian 09 at Fri Sep 10 20:12:28 2021.
