 Gaussian 09, Revision E.01,
 Gaussian 09:  ES64L-G09RevE.01 30-Nov-2015

 ----------------------------
 #P OPT Freq B3LYP/6-31G(d,p)
 ----------------------------

 --------
 Frag_793
 --------
 Symbolic Z-matrix:
 Charge =  0 Multiplicity = 1

 SCF Done:  E(RB3LYP) =  -246.210290533     A.U. after   12 cycles
 SCF Done:  E(RB3LYP) =  -246.210348900     A.U. after    9 cycles
 SCF Done:  E(RB3LYP) =  -246.210355591     A.U. after    8 cycles
 SCF Done:  E(RB3LYP) =  -246.210357736     A.U. after    7 cycles
 Optimization completed.
    -- Stationary point found.
 Normal termination of Gaussian 09 at Thu Sep  8 15:05:05 2022.

 ----------------------------------------------------------------------
 #P Geom=AllCheck Guess=TCheck SCRF=Check GenChk RB3LYP/6-31G(d,p) Freq
 ----------------------------------------------------------------------

 Structure from the checkpoint file:  "B3LYP6-31Gdp.Frag_793.chk"
 --------
 Frag_793
 --------
 Charge =  0 Multiplicity = 1

                         Standard orientation:
 ---------------------------------------------------------------------
 Center     Atomic      Atomic             Coordinates (Angstroms)
 Number     Number       Type             X           Y           Z
 ---------------------------------------------------------------------
      1          6           0        1.335473    0.000001    0.047991
      2          7           0       -0.047357   -0.000000   -0.433541
      3          8           0       -0.633051   -1.149211    0.199430
      4          8           0       -0.633054    1.149210    0.199431
      5          1           0        1.371753    0.000001    1.143823
      6          1           0        1.825234   -0.893956   -0.340787
      7          1           0        1.825232    0.893959   -0.340786
      8          1           0       -1.287357   -1.437559   -0.453147
      9          1           0       -1.287357    1.437559   -0.453148
 ---------------------------------------------------------------------

 SCF Done:  E(RB3LYP) =  -246.210357736     A.U. after    1 cycles

 The electronic state is 1-A.
 Alpha  occ. eigenvalues --  -19.17143 -19.17142 -14.42856 -10.20408  -1.09925
 Alpha  occ. eigenvalues --   -0.99942  -0.80750  -0.64080  -0.53124  -0.50328
 Alpha  occ. eigenvalues --   -0.45832  -0.40263  -0.39260  -0.39256  -0.32418
 Alpha  occ. eigenvalues --   -0.28231  -0.24198
 Alpha virt. eigenvalues --    0.06527   0.09587   0.11403   0.14467   0.15189
 Alpha virt. eigenvalues --    0.17910   0.18418   0.20770   0.54344   0.57913
 Alpha virt. eigenvalues --    0.58018   0.69992   0.70194   0.75631   0.78421

 Mulliken charges:
               1
     1  C   -0.117295
     2  N   -0.067104
     3  O   -0.407458
     4  O   -0.407458
     5  H    0.121573
     6  H    0.120909
     7  H    0.120909
     8  H    0.317962
     9  H    0.317962
 Sum of Mulliken charges =  -0.00000

 Dipole moment (field-independent basis, Debye):
    X=             -0.4973    Y=              0.0000    Z=             -1.6436  Tot=              1.7171
 Quadrupole moment (field-independent basis, Debye-Ang):
   XX=            -18.7295   YY=            -23.1290   ZZ=            -25.1524
   XY=              0.0000   XZ=              2.8399   YZ=             -0.0000

  Exact polarizability:  30.874  -0.000  31.545   1.883  -0.000  22.189
 Approx polarizability:  37.735  -0.000  44.692   2.083  -0.000  31.534

                      1                      2                      3
                      A                      A                      A
 Frequencies --    240.4879               268.9787               381.6465
 Red. masses --      1.1506                 1.0811                 1.2431
 Frc consts  --      0.0392                 0.0461                 0.1067
 IR Inten    --     39.5378                 7.1729               136.6502

                      4                      5                      6
                      A                      A                      A
 Frequencies --    444.5229               484.4485               553.1382
 Red. masses --      2.5576                 2.5480                 5.7000
 Frc consts  --      0.2978                 0.3523                 1.0275
 IR Inten    --     13.0993                 0.2093                 0.9886

                      7                      8                      9
                      A                      A                      A
 Frequencies --    832.0695               857.5951              1078.8695
 Red. masses --      6.2624                 5.1231                 4.8694
 Frc consts  --      2.5545                 2.2200                 3.3394
 IR Inten    --    144.8945                23.3404                29.2427

                     10                     11                     12
                      A                      A                      A
 Frequencies --   1154.1985              1173.2377              1335.3454
 Red. masses --      1.3949                 1.5510                 1.0936
 Frc consts  --      1.0949                 1.2578                 1.1489
 IR Inten    --      2.3250                11.8027                80.0709

                     13                     14                     15
                      A                      A                      A
 Frequencies --   1433.5498              1442.5189              1493.9192
 Red. masses --      1.3552                 1.2010                 1.0491
 Frc consts  --      1.6408                 1.4724                 1.3795
 IR Inten    --     29.8153                 0.1791                 2.2547

                     16                     17                     18
                      A                      A                      A
 Frequencies --   1502.2529              3046.1365              3137.4436
 Red. masses --      1.0431                 1.0386                 1.0962
 Frc consts  --      1.3869                 5.6782                 6.3574
 IR Inten    --      1.9688                23.3844                19.0384

                     19                     20                     21
                      A                      A                      A
 Frequencies --   3170.2255              3790.3550              3790.4114
 Red. masses --      1.1063                 1.0677                 1.0681
 Frc consts  --      6.5512                 9.0380                 9.0414
 IR Inten    --     14.6274                15.8650                37.4974

 - Thermochemistry -
 -------------------
 Temperature   298.150 Kelvin.  Pressure   1.00000 Atm.
 Atom     1 has atomic number  6 and mass  12.00000

 Molecular mass:    63.03203 amu.
 Principal axes and moments of inertia in atomic units:
                           1         2         3
     Eigenvalues --   185.72316 192.36322 336.35927
           X           -0.00000   0.99934   0.03628
           Y            1.00000   0.00000  -0.00000
           Z            0.00000  -0.03628   0.99934
 This molecule is an asymmetric top.
 Rotational symmetry number  1.
 Rotational temperatures (Kelvin)      0.46636     0.45026     0.25750
 Rotational constants (GHZ):           9.71737     9.38195     5.36552
 Zero-point vibrational energy     189077.9 (Joules/Mol)
                                   45.19069 (Kcal/Mol)
 Warning -- explicit consideration of   6 degrees of freedom as
           vibrations may cause significant error
 Vibrational temperatures:    346.01   387.00   549.10   639.57   697.01
          (Kelvin)            795.84  1197.16  1233.89  1552.25  1660.63
                             1688.03  1921.26  2062.56  2075.46  2149.41
                             2161.40  4382.71  4514.08  4561.24  5453.47
                             5453.55

 Zero-point correction=                           0.072016 (Hartree/Particle)
 Thermal correction to Energy=                    0.077060
 Thermal correction to Enthalpy=                  0.078004
 Thermal correction to Gibbs Free Energy=         0.045022
 Sum of electronic and zero-point Energies=           -246.138342
 Sum of electronic and thermal Energies=              -246.133298
 Sum of electronic and thermal Enthalpies=            -246.132354
 Sum of electronic and thermal Free Energies=         -246.165336

                     E (Thermal)             CV                S
                      KCal/Mol        Cal/Mol-Kelvin    Cal/Mol-Kelvin
 Total                   48.356             17.157             69.416
 Electronic               0.000              0.000              0.000
 Translational            0.889              2.981             38.342
 Rotational               0.889              2.981             24.000
 Vibrational             46.578             11.195              7.073
 Vibration     1          0.658              1.778              1.799
 Vibration     2          0.673              1.730              1.603
 Vibration     3          0.751              1.509              1.033
 Vibration     4          0.804              1.373              0.813
 Vibration     5          0.841              1.285              0.698
 Vibration     6          0.909              1.133              0.538

 Optimization completed.
    -- Stationary point found.
 Normal termination of Gaussian 09 at Thu Sep  8 15:05:12 2022.
