 Gaussian 09, Revision E.01,
 Gaussian 09:  ES64L-G09RevE.01 30-Nov-2015

 --------------------------------
 #P OPT=calcfc Freq B3LYP/6-31G**
 --------------------------------

 --------
 Frag_211
 --------
 Symbolic Z-matrix:
 Charge =  0 Multiplicity = 1

 SCF Done:  E(RB3LYP) =  -282.755306767     A.U. after   15 cycles
 SCF Done:  E(RB3LYP) =  -282.776956775     A.U. after   14 cycles
 SCF Done:  E(RB3LYP) =  -282.778090275     A.U. after   13 cycles
 SCF Done:  E(RB3LYP) =  -282.767035441     A.U. after   13 cycles
 SCF Done:  E(RB3LYP) =  -282.774055464     A.U. after   12 cycles
 SCF Done:  E(RB3LYP) =  -282.777818552     A.U. after   12 cycles
 SCF Done:  E(RB3LYP) =  -282.778290324     A.U. after   11 cycles
 SCF Done:  E(RB3LYP) =  -282.778450161     A.U. after   14 cycles
 SCF Done:  E(RB3LYP) =  -282.769738933     A.U. after   14 cycles
 SCF Done:  E(RB3LYP) =  -282.778654628     A.U. after   11 cycles
 SCF Done:  E(RB3LYP) =  -282.779574223     A.U. after   12 cycles
 SCF Done:  E(RB3LYP) =  -282.779767189     A.U. after   13 cycles
 SCF Done:  E(RB3LYP) =  -282.779795449     A.U. after   11 cycles
 SCF Done:  E(RB3LYP) =  -282.779843498     A.U. after   11 cycles
 SCF Done:  E(RB3LYP) =  -282.779844756     A.U. after    9 cycles
 SCF Done:  E(RB3LYP) =  -282.779844799     A.U. after    7 cycles
 Optimization completed.
    -- Stationary point found.
 Normal termination of Gaussian 09 at Sat Aug 21 02:20:48 2021.

 ----------------------------------------------------------------------
 #P Geom=AllCheck Guess=TCheck SCRF=Check GenChk RB3LYP/6-31G(d,p) Freq
 ----------------------------------------------------------------------

 Structure from the checkpoint file:  "/public/home/users/caep010/.cache/gau_scr/Gau-47055.chk"
 --------
 Frag_211
 --------
 Charge =  0 Multiplicity = 1

                         Standard orientation:
 ---------------------------------------------------------------------
 Center     Atomic      Atomic             Coordinates (Angstroms)
 Number     Number       Type             X           Y           Z
 ---------------------------------------------------------------------
      1          6           0       -1.538263    1.068236   -0.086712
      2          6           0       -0.716020   -0.198023    0.014027
      3          7           0       -1.185405   -1.381318    0.096178
      4          6           0        0.801229   -0.081243    0.002632
      5          7           0        1.590521   -1.082684   -0.072441
      6          7           0        1.308625    1.214038   -0.006162
      7          1           0       -1.425377    1.684431    0.814519
      8          1           0       -2.599994    0.833614   -0.196660
      9          1           0       -1.215804    1.676326   -0.937305
     10          1           0       -2.208759   -1.371923    0.077244
     11          1           0        1.023141   -1.931797   -0.137458
     12          1           0        0.834696    1.898904    0.565673
     13          1           0        2.314236    1.226373    0.111280
 ---------------------------------------------------------------------

 SCF Done:  E(RB3LYP) =  -282.779844799     A.U. after    1 cycles

 The electronic state is 1-A.
 Alpha  occ. eigenvalues --  -14.34443 -14.33106 -14.28933 -10.25343 -10.25232
 Alpha  occ. eigenvalues --  -10.20724  -0.95016  -0.90677  -0.84131  -0.74715
 Alpha  occ. eigenvalues --   -0.64119  -0.56337  -0.52033  -0.47275  -0.45160
 Alpha  occ. eigenvalues --   -0.44160  -0.43515  -0.40997  -0.37163  -0.31204
 Alpha  occ. eigenvalues --   -0.27727  -0.25586  -0.23599
 Alpha virt. eigenvalues --   -0.03998   0.06320   0.08519   0.09668   0.12506
 Alpha virt. eigenvalues --    0.14271   0.15314   0.17363   0.19183   0.23558
 Alpha virt. eigenvalues --    0.28965   0.33133   0.38857   0.41642   0.52244

 Mulliken charges:
               1
     1  C   -0.385075
     2  C    0.272149
     3  N   -0.529997
     4  C    0.431846
     5  N   -0.568930
     6  N   -0.621044
     7  H    0.125630
     8  H    0.117061
     9  H    0.150857
    10  H    0.229811
    11  H    0.251025
    12  H    0.253937
    13  H    0.272729
 Sum of Mulliken charges =  -0.00000

 Dipole moment (field-independent basis, Debye):
    X=             -2.6244    Y=              3.2144    Z=              0.8607  Tot=              4.2380
 Quadrupole moment (field-independent basis, Debye-Ang):
   XX=            -34.6864   YY=            -35.8806   ZZ=            -36.9482
   XY=              3.4049   XZ=              1.4688   YZ=              2.5124

  Exact polarizability:  59.330   0.768  63.332  -0.759   1.111  27.964
 Approx polarizability:  81.919  -0.112 103.840  -2.159   0.938  40.825

                      1                      2                      3
                      A                      A                      A
 Frequencies --     58.5395               179.5002               288.1899
 Red. masses --      4.0507                 1.0377                 3.3504
 Frc consts  --      0.0082                 0.0197                 0.1639
 IR Inten    --      0.8167                 0.3082                 2.2877

                      4                      5                      6
                      A                      A                      A
 Frequencies --    345.1507               421.7241               428.5666
 Red. masses --      1.5214                 1.9702                 2.9675
 Frc consts  --      0.1068                 0.2065                 0.3211
 IR Inten    --     34.4246                46.4029                11.5774

                      7                      8                      9
                      A                      A                      A
 Frequencies --    491.8584               576.7609               620.6401
 Red. masses --      3.0619                 3.2436                 1.5732
 Frc consts  --      0.4364                 0.6357                 0.3570
 IR Inten    --      0.4494                19.6496               160.7750

                     10                     11                     12
                      A                      A                      A
 Frequencies --    723.9083               740.8995               898.2819
 Red. masses --      2.1925                 3.0579                 1.2316
 Frc consts  --      0.6769                 0.9890                 0.5855
 IR Inten    --     84.1591                 9.3972                 1.1939

                     13                     14                     15
                      A                      A                      A
 Frequencies --    913.1764               986.2557              1076.8139
 Red. masses --      1.2097                 2.0515                 1.5709
 Frc consts  --      0.5944                 1.1757                 1.0732
 IR Inten    --    101.8492                 3.6561                10.3774

                     16                     17                     18
                      A                      A                      A
 Frequencies --   1086.3473              1125.2598              1174.9965
 Red. masses --      1.6077                 1.7388                 1.3091
 Frc consts  --      1.1179                 1.2972                 1.0649
 IR Inten    --     62.6157                28.2569                60.4267

                     19                     20                     21
                      A                      A                      A
 Frequencies --   1352.5114              1413.4025              1437.2794
 Red. masses --      1.6339                 1.3202                 2.3436
 Frc consts  --      1.7610                 1.5539                 2.8525
 IR Inten    --    125.0783                31.6152                53.1474

                     22                     23                     24
                      A                      A                      A
 Frequencies --   1486.1249              1498.9415              1633.8023
 Red. masses --      1.0464                 1.0923                 1.2752
 Frc consts  --      1.3616                 1.4460                 2.0055
 IR Inten    --      8.4516                37.3877                51.4763

                     25                     26                     27
                      A                      A                      A
 Frequencies --   1703.8202              1750.1830              3037.2951
 Red. masses --      6.0078                 7.2114                 1.0409
 Frc consts  --     10.2757                13.0148                 5.6577
 IR Inten    --    135.9278                22.6231                 8.5634

                     28                     29                     30
                      A                      A                      A
 Frequencies --   3105.0120              3139.4001              3457.0899
 Red. masses --      1.0941                 1.1042                 1.0753
 Frc consts  --      6.2148                 6.4122                 7.5717
 IR Inten    --     11.7132                12.9160                 2.2917

                     31                     32                     33
                      A                      A                      A
 Frequencies --   3474.6218              3565.1337              3680.2722
 Red. masses --      1.0729                 1.0473                 1.0987
 Frc consts  --      7.6321                 7.8429                 8.7677
 IR Inten    --      8.5606                13.5336                16.5908

 - Thermochemistry -
 -------------------
 Temperature   298.150 Kelvin.  Pressure   1.00000 Atm.
 Atom     1 has atomic number  6 and mass  12.00000

 Molecular mass:    85.06400 amu.
 Principal axes and moments of inertia in atomic units:
                           1         2         3
     Eigenvalues --   347.23799 521.02086 852.31940
           X            0.99963  -0.02647   0.00620
           Y            0.02640   0.99959   0.01083
           Z           -0.00648  -0.01066   0.99992
 This molecule is an asymmetric top.
 Rotational symmetry number  1.
 Rotational temperatures (Kelvin)      0.24944     0.16624     0.10162
 Rotational constants (GHZ):           5.19742     3.46386     2.11745
 Zero-point vibrational energy     286336.7 (Joules/Mol)
                                   68.43612 (Kcal/Mol)
 Warning -- explicit consideration of   9 degrees of freedom as
           vibrations may cause significant error
 Vibrational temperatures:     84.23   258.26   414.64   496.59   606.77
          (Kelvin)            616.61   707.67   829.83   892.96  1041.54
                             1065.99  1292.43  1313.86  1419.00  1549.29
                             1563.01  1619.00  1690.56  1945.96  2033.57
                             2067.92  2138.20  2156.64  2350.67  2451.41
                             2518.12  4369.98  4467.41  4516.89  4973.98
                             4999.20  5129.43  5295.08

 Zero-point correction=                           0.109060 (Hartree/Particle)
 Thermal correction to Energy=                    0.115708
 Thermal correction to Enthalpy=                  0.116652
 Thermal correction to Gibbs Free Energy=         0.078707
 Sum of electronic and zero-point Energies=           -282.670785
 Sum of electronic and thermal Energies=              -282.664137
 Sum of electronic and thermal Enthalpies=            -282.663193
 Sum of electronic and thermal Free Energies=         -282.701138

                     E (Thermal)             CV                S
                      KCal/Mol        Cal/Mol-Kelvin    Cal/Mol-Kelvin
 Total                   72.608             23.826             79.862
 Electronic               0.000              0.000              0.000
 Translational            0.889              2.981             39.236
 Rotational               0.889              2.981             26.536
 Vibrational             70.830             17.865             14.090
 Vibration     1          0.596              1.974              4.506
 Vibration     2          0.629              1.867              2.334
 Vibration     3          0.685              1.696              1.485
 Vibration     4          0.724              1.585              1.188
 Vibration     5          0.784              1.423              0.886
 Vibration     6          0.790              1.408              0.863
 Vibration     7          0.848              1.268              0.679
 Vibration     8          0.933              1.082              0.491
 Vibration     9          0.981              0.988              0.415

 Optimization completed.
    -- Stationary point found.
 Normal termination of Gaussian 09 at Sat Aug 21 02:20:59 2021.
