 Gaussian 09, Revision D.01,
 Gaussian 09:  ES64L-G09RevD.01 24-Apr-2013

 -------------------------
 #P OPT Freq B3LYP/6-31G**
 -------------------------

 -------
 Frag_28
 -------
 Symbolic Z-matrix:
 Charge =  0 Multiplicity = 1

 SCF Done:  E(RB3LYP) =  -339.664623785     A.U. after   15 cycles
 Optimization completed.
    -- Stationary point found.
 Normal termination of Gaussian 09 at Fri Jul 23 15:57:54 2021.

 ----------------------------------------------------------------------
 #P Geom=AllCheck Guess=TCheck SCRF=Check GenChk RB3LYP/6-31G(d,p) Freq
 ----------------------------------------------------------------------

 Structure from the checkpoint file:  "/vol2/users/liuj201281/HOFBenchmark/IsodesmicSplit/Sample60/Ring26/Running/Gau-262320.chk"
 -------
 Frag_28
 -------
 Charge =  0 Multiplicity = 1

                         Standard orientation:
 ---------------------------------------------------------------------
 Center     Atomic      Atomic             Coordinates (Angstroms)
 Number     Number       Type             X           Y           Z
 ---------------------------------------------------------------------
      1          6           0       -1.240676    1.263832    0.050390
      2          7           0       -0.567210    0.000060   -0.225110
      3          6           0       -1.241445   -1.263368    0.050390
      4          7           0        0.803490   -0.000186   -0.029010
      5          8           0        1.359773   -1.097345    0.032490
      6          8           0        1.360106    1.096855    0.032490
      7          1           0       -2.271786    1.165542   -0.292510
      8          1           0       -0.750991    2.064880   -0.499810
      9          1           0       -1.235849    1.514032    1.119490
     10          1           0       -1.237272   -1.513368    1.119590
     11          1           0       -2.272334   -1.164358   -0.292910
     12          1           0       -0.752030   -2.064720   -0.499510
 ---------------------------------------------------------------------

 SCF Done:  E(RB3LYP) =  -339.664623785     A.U. after    1 cycles

 The electronic state is 1-A.
 Alpha  occ. eigenvalues --  -19.16980 -19.16978 -14.59030 -14.41536 -10.23867
 Alpha  occ. eigenvalues --  -10.23865  -1.23190  -1.04932  -0.97584  -0.75231
 Alpha  occ. eigenvalues --   -0.74756  -0.58702  -0.55549  -0.54865  -0.52008
 Alpha  occ. eigenvalues --   -0.46745  -0.46080  -0.43677  -0.42771  -0.40906
 Alpha  occ. eigenvalues --   -0.31808  -0.30160  -0.28114  -0.27191
 Alpha virt. eigenvalues --   -0.04112   0.07943   0.10300   0.12800   0.12991
 Alpha virt. eigenvalues --    0.15477   0.15917   0.17008   0.20199   0.21024
 Alpha virt. eigenvalues --    0.29311   0.35855   0.45995   0.50415   0.52447

 Mulliken charges:
               1
     1  C   -0.166998
     2  N   -0.286510
     3  C   -0.167000
     4  N    0.638911
     5  O   -0.426350
     6  O   -0.426355
     7  H    0.122920
     8  H    0.163966
     9  H    0.130251
    10  H    0.130244
    11  H    0.122946
    12  H    0.163975
 Sum of Mulliken charges =   0.00000

 Dipole moment (field-independent basis, Debye):
    X=             -4.4515    Y=              0.0005    Z=              0.1775  Tot=              4.4550
 Quadrupole moment (field-independent basis, Debye-Ang):
   XX=            -36.9469   YY=            -35.3368   ZZ=            -34.6761
   XY=              0.0007   XZ=             -0.4433   YZ=              0.0000

  Exact polarizability:  51.996   0.000  50.764   0.367  -0.001  30.001
 Approx polarizability:  77.702   0.002  86.666   2.692  -0.002  42.564

                      1                      2                      3
                      A                      A                      A
 Frequencies --    114.9754               133.5895               141.9698
 Red. masses --      2.2820                 1.1459                 1.4938
 Frc consts  --      0.0178                 0.0120                 0.0177
 IR Inten    --      0.0345                 2.6806                 0.3150

                      4                      5                      6
                      A                      A                      A
 Frequencies --    204.7253               361.6732               421.8375
 Red. masses --      3.1724                 3.2520                 2.3593
 Frc consts  --      0.0783                 0.2506                 0.2474
 IR Inten    --      9.0595                 2.2433                 4.2242

                      7                      8                      9
                      A                      A                      A
 Frequencies --    614.6423               622.5382               777.2764
 Red. masses --      6.1859                 5.5073                13.2501
 Frc consts  --      1.3769                 1.2575                 4.7165
 IR Inten    --      9.8282                 1.3463                19.2447

                     10                     11                     12
                      A                      A                      A
 Frequencies --    857.7985              1009.2627              1058.4694
 Red. masses --      6.7326                 2.7839                 1.4488
 Frc consts  --      2.9188                 1.6707                 0.9564
 IR Inten    --      9.9168                71.2239                11.6828

                     13                     14                     15
                      A                      A                      A
 Frequencies --   1129.2470              1157.8065              1280.5633
 Red. masses --      1.2284                 1.3876                 2.2553
 Frc consts  --      0.9229                 1.0959                 2.1790
 IR Inten    --      2.6091                48.3847                 3.4659

                     16                     17                     18
                      A                      A                      A
 Frequencies --   1319.5854              1352.8546              1443.0285
 Red. masses --      5.0735                 5.1374                 1.1431
 Frc consts  --      5.2051                 5.5399                 1.4024
 IR Inten    --      1.5146               272.9660                 6.5607

                     19                     20                     21
                      A                      A                      A
 Frequencies --   1484.0179              1489.0985              1509.5132
 Red. masses --      1.1920                 1.0560                 1.1411
 Frc consts  --      1.5466                 1.3796                 1.5320
 IR Inten    --     39.2191                12.6436                12.3298

                     22                     23                     24
                      A                      A                      A
 Frequencies --   1510.1160              1529.5887              1652.7386
 Red. masses --      1.0534                 1.0572                11.9093
 Frc consts  --      1.4154                 1.4573                19.1665
 IR Inten    --      0.4004                39.9454               265.5274

                     25                     26                     27
                      A                      A                      A
 Frequencies --   3031.8440              3037.4172              3130.7779
 Red. masses --      1.0478                 1.0502                 1.0899
 Frc consts  --      5.6747                 5.7086                 6.2943
 IR Inten    --     22.5647                45.3855                 0.1012

                     28                     29                     30
                      A                      A                      A
 Frequencies --   3135.6654              3185.5936              3188.0877
 Red. masses --      1.0875                 1.1018                 1.1037
 Frc consts  --      6.3000                 6.5877                 6.6096
 IR Inten    --     32.1038                 1.8173                 3.6374

 - Thermochemistry -
 -------------------
 Temperature   298.150 Kelvin.  Pressure   1.00000 Atm.
 Atom     1 has atomic number  6 and mass  12.00000

 Molecular mass:    90.04293 amu.
 Principal axes and moments of inertia in atomic units:
                           1         2         3
     Eigenvalues --   345.61047 455.39086 772.36804
           X            0.99998   0.00004  -0.00621
           Y           -0.00004   1.00000   0.00000
           Z            0.00621   0.00000   0.99998
 This molecule is an asymmetric top.
 Rotational symmetry number  1.
 Rotational temperatures (Kelvin)      0.25061     0.19020     0.11214
 Rotational constants (GHZ):           5.22189     3.96306     2.33663
 Zero-point vibrational energy     250535.7 (Joules/Mol)
                                   59.87948 (Kcal/Mol)
 Warning -- explicit consideration of   7 degrees of freedom as
           vibrations may cause significant error
 Vibrational temperatures:    165.42   192.21   204.26   294.55   520.37
          (Kelvin)            606.93   884.33   895.69  1118.33  1234.18
                             1452.10  1522.90  1624.73  1665.82  1842.44
                             1898.59  1946.45  2076.19  2135.17  2142.48
                             2171.85  2172.72  2200.73  2377.92  4362.14
                             4370.16  4504.49  4511.52  4583.35  4586.94

 Zero-point correction=                           0.095424 (Hartree/Particle)
 Thermal correction to Energy=                    0.102103
 Thermal correction to Enthalpy=                  0.103047
 Thermal correction to Gibbs Free Energy=         0.064893
 Sum of electronic and zero-point Energies=           -339.569200
 Sum of electronic and thermal Energies=              -339.562521
 Sum of electronic and thermal Enthalpies=            -339.561576
 Sum of electronic and thermal Free Energies=         -339.599731

                     E (Thermal)             CV                S
                      KCal/Mol        Cal/Mol-Kelvin    Cal/Mol-Kelvin
 Total                   64.071             21.871             80.304
 Electronic               0.000              0.000              0.000
 Translational            0.889              2.981             39.405
 Rotational               0.889              2.981             26.300
 Vibrational             62.293             15.910             14.598
 Vibration     1          0.608              1.937              3.183
 Vibration     2          0.613              1.920              2.894
 Vibration     3          0.615              1.911              2.777
 Vibration     4          0.640              1.833              2.090
 Vibration     5          0.736              1.551              1.115
 Vibration     6          0.784              1.423              0.886
 Vibration     7          0.974              1.001              0.425

 Normal termination of Gaussian 09 at Fri Jul 23 15:58:26 2021.
