 Gaussian 09, Revision E.01,
 Gaussian 09:  ES64L-G09RevE.01 30-Nov-2015

 ----------------------------
 #P OPT Freq B3LYP/6-31G(d,p)
 ----------------------------

 --------
 Frag_462
 --------
 Symbolic Z-matrix:
 Charge =  0 Multiplicity = 1

 SCF Done:  E(RB3LYP) =  -226.285889550     A.U. after   15 cycles
 SCF Done:  E(RB3LYP) =  -226.285974461     A.U. after   11 cycles
 SCF Done:  E(RB3LYP) =  -226.285980602     A.U. after   11 cycles
 SCF Done:  E(RB3LYP) =  -226.285987312     A.U. after   11 cycles
 SCF Done:  E(RB3LYP) =  -226.285992218     A.U. after    9 cycles
 SCF Done:  E(RB3LYP) =  -226.285995270     A.U. after    9 cycles
 SCF Done:  E(RB3LYP) =  -226.285996561     A.U. after    9 cycles
 SCF Done:  E(RB3LYP) =  -226.285996798     A.U. after    8 cycles
 SCF Done:  E(RB3LYP) =  -226.285996897     A.U. after    8 cycles
 Optimization completed.
    -- Stationary point found.
 Normal termination of Gaussian 09 at Thu Sep  8 15:17:27 2022.

 ----------------------------------------------------------------------
 #P Geom=AllCheck Guess=TCheck SCRF=Check GenChk RB3LYP/6-31G(d,p) Freq
 ----------------------------------------------------------------------

 Structure from the checkpoint file:  "B3LYP6-31Gdp.Frag_462.chk"
 --------
 Frag_462
 --------
 Charge =  0 Multiplicity = 1

                         Standard orientation:
 ---------------------------------------------------------------------
 Center     Atomic      Atomic             Coordinates (Angstroms)
 Number     Number       Type             X           Y           Z
 ---------------------------------------------------------------------
      1          6           0        1.557452    0.365855   -0.147316
      2          8           0        0.572867   -0.446008    0.477728
      3          7           0       -0.524409   -0.684618   -0.416858
      4          7           0       -1.497289    0.369100    0.054948
      5          1           0        1.922979   -0.094588   -1.072765
      6          1           0        2.386685    0.471473    0.562058
      7          1           0        1.183160    1.374572   -0.394303
      8          1           0       -1.654130    0.308012    1.071881
      9          1           0       -1.240648    1.353348   -0.143457
     10          1           0       -2.373809    0.168742   -0.427975
 ---------------------------------------------------------------------

 SCF Done:  E(RB3LYP) =  -226.285996897     A.U. after    1 cycles

 The electronic state is 1-A.
 Alpha  occ. eigenvalues --  -19.13219 -14.44597 -14.30164 -10.20069  -1.02707
 Alpha  occ. eigenvalues --   -0.95377  -0.71258  -0.61763  -0.56316  -0.55229
 Alpha  occ. eigenvalues --   -0.46208  -0.41365  -0.40682  -0.34402  -0.28706
 Alpha  occ. eigenvalues --   -0.22057  -0.14298
 Alpha virt. eigenvalues --    0.02794   0.09281   0.10151   0.13297   0.15794
 Alpha virt. eigenvalues --    0.17135   0.18526   0.20393   0.24801   0.54188
 Alpha virt. eigenvalues --    0.57267   0.58538   0.63056   0.64509   0.67395

 Mulliken charges:
               1
     1  C   -0.025626
     2  O   -0.413560
     3  N   -0.286123
     4  N   -0.387655
     5  H    0.101251
     6  H    0.089351
     7  H    0.045417
     8  H    0.292654
     9  H    0.275666
    10  H    0.308627
 Sum of Mulliken charges =  -0.00000

 Dipole moment (field-independent basis, Debye):
    X=             -3.1874    Y=              3.9469    Z=              0.6517  Tot=              5.1149
 Quadrupole moment (field-independent basis, Debye-Ang):
   XX=            -15.4256   YY=            -26.2953   ZZ=            -25.8660
   XY=             -2.7386   XZ=             -1.4463   YZ=             -0.2422

  Exact polarizability:  45.061  -2.170  30.938  -0.214   2.083  27.629
 Approx polarizability:  55.614  -4.278  45.820   1.726   3.690  39.462

                      1                      2                      3
                      A                      A                      A
 Frequencies --    116.0163               179.6737               200.4597
 Red. masses --      1.8420                 1.3180                 1.1128
 Frc consts  --      0.0146                 0.0251                 0.0263
 IR Inten    --     15.6278                 8.4748                 8.2422

                      4                      5                      6
                      A                      A                      A
 Frequencies --    366.8465               463.5193               580.9761
 Red. masses --      3.6407                 3.0732                 4.2002
 Frc consts  --      0.2887                 0.3890                 0.8353
 IR Inten    --      3.5667                20.3834                19.0486

                      7                      8                      9
                      A                      A                      A
 Frequencies --    819.7387               990.0565              1017.8761
 Red. masses --      4.2698                 1.6254                 2.8864
 Frc consts  --      1.6905                 0.9387                 1.7620
 IR Inten    --     31.1617                16.9246                63.7501

                     10                     11                     12
                      A                      A                      A
 Frequencies --   1104.9533              1177.6567              1202.5514
 Red. masses --      1.7743                 1.3193                 1.5750
 Frc consts  --      1.2763                 1.0780                 1.3420
 IR Inten    --     17.8728                 5.0001                 2.2829

                     13                     14                     15
                      A                      A                      A
 Frequencies --   1398.7002              1464.6128              1488.9386
 Red. masses --      1.1328                 1.1438                 1.0515
 Frc consts  --      1.3057                 1.4456                 1.3735
 IR Inten    --     13.5090                 7.6649                 2.7927

                     16                     17                     18
                      A                      A                      A
 Frequencies --   1514.1123              1606.2332              1672.2089
 Red. masses --      1.0575                 1.0628                 1.0548
 Frc consts  --      1.4284                 1.6156                 1.7378
 IR Inten    --     14.6324                27.8459                37.0498

                     19                     20                     21
                      A                      A                      A
 Frequencies --   2957.2216              3052.0431              3097.3646
 Red. masses --      1.0509                 1.0793                 1.1054
 Frc consts  --      5.4149                 5.9233                 6.2480
 IR Inten    --     79.2615                81.5648                46.9230

                     22                     23                     24
                      A                      A                      A
 Frequencies --   3189.3892              3290.4959              3529.9756
 Red. masses --      1.0585                 1.0657                 1.0837
 Frc consts  --      6.3440                 6.7987                 7.9560
 IR Inten    --     77.3292                16.6311                35.2235

 - Thermochemistry -
 -------------------
 Temperature   298.150 Kelvin.  Pressure   1.00000 Atm.
 Atom     1 has atomic number  6 and mass  12.00000

 Molecular mass:    62.04801 amu.
 Principal axes and moments of inertia in atomic units:
                           1         2         3
     Eigenvalues --    94.65887 356.55744 384.49597
           X            0.99977  -0.00051  -0.02161
           Y            0.00013   0.99985  -0.01732
           Z            0.02161   0.01731   0.99962
 This molecule is an asymmetric top.
 Rotational symmetry number  1.
 Rotational temperatures (Kelvin)      0.91501     0.24292     0.22527
 Rotational constants (GHZ):          19.06574     5.06157     4.69378
 Zero-point vibrational energy     218208.5 (Joules/Mol)
                                   52.15309 (Kcal/Mol)
 Warning -- explicit consideration of   6 degrees of freedom as
           vibrations may cause significant error
 Vibrational temperatures:    166.92   258.51   288.42   527.81   666.90
          (Kelvin)            835.89  1179.42  1424.47  1464.49  1589.78
                             1694.38  1730.20  2012.42  2107.25  2142.25
                             2178.47  2311.01  2405.93  4254.78  4391.20
                             4456.41  4588.81  4734.28  5078.84

 Zero-point correction=                           0.083111 (Hartree/Particle)
 Thermal correction to Energy=                    0.088801
 Thermal correction to Enthalpy=                  0.089745
 Thermal correction to Gibbs Free Energy=         0.055097
 Sum of electronic and zero-point Energies=           -226.202886
 Sum of electronic and thermal Energies=              -226.197196
 Sum of electronic and thermal Enthalpies=            -226.196251
 Sum of electronic and thermal Free Energies=         -226.230900

                     E (Thermal)             CV                S
                      KCal/Mol        Cal/Mol-Kelvin    Cal/Mol-Kelvin
 Total                   55.724             18.045             72.923
 Electronic               0.000              0.000              0.000
 Translational            0.889              2.981             38.295
 Rotational               0.889              2.981             24.077
 Vibrational             53.946             12.083             10.551
 Vibration     1          0.608              1.936              3.166
 Vibration     2          0.629              1.867              2.332
 Vibration     3          0.638              1.839              2.129
 Vibration     4          0.740              1.540              1.093
 Vibration     5          0.821              1.331              0.756
 Vibration     6          0.938              1.072              0.484

 Optimization completed.
    -- Stationary point found.
 Normal termination of Gaussian 09 at Thu Sep  8 15:17:34 2022.
