 Gaussian 09, Revision E.01,
 Gaussian 09:  ES64L-G09RevE.01 30-Nov-2015

 ----------------------------
 #P OPT Freq B3LYP/6-31G(d,p)
 ----------------------------

 --------
 Frag_811
 --------
 Symbolic Z-matrix:
 Charge =  0 Multiplicity = 1

 SCF Done:  E(RB3LYP) =  -380.290531930     A.U. after   13 cycles
 SCF Done:  E(RB3LYP) =  -380.290596579     A.U. after   10 cycles
 SCF Done:  E(RB3LYP) =  -380.290586047     A.U. after   10 cycles
 SCF Done:  E(RB3LYP) =  -380.290606710     A.U. after    9 cycles
 SCF Done:  E(RB3LYP) =  -380.290609479     A.U. after    7 cycles
 SCF Done:  E(RB3LYP) =  -380.290611572     A.U. after    8 cycles
 SCF Done:  E(RB3LYP) =  -380.290612806     A.U. after    8 cycles
 SCF Done:  E(RB3LYP) =  -380.290615138     A.U. after    9 cycles
 SCF Done:  E(RB3LYP) =  -380.290617234     A.U. after    8 cycles
 SCF Done:  E(RB3LYP) =  -380.290618492     A.U. after    7 cycles
 SCF Done:  E(RB3LYP) =  -380.290619211     A.U. after    7 cycles
 SCF Done:  E(RB3LYP) =  -380.290619572     A.U. after    7 cycles
 SCF Done:  E(RB3LYP) =  -380.290619721     A.U. after    7 cycles
 SCF Done:  E(RB3LYP) =  -380.290619813     A.U. after    7 cycles
 Optimization completed.
    -- Stationary point found.
 Normal termination of Gaussian 09 at Thu Sep  8 15:00:51 2022.

 ----------------------------------------------------------------------
 #P Geom=AllCheck Guess=TCheck SCRF=Check GenChk RB3LYP/6-31G(d,p) Freq
 ----------------------------------------------------------------------

 Structure from the checkpoint file:  "B3LYP6-31Gdp.Frag_811.chk"
 --------
 Frag_811
 --------
 Charge =  0 Multiplicity = 1

                         Standard orientation:
 ---------------------------------------------------------------------
 Center     Atomic      Atomic             Coordinates (Angstroms)
 Number     Number       Type             X           Y           Z
 ---------------------------------------------------------------------
      1          6           0       -1.451214   -1.071650   -0.574156
      2          6           0       -0.601368    0.064334    0.007678
      3          7           0       -1.085177    1.408871   -0.347909
      4          8           0       -0.573107   -0.023862    1.427567
      5          6           0        0.874462   -0.067742   -0.470775
      6          7           0        1.658751    1.016701    0.074851
      7          8           0        1.411117   -1.312301   -0.068063
      8          1           0       -1.505094   -1.004797   -1.665574
      9          1           0       -1.018844   -2.040877   -0.315748
     10          1           0       -2.477118   -1.012745   -0.187777
     11          1           0       -1.278789    1.456247   -1.347076
     12          1           0       -1.965707    1.581313    0.132387
     13          1           0       -1.361098   -0.503036    1.713243
     14          1           0        0.866929   -0.115587   -1.573611
     15          1           0        1.102690    1.868130    0.074360
     16          1           0        2.503827    1.160727   -0.467781
     17          1           0        1.482818   -1.228734    0.896476
 ---------------------------------------------------------------------

 SCF Done:  E(RB3LYP) =  -380.290619813     A.U. after    1 cycles

 The electronic state is 1-A.
 Alpha  occ. eigenvalues --  -19.15038 -19.12746 -14.32115 -14.29671 -10.26675
 Alpha  occ. eigenvalues --  -10.24779 -10.18301  -1.03893  -1.00529  -0.88433
 Alpha  occ. eigenvalues --   -0.85015  -0.73702  -0.66001  -0.59154  -0.51359
 Alpha  occ. eigenvalues --   -0.49924  -0.47756  -0.46182  -0.45305  -0.43177
 Alpha  occ. eigenvalues --   -0.41462  -0.40036  -0.37756  -0.33894  -0.32488
 Alpha  occ. eigenvalues --   -0.29187  -0.26981  -0.24817  -0.22470
 Alpha virt. eigenvalues --    0.05370   0.10077   0.10894   0.12428   0.13759
 Alpha virt. eigenvalues --    0.14318   0.16676   0.17700   0.18177   0.19920
 Alpha virt. eigenvalues --    0.21850   0.23608   0.25366   0.26802   0.29025

 Mulliken charges:
               1
     1  C   -0.340124
     2  C    0.334986
     3  N   -0.587680
     4  O   -0.539593
     5  C    0.312113
     6  N   -0.607757
     7  O   -0.542489
     8  H    0.102058
     9  H    0.137066
    10  H    0.084312
    11  H    0.233958
    12  H    0.235694
    13  H    0.306050
    14  H    0.065760
    15  H    0.261446
    16  H    0.236044
    17  H    0.308157
 Sum of Mulliken charges =  -0.00000

 Dipole moment (field-independent basis, Debye):
    X=             -2.9475    Y=              0.3621    Z=             -1.2073  Tot=              3.2057
 Quadrupole moment (field-independent basis, Debye-Ang):
   XX=            -38.1388   YY=            -44.8666   ZZ=            -41.0430
   XY=              2.2251   XZ=             -2.1098   YZ=             -5.0920

  Exact polarizability:  57.503   1.169  53.657  -0.498  -1.410  50.889
 Approx polarizability:  73.315  -0.840  73.388  -0.785  -1.581  75.006

                      1                      2                      3
                      A                      A                      A
 Frequencies --     95.3400               167.5296               186.3635
 Red. masses --      2.8878                 1.1214                 1.3156
 Frc consts  --      0.0155                 0.0185                 0.0269
 IR Inten    --      3.9119                21.3955                74.4690

                      4                      5                      6
                      A                      A                      A
 Frequencies --    253.8136               265.9867               280.2287
 Red. masses --      2.0902                 2.0469                 1.4806
 Frc consts  --      0.0793                 0.0853                 0.0685
 IR Inten    --      1.0758                 2.1484                 4.4067

                      7                      8                      9
                      A                      A                      A
 Frequencies --    306.7058               360.3620               397.8980
 Red. masses --      1.1790                 2.5831                 2.6561
 Frc consts  --      0.0653                 0.1976                 0.2478
 IR Inten    --     30.5637                 9.9276                10.9554

                     10                     11                     12
                      A                      A                      A
 Frequencies --    417.8307               449.0303               535.4752
 Red. masses --      1.8041                 2.5012                 3.7260
 Frc consts  --      0.1856                 0.2971                 0.6295
 IR Inten    --     66.8313                19.1819                13.3735

                     13                     14                     15
                      A                      A                      A
 Frequencies --    572.3573               637.4571               764.9097
 Red. masses --      2.4146                 2.9455                 2.6258
 Frc consts  --      0.4661                 0.7052                 0.9052
 IR Inten    --     82.5100                11.0532                31.1166

                     16                     17                     18
                      A                      A                      A
 Frequencies --    854.3907               870.1492               915.5316
 Red. masses --      1.5212                 1.6802                 1.6031
 Frc consts  --      0.6543                 0.7495                 0.7917
 IR Inten    --    151.4955               151.7905                28.6383

                     19                     20                     21
                      A                      A                      A
 Frequencies --    968.6118              1035.5808              1065.1028
 Red. masses --      2.0125                 3.3467                 1.5066
 Frc consts  --      1.1125                 2.1146                 1.0070
 IR Inten    --     29.9903                83.4584                29.5891

                     22                     23                     24
                      A                      A                      A
 Frequencies --   1095.3029              1131.6955              1189.7245
 Red. masses --      2.0480                 2.0833                 1.6957
 Frc consts  --      1.4476                 1.5720                 1.4141
 IR Inten    --    105.3888                13.8734                26.1314

                     25                     26                     27
                      A                      A                      A
 Frequencies --   1234.1456              1307.9509              1318.2822
 Red. masses --      1.8850                 1.7188                 1.4405
 Frc consts  --      1.6916                 1.7324                 1.4750
 IR Inten    --     68.6944                85.5201                 6.8465

                     28                     29                     30
                      A                      A                      A
 Frequencies --   1380.8016              1412.7483              1427.9398
 Red. masses --      1.5669                 1.3099                 1.6220
 Frc consts  --      1.7601                 1.5403                 1.9485
 IR Inten    --     27.7711                19.8432                16.6763

                     31                     32                     33
                      A                      A                      A
 Frequencies --   1452.2309              1496.3544              1519.2620
 Red. masses --      1.2577                 1.0545                 1.0738
 Frc consts  --      1.5627                 1.3911                 1.4603
 IR Inten    --     59.4705                 0.2585                 6.9217

                     34                     35                     36
                      A                      A                      A
 Frequencies --   1639.1799              1646.3104              2965.1139
 Red. masses --      1.1057                 1.1141                 1.0836
 Frc consts  --      1.7504                 1.7790                 5.6132
 IR Inten    --     43.1235                41.5794                79.1055

                     37                     38                     39
                      A                      A                      A
 Frequencies --   3031.7121              3103.4547              3144.1554
 Red. masses --      1.0417                 1.0972                 1.1008
 Frc consts  --      5.6410                 6.2262                 6.4116
 IR Inten    --     23.3219                27.5827                12.2284

                     40                     41                     42
                      A                      A                      A
 Frequencies --   3478.6931              3506.4204              3571.0976
 Red. masses --      1.0493                 1.0487                 1.0927
 Frc consts  --      7.4815                 7.5967                 8.2101
 IR Inten    --      0.4843                13.5642                 0.0990

                     43                     44                     45
                      A                      A                      A
 Frequencies --   3607.2004              3761.7835              3822.1562
 Red. masses --      1.0945                 1.0642                 1.0667
 Frc consts  --      8.3909                 8.8727                 9.1814
 IR Inten    --     10.1388                25.8286                16.2294

 - Thermochemistry -
 -------------------
 Temperature   298.150 Kelvin.  Pressure   1.00000 Atm.
 Atom     1 has atomic number  6 and mass  12.00000

 Molecular mass:   106.07423 amu.
 Principal axes and moments of inertia in atomic units:
                           1         2         3
     Eigenvalues --   546.79099 752.97387 926.91968
           X            0.99638   0.08416   0.01171
           Y           -0.08381   0.99609  -0.02779
           Z           -0.01401   0.02670   0.99955
 This molecule is an asymmetric top.
 Rotational symmetry number  1.
 Warning -- assumption of classical behavior for rotation
           may cause significant error
 Rotational temperatures (Kelvin)      0.15840     0.11503     0.09344
 Rotational constants (GHZ):           3.30061     2.39682     1.94703
 Zero-point vibrational energy     386659.2 (Joules/Mol)
                                   92.41377 (Kcal/Mol)
 Warning -- explicit consideration of  13 degrees of freedom as
           vibrations may cause significant error
 Vibrational temperatures:    137.17   241.04   268.14   365.18   382.70
          (Kelvin)            403.19   441.28   518.48   572.49   601.16
                              646.05   770.43   823.49   917.16  1100.53
                             1229.28  1251.95  1317.24  1393.61  1489.97
                             1532.44  1575.89  1628.26  1711.75  1775.66
                             1881.85  1896.71  1986.66  2032.63  2054.48
                             2089.43  2152.92  2185.88  2358.41  2368.67
                             4266.13  4361.95  4465.17  4523.73  5005.06
                             5044.95  5138.01  5189.95  5412.36  5499.22

 Zero-point correction=                           0.147271 (Hartree/Particle)
 Thermal correction to Energy=                    0.156090
 Thermal correction to Enthalpy=                  0.157034
 Thermal correction to Gibbs Free Energy=         0.115032
 Sum of electronic and zero-point Energies=           -380.143349
 Sum of electronic and thermal Energies=              -380.134530
 Sum of electronic and thermal Enthalpies=            -380.133586
 Sum of electronic and thermal Free Energies=         -380.175588

                     E (Thermal)             CV                S
                      KCal/Mol        Cal/Mol-Kelvin    Cal/Mol-Kelvin
 Total                   97.948             32.771             88.401
 Electronic               0.000              0.000              0.000
 Translational            0.889              2.981             39.894
 Rotational               0.889              2.981             27.436
 Vibrational             96.170             26.809             21.070
 Vibration     1          0.603              1.953              3.547
 Vibration     2          0.624              1.882              2.463
 Vibration     3          0.632              1.859              2.264
 Vibration     4          0.665              1.756              1.704
 Vibration     5          0.672              1.735              1.622
 Vibration     6          0.680              1.710              1.532
 Vibration     7          0.697              1.661              1.380
 Vibration     8          0.735              1.554              1.121
 Vibration     9          0.764              1.475              0.970
 Vibration    10          0.781              1.432              0.899
 Vibration    11          0.808              1.363              0.799
 Vibration    12          0.890              1.172              0.575
 Vibration    13          0.929              1.091              0.500

 Optimization completed.
    -- Stationary point found.
 Normal termination of Gaussian 09 at Thu Sep  8 15:01:08 2022.
