 Gaussian 09, Revision E.01,
 Gaussian 09:  ES64L-G09RevE.01 30-Nov-2015

 ----------------------------
 #P OPT Freq B3LYP/6-31G(d,p)
 ----------------------------

 --------
 Frag_899
 --------
 Symbolic Z-matrix:
 Charge =  0 Multiplicity = 1

 SCF Done:  E(RB3LYP) =  -232.470432629     A.U. after   13 cycles
 SCF Done:  E(RB3LYP) =  -232.470507565     A.U. after    9 cycles
 SCF Done:  E(RB3LYP) =  -232.470341551     A.U. after   12 cycles
 SCF Done:  E(RB3LYP) =  -232.470512474     A.U. after   11 cycles
 SCF Done:  E(RB3LYP) =  -232.470514564     A.U. after    7 cycles
 SCF Done:  E(RB3LYP) =  -232.470514792     A.U. after    7 cycles
 SCF Done:  E(RB3LYP) =  -232.470514970     A.U. after    8 cycles
 Optimization completed.
    -- Stationary point found.
 Normal termination of Gaussian 09 at Thu Sep  8 15:25:48 2022.

 ----------------------------------------------------------------------
 #P Geom=AllCheck Guess=TCheck SCRF=Check GenChk RB3LYP/6-31G(d,p) Freq
 ----------------------------------------------------------------------

 Structure from the checkpoint file:  "B3LYP6-31Gdp.Frag_899.chk"
 --------
 Frag_899
 --------
 Charge =  0 Multiplicity = 1

                         Standard orientation:
 ---------------------------------------------------------------------
 Center     Atomic      Atomic             Coordinates (Angstroms)
 Number     Number       Type             X           Y           Z
 ---------------------------------------------------------------------
      1          6           0       -1.523606   -0.843583    0.251596
      2          6           0       -0.427739    0.012497   -0.412610
      3          6           0       -0.446731    1.472084    0.041726
      4          6           0        0.926534   -0.636078   -0.191520
      5          8           0        1.901360   -0.079371    0.263022
      6          1           0       -2.515537   -0.457693   -0.000327
      7          1           0       -1.423402   -0.827796    1.342180
      8          1           0       -1.476765   -1.887351   -0.077368
      9          1           0       -0.591622   -0.036968   -1.502368
     10          1           0       -1.407726    1.938341   -0.195485
     11          1           0        0.348148    2.045141   -0.441884
     12          1           0       -0.288853    1.542903    1.122316
     13          1           0        0.974132   -1.711134   -0.486390
 ---------------------------------------------------------------------

 SCF Done:  E(RB3LYP) =  -232.470514970     A.U. after    1 cycles

 The electronic state is 1-A.
 Alpha  occ. eigenvalues --  -19.14950 -10.27443 -10.20569 -10.19225 -10.17865
 Alpha  occ. eigenvalues --   -1.04463  -0.80760  -0.69423  -0.64835  -0.54833
 Alpha  occ. eigenvalues --   -0.48971  -0.45363  -0.44604  -0.40605  -0.39264
 Alpha  occ. eigenvalues --   -0.37858  -0.37151  -0.34975  -0.34144  -0.25043
 Alpha virt. eigenvalues --   -0.02152   0.09017   0.12545   0.13439   0.14613
 Alpha virt. eigenvalues --    0.15056   0.16441   0.18427   0.19729   0.21703
 Alpha virt. eigenvalues --    0.22909   0.29127   0.30879   0.49227   0.50685

 Mulliken charges:
               1
     1  C   -0.324516
     2  C   -0.136093
     3  C   -0.302130
     4  C    0.305311
     5  O   -0.394143
     6  H    0.116944
     7  H    0.118454
     8  H    0.107738
     9  H    0.113948
    10  H    0.098370
    11  H    0.120262
    12  H    0.116354
    13  H    0.059501
 Sum of Mulliken charges =  -0.00000

 Dipole moment (field-independent basis, Debye):
    X=             -2.3778    Y=             -0.6764    Z=             -0.8563  Tot=              2.6163
 Quadrupole moment (field-independent basis, Debye-Ang):
   XX=            -36.4266   YY=            -30.4459   ZZ=            -30.6491
   XY=             -0.4994   XZ=             -1.2500   YZ=              0.1137

  Exact polarizability:  49.566   1.331  47.313   1.844   2.040  37.907
 Approx polarizability:  70.261   5.347  61.876   6.555   4.267  55.687

                      1                      2                      3
                      A                      A                      A
 Frequencies --     90.3104               195.5902               225.3863
 Red. masses --      2.7086                 1.0515                 1.1284
 Frc consts  --      0.0130                 0.0237                 0.0338
 IR Inten    --      4.2477                 0.0547                 1.1685

                      4                      5                      6
                      A                      A                      A
 Frequencies --    271.7172               338.9642               401.4927
 Red. masses --      2.9923                 2.2000                 2.0687
 Frc consts  --      0.1302                 0.1489                 0.1965
 IR Inten    --      7.3137                 0.3939                 0.9827

                      7                      8                      9
                      A                      A                      A
 Frequencies --    637.0249               797.9179               917.2266
 Red. masses --      3.4046                 3.1783                 1.2922
 Frc consts  --      0.8140                 1.1922                 0.6405
 IR Inten    --      3.8671                11.8865                 8.1877

                     10                     11                     12
                      A                      A                      A
 Frequencies --    927.8301               947.4118               976.7482
 Red. masses --      1.6498                 1.3218                 1.4903
 Frc consts  --      0.8368                 0.6990                 0.8377
 IR Inten    --     10.3176                11.0756                 1.2844

                     13                     14                     15
                      A                      A                      A
 Frequencies --   1133.6510              1158.6055              1205.2034
 Red. masses --      1.8332                 2.0663                 1.7187
 Frc consts  --      1.3881                 1.6343                 1.4709
 IR Inten    --      4.7629                 2.6071                 0.5196

                     16                     17                     18
                      A                      A                      A
 Frequencies --   1312.0691              1358.1906              1414.9285
 Red. masses --      1.3897                 1.7196                 1.2411
 Frc consts  --      1.4096                 1.8690                 1.4640
 IR Inten    --      0.2454                 2.0679                 2.9761

                     19                     20                     21
                      A                      A                      A
 Frequencies --   1420.0190              1442.1245              1498.4773
 Red. masses --      1.1948                 1.2380                 1.0418
 Frc consts  --      1.4195                 1.5170                 1.3783
 IR Inten    --      2.3947                 6.9736                 0.3520

                     22                     23                     24
                      A                      A                      A
 Frequencies --   1504.6966              1516.9409              1521.8848
 Red. masses --      1.0491                 1.0428                 1.0610
 Frc consts  --      1.3994                 1.4137                 1.4479
 IR Inten    --      2.7264                 9.1958                 8.0787

                     25                     26                     27
                      A                      A                      A
 Frequencies --   1830.2348              2870.2237              2990.4871
 Red. masses --     10.3262                 1.0830                 1.0818
 Frc consts  --     20.3800                 5.2567                 5.7001
 IR Inten    --    149.9053               132.6401                19.9596

                     28                     29                     30
                      A                      A                      A
 Frequencies --   3043.0167              3055.3660              3112.7386
 Red. masses --      1.0352                 1.0360                 1.1026
 Frc consts  --      5.6479                 5.6982                 6.2944
 IR Inten    --     24.6063                15.5534                27.2807

                     31                     32                     33
                      A                      A                      A
 Frequencies --   3122.6624              3126.6228              3137.8708
 Red. masses --      1.1029                 1.1025                 1.1021
 Frc consts  --      6.3363                 6.3503                 6.3934
 IR Inten    --      2.8523                42.8212                19.0609

 - Thermochemistry -
 -------------------
 Temperature   298.150 Kelvin.  Pressure   1.00000 Atm.
 Atom     1 has atomic number  6 and mass  12.00000

 Molecular mass:    72.05751 amu.
 Principal axes and moments of inertia in atomic units:
                           1         2         3
     Eigenvalues --   241.08855 444.13397 612.49257
           X            0.99975   0.01688  -0.01482
           Y           -0.01677   0.99983   0.00748
           Z            0.01494  -0.00723   0.99986
 This molecule is an asymmetric top.
 Rotational symmetry number  1.
 Rotational temperatures (Kelvin)      0.35926     0.19502     0.14141
 Rotational constants (GHZ):           7.48580     4.06351     2.94655
 Zero-point vibrational energy     296097.5 (Joules/Mol)
                                   70.76900 (Kcal/Mol)
 Warning -- explicit consideration of   6 degrees of freedom as
           vibrations may cause significant error
 Vibrational temperatures:    129.94   281.41   324.28   390.94   487.69
          (Kelvin)            577.66   916.54  1148.02  1319.68  1334.94
                             1363.11  1405.32  1631.07  1666.97  1734.02
                             1887.77  1954.13  2035.76  2043.09  2074.89
                             2155.97  2164.92  2182.54  2189.65  2633.30
                             4129.61  4302.64  4378.22  4395.98  4478.53
                             4492.81  4498.51  4514.69

 Zero-point correction=                           0.112778 (Hartree/Particle)
 Thermal correction to Energy=                    0.119113
 Thermal correction to Enthalpy=                  0.120058
 Thermal correction to Gibbs Free Energy=         0.083334
 Sum of electronic and zero-point Energies=           -232.357737
 Sum of electronic and thermal Energies=              -232.351402
 Sum of electronic and thermal Enthalpies=            -232.350457
 Sum of electronic and thermal Free Energies=         -232.387181

                     E (Thermal)             CV                S
                      KCal/Mol        Cal/Mol-Kelvin    Cal/Mol-Kelvin
 Total                   74.745             21.302             77.291
 Electronic               0.000              0.000              0.000
 Translational            0.889              2.981             38.741
 Rotational               0.889              2.981             25.687
 Vibrational             72.967             15.340             12.863
 Vibration     1          0.602              1.956              3.653
 Vibration     2          0.636              1.846              2.174
 Vibration     3          0.650              1.802              1.915
 Vibration     4          0.675              1.725              1.585
 Vibration     5          0.719              1.598              1.217
 Vibration     6          0.767              1.467              0.957

 Normal termination of Gaussian 09 at Thu Sep  8 15:25:57 2022.
