 Gaussian 09, Revision E.01,
 Gaussian 09:  ES64L-G09RevE.01 30-Nov-2015

 ----------------------------
 #P OPT Freq B3LYP/6-31G(d,p)
 ----------------------------

 --------
 Frag_834
 --------
 Symbolic Z-matrix:
 Charge =  0 Multiplicity = 1

 SCF Done:  E(RB3LYP) =  -454.751191194     A.U. after   14 cycles
 SCF Done:  E(RB3LYP) =  -454.751297715     A.U. after   12 cycles
 SCF Done:  E(RB3LYP) =  -454.751112196     A.U. after   12 cycles
 SCF Done:  E(RB3LYP) =  -454.751330471     A.U. after    8 cycles
 SCF Done:  E(RB3LYP) =  -454.751343446     A.U. after   11 cycles
 SCF Done:  E(RB3LYP) =  -454.751347766     A.U. after    8 cycles
 SCF Done:  E(RB3LYP) =  -454.751350979     A.U. after    9 cycles
 SCF Done:  E(RB3LYP) =  -454.751353267     A.U. after    9 cycles
 Optimization completed.
    -- Stationary point found.
 Normal termination of Gaussian 09 at Thu Sep  8 15:15:15 2022.

 ----------------------------------------------------------------------
 #P Geom=AllCheck Guess=TCheck SCRF=Check GenChk RB3LYP/6-31G(d,p) Freq
 ----------------------------------------------------------------------

 Structure from the checkpoint file:  "B3LYP6-31Gdp.Frag_834.chk"
 --------
 Frag_834
 --------
 Charge =  0 Multiplicity = 1

                         Standard orientation:
 ---------------------------------------------------------------------
 Center     Atomic      Atomic             Coordinates (Angstroms)
 Number     Number       Type             X           Y           Z
 ---------------------------------------------------------------------
      1          8           0       -1.539958    1.166408    0.015605
      2          6           0       -0.964556    0.103188    0.004181
      3          8           0       -1.587696   -1.076734   -0.028125
      4          6           0        0.586289    0.027207    0.021093
      5          8           0        1.109712    1.202015   -0.493634
      6          8           0        1.047515   -1.051603   -0.761659
      7          8           0        0.927283   -0.227369    1.341204
      8          1           0       -0.908759   -1.767201   -0.130378
      9          1           0        0.434549    1.884628   -0.326119
     10          1           0        1.194478   -0.708032   -1.655310
     11          1           0        1.894486   -0.293509    1.373036
 ---------------------------------------------------------------------

 SCF Done:  E(RB3LYP) =  -454.751353267     A.U. after    1 cycles

 The electronic state is 1-A.
 Alpha  occ. eigenvalues --  -19.21295 -19.19204 -19.18111 -19.18018 -19.15856
 Alpha  occ. eigenvalues --  -10.36745 -10.33490  -1.14282  -1.10801  -1.04878
 Alpha  occ. eigenvalues --   -1.03407  -1.02455  -0.71572  -0.62794  -0.60503
 Alpha  occ. eigenvalues --   -0.57033  -0.55451  -0.46658  -0.45236  -0.44223
 Alpha  occ. eigenvalues --   -0.44110  -0.40483  -0.36909  -0.36404  -0.34286
 Alpha  occ. eigenvalues --   -0.33130  -0.31266  -0.28487
 Alpha virt. eigenvalues --   -0.01293   0.05034   0.09434   0.10178   0.11049
 Alpha virt. eigenvalues --    0.19000   0.21123   0.25527   0.25612   0.33445
 Alpha virt. eigenvalues --    0.39761   0.52598   0.53987   0.58391   0.60450

 Mulliken charges:
               1
     1  O   -0.458409
     2  C    0.595717
     3  O   -0.468712
     4  C    0.581883
     5  O   -0.539517
     6  O   -0.547743
     7  O   -0.496756
     8  H    0.345891
     9  H    0.336896
    10  H    0.329484
    11  H    0.321265
 Sum of Mulliken charges =  -0.00000

 Dipole moment (field-independent basis, Debye):
    X=              2.5694    Y=             -1.2739    Z=             -1.2812  Tot=              3.1410
 Quadrupole moment (field-independent basis, Debye-Ang):
   XX=            -42.4652   YY=            -37.6302   ZZ=            -36.4485
   XY=              1.4339   XZ=              1.2945   YZ=              0.7896

  Exact polarizability:  36.835  -1.859  40.841  -0.307  -0.196  29.696
 Approx polarizability:  49.742  -5.127  65.641  -1.893  -0.739  42.113

                      1                      2                      3
                      A                      A                      A
 Frequencies --     53.1360               245.7534               259.0120
 Red. masses --      7.7166                 4.2906                 5.1447
 Frc consts  --      0.0128                 0.1527                 0.2034
 IR Inten    --      4.6829                10.0405                21.6508

                      4                      5                      6
                      A                      A                      A
 Frequencies --    267.1307               367.6271               380.0168
 Red. masses --      1.2296                 1.8730                 2.6609
 Frc consts  --      0.0517                 0.1491                 0.2264
 IR Inten    --     79.1288                52.6923                12.7595

                      7                      8                      9
                      A                      A                      A
 Frequencies --    455.0650               494.8718               536.1614
 Red. masses --      2.3781                 4.3779                 1.4043
 Frc consts  --      0.2902                 0.6317                 0.2378
 IR Inten    --     37.9152                78.8587                51.7015

                     10                     11                     12
                      A                      A                      A
 Frequencies --    605.6259               622.4062               668.2548
 Red. masses --      1.5725                 2.8644                 4.1812
 Frc consts  --      0.3398                 0.6538                 1.1001
 IR Inten    --     97.9404                40.6697                32.1407

                     13                     14                     15
                      A                      A                      A
 Frequencies --    771.8321               803.5520              1011.3416
 Red. masses --      8.7543                 7.8813                 3.0829
 Frc consts  --      3.0727                 2.9983                 1.8578
 IR Inten    --     21.1751                 5.7281                69.4037

                     16                     17                     18
                      A                      A                      A
 Frequencies --   1088.0845              1154.0111              1233.6361
 Red. masses --      2.5218                 4.1606                 2.0050
 Frc consts  --      1.7591                 3.2646                 1.7978
 IR Inten    --    237.3964               323.6351                12.5241

                     19                     20                     21
                      A                      A                      A
 Frequencies --   1306.8718              1358.0518              1371.9695
 Red. masses --      1.3789                 1.9137                 1.7892
 Frc consts  --      1.3875                 2.0795                 1.9842
 IR Inten    --      7.1045               186.8701               478.6729

                     22                     23                     24
                      A                      A                      A
 Frequencies --   1488.0776              1874.5760              3701.1627
 Red. masses --      2.3119                10.0037                 1.0648
 Frc consts  --      3.0163                20.7118                 8.5939
 IR Inten    --     62.7517               216.8287                87.5267

                     25                     26                     27
                      A                      A                      A
 Frequencies --   3723.8231              3778.8489              3804.0754
 Red. masses --      1.0650                 1.0649                 1.0654
 Frc consts  --      8.7011                 8.9597                 9.0833
 IR Inten    --    100.4893                39.9291                54.9530

 - Thermochemistry -
 -------------------
 Temperature   298.150 Kelvin.  Pressure   1.00000 Atm.
 Atom     1 has atomic number  8 and mass  15.99491

 Molecular mass:   108.00587 amu.
 Principal axes and moments of inertia in atomic units:
                           1         2         3
     Eigenvalues --   486.06184 704.64694 856.85156
           X            0.99985   0.01615   0.00566
           Y           -0.01620   0.99983   0.00922
           Z           -0.00551  -0.00931   0.99994
 This molecule is an asymmetric top.
 Rotational symmetry number  1.
 Warning -- assumption of classical behavior for rotation
           may cause significant error
 Rotational temperatures (Kelvin)      0.17820     0.12292     0.10108
 Rotational constants (GHZ):           3.71299     2.56120     2.10625
 Zero-point vibrational energy     199925.8 (Joules/Mol)
                                   47.78340 (Kcal/Mol)
 Warning -- explicit consideration of  10 degrees of freedom as
           vibrations may cause significant error
 Vibrational temperatures:     76.45   353.58   372.66   384.34   528.93
          (Kelvin)            546.76   654.74   712.01   771.42   871.36
                              895.50   961.47  1110.49  1156.13  1455.09
                             1565.51  1660.36  1774.93  1880.29  1953.93
                             1973.96  2141.01  2697.09  5325.14  5357.74
                             5436.91  5473.21

 Zero-point correction=                           0.076148 (Hartree/Particle)
 Thermal correction to Energy=                    0.083321
 Thermal correction to Enthalpy=                  0.084265
 Thermal correction to Gibbs Free Energy=         0.044841
 Sum of electronic and zero-point Energies=           -454.675206
 Sum of electronic and thermal Energies=              -454.668032
 Sum of electronic and thermal Enthalpies=            -454.667088
 Sum of electronic and thermal Free Energies=         -454.706513

                     E (Thermal)             CV                S
                      KCal/Mol        Cal/Mol-Kelvin    Cal/Mol-Kelvin
 Total                   52.285             25.817             82.977
 Electronic               0.000              0.000              0.000
 Translational            0.889              2.981             39.948
 Rotational               0.889              2.981             27.175
 Vibrational             50.507             19.855             15.854
 Vibration     1          0.596              1.976              4.697
 Vibration     2          0.660              1.770              1.761
 Vibration     3          0.668              1.748              1.668
 Vibration     4          0.672              1.733              1.615
 Vibration     5          0.740              1.539              1.090
 Vibration     6          0.750              1.513              1.039
 Vibration     7          0.813              1.350              0.781
 Vibration     8          0.850              1.261              0.671
 Vibration     9          0.891              1.170              0.574
 Vibration    10          0.964              1.020              0.440

 Optimization completed.
    -- Stationary point found.
 Normal termination of Gaussian 09 at Thu Sep  8 15:15:25 2022.
