 Gaussian 09, Revision D.01,
 Gaussian 09:  ES64L-G09RevD.01 24-Apr-2013

 -------------------------
 #P OPT Freq B3LYP/6-31G**
 -------------------------

 -------
 Frag_26
 -------
 Symbolic Z-matrix:
 Charge =  0 Multiplicity = 1

 SCF Done:  E(RB3LYP) =  -206.569302803     A.U. after   12 cycles
 Optimization completed.
    -- Stationary point found.

 1\1\GINC-FN16\FOpt\RB3LYP\6-31G(d,p)\C1H7N3\LIUJ201281\23-Jul-2021\0\\
 #P OPT Freq B3LYP/6-31G**\\Frag_26\\0,1\N,0.,1.3267,-0.222\C,0.,-0.038
 3,0.3551\N,-1.188,-0.7657,-0.0589\N,1.188,-0.7658,-0.0589\H,0.8145,1.8
 451,0.1071\H,-0.8145,1.8451,0.1071\H,0.,-0.0356,1.4567\H,-1.2921,-0.65
 91,-1.0679\H,-2.0121,-0.3364,0.3561\H,2.0121,-0.3364,0.356\H,1.2921,-0
 .6592,-1.0679\\Version=ES64L-G09RevD.01\State=1-A\HF=-206.5693028\RMSD
 =4.547e-09\RMSF=3.224e-05\Dipole=-0.0000543,1.1080099,0.184863\Quadrup
 ole=3.2809688,-3.6336972,0.3527284,0.0001548,-0.0002536,2.6521834\PG=C

 Normal termination of Gaussian 09 at Fri Jul 23 06:01:17 2021.

 ----------------------------------------------------------------------
 #P Geom=AllCheck Guess=TCheck SCRF=Check GenChk RB3LYP/6-31G(d,p) Freq
 ----------------------------------------------------------------------

 Structure from the checkpoint file:  "/vol2/users/liuj201281/HOFBenchmark/IsodesmicSplit/Sample60/Ring26/Running/Gau-302769.chk"
 -------
 Frag_26
 -------
 Charge =  0 Multiplicity = 1

                         Standard orientation:
 ---------------------------------------------------------------------
 Center     Atomic      Atomic             Coordinates (Angstroms)
 Number     Number       Type             X           Y           Z
 ---------------------------------------------------------------------
      1          7           0       -0.000313    1.326697   -0.221976
      2          6           0        0.000009   -0.038303    0.355124
      3          7           0       -1.187820   -0.765983   -0.058876
      4          7           0        1.188180   -0.765523   -0.058876
      5          1           0        0.814065    1.845289    0.107124
      6          1           0       -0.814935    1.844905    0.107124
      7          1           0        0.000008   -0.035603    1.456724
      8          1           0       -1.291945   -0.659407   -1.067876
      9          1           0       -2.012021   -0.336877    0.356124
     10          1           0        2.012179   -0.335929    0.356024
     11          1           0        1.292255   -0.658898   -1.067876
 ---------------------------------------------------------------------

 SCF Done:  E(RB3LYP) =  -206.569302803     A.U. after    1 cycles

 The electronic state is 1-A.
 Alpha  occ. eigenvalues --  -14.31304 -14.30769 -14.30769 -10.25988  -0.93614
 Alpha  occ. eigenvalues --   -0.83719  -0.83035  -0.61147  -0.51610  -0.48455
 Alpha  occ. eigenvalues --   -0.46199  -0.44789  -0.39852  -0.37981  -0.24739
 Alpha  occ. eigenvalues --   -0.24113  -0.24089
 Alpha virt. eigenvalues --    0.06238   0.11306   0.11704   0.13855   0.15124
 Alpha virt. eigenvalues --    0.17990   0.19526   0.25735   0.26140   0.27702
 Alpha virt. eigenvalues --    0.55660   0.57725   0.61612   0.65536   0.68546

 Mulliken charges:
               1
     1  N   -0.593473
     2  C    0.241842
     3  N   -0.555720
     4  N   -0.555718
     5  H    0.221505
     6  H    0.221508
     7  H    0.087695
     8  H    0.235449
     9  H    0.230738
    10  H    0.230730
    11  H    0.235444
 Sum of Mulliken charges =   0.00000

 Dipole moment (field-independent basis, Debye):
    X=             -0.0008    Y=              2.8163    Z=              0.4699  Tot=              2.8552
 Quadrupole moment (field-independent basis, Debye-Ang):
   XX=            -20.5189   YY=            -29.8194   ZZ=            -24.4575
   XY=              0.0024   XZ=             -0.0012   YZ=              3.5673

  Exact polarizability:  38.424   0.001  32.610  -0.001   1.986  30.300
 Approx polarizability:  49.575   0.001  42.721  -0.001   2.668  42.268

                      1                      2                      3
                      A                      A                      A
 Frequencies --    125.0071               249.2714               310.4341
 Red. masses --      1.1126                 1.0945                 1.0701
 Frc consts  --      0.0102                 0.0401                 0.0608
 IR Inten    --     21.2230                59.1302                46.3408

                      4                      5                      6
                      A                      A                      A
 Frequencies --    446.7388               489.0774               551.8460
 Red. masses --      2.2702                 2.7681                 2.2913
 Frc consts  --      0.2669                 0.3901                 0.4111
 IR Inten    --     46.8832                21.8107                29.4433

                      7                      8                      9
                      A                      A                      A
 Frequencies --    844.2465               866.1059               880.5029
 Red. masses --      1.6105                 2.7282                 1.2916
 Frc consts  --      0.6763                 1.2058                 0.5900
 IR Inten    --     98.9825                80.0588                90.7852

                     10                     11                     12
                      A                      A                      A
 Frequencies --    972.9829              1040.8388              1052.0697
 Red. masses --      1.5743                 3.3828                 1.6109
 Frc consts  --      0.8781                 2.1592                 1.0505
 IR Inten    --    125.8499               224.3650                15.3465

                     13                     14                     15
                      A                      A                      A
 Frequencies --   1110.0982              1268.8912              1337.5952
 Red. masses --      1.0908                 1.4426                 1.4785
 Frc consts  --      0.7920                 1.3685                 1.5585
 IR Inten    --      0.0000                10.8396                32.1883

                     16                     17                     18
                      A                      A                      A
 Frequencies --   1388.0135              1477.5938              1649.3949
 Red. masses --      1.2869                 1.4776                 1.0891
 Frc consts  --      1.4608                 1.9008                 1.7457
 IR Inten    --     16.0699                32.9198                32.3026

                     19                     20                     21
                      A                      A                      A
 Frequencies --   1653.1462              1690.0955              2994.4897
 Red. masses --      1.1006                 1.1019                 1.0852
 Frc consts  --      1.7722                 1.8545                 5.7333
 IR Inten    --     25.7632                15.3581                76.6559

                     22                     23                     24
                      A                      A                      A
 Frequencies --   3451.8591              3473.7506              3474.2520
 Red. masses --      1.0496                 1.0500                 1.0499
 Frc consts  --      7.3687                 7.4653                 7.4669
 IR Inten    --      6.5753                 0.5987                 0.0091

                     25                     26                     27
                      A                      A                      A
 Frequencies --   3539.8540              3563.2358              3563.9117
 Red. masses --      1.0919                 1.0916                 1.0903
 Frc consts  --      8.0613                 8.1656                 8.1595
 IR Inten    --      4.7899                 0.1886                 0.5252

 - Thermochemistry -
 -------------------
 Temperature   298.150 Kelvin.  Pressure   1.00000 Atm.
 Atom     1 has atomic number  7 and mass  14.00307

 Molecular mass:    61.06400 amu.
 Principal axes and moments of inertia in atomic units:
                           1         2         3
     Eigenvalues --   200.06827 211.94418 362.29411
           X            1.00000   0.00030   0.00000
           Y           -0.00030   0.99936   0.03583
           Z            0.00001  -0.03583   0.99936
 This molecule is an asymmetric top.
 Rotational symmetry number  1.
 Rotational temperatures (Kelvin)      0.43292     0.40866     0.23907
 Rotational constants (GHZ):           9.02063     8.51517     4.98143
 Zero-point vibrational energy     259980.2 (Joules/Mol)
                                   62.13677 (Kcal/Mol)
 Warning -- explicit consideration of   6 degrees of freedom as
           vibrations may cause significant error
 Vibrational temperatures:    179.86   358.65   446.64   642.76   703.67
          (Kelvin)            793.98  1214.68  1246.13  1266.85  1399.90
                             1497.53  1513.69  1597.18  1825.65  1924.50
                             1997.04  2125.93  2373.11  2378.51  2431.67
                             4308.40  4966.45  4997.95  4998.67  5093.05
                             5126.70  5127.67

 Zero-point correction=                           0.099021 (Hartree/Particle)
 Thermal correction to Energy=                    0.104479
 Thermal correction to Enthalpy=                  0.105423
 Thermal correction to Gibbs Free Energy=         0.071428
 Sum of electronic and zero-point Energies=           -206.470282
 Sum of electronic and thermal Energies=              -206.464824
 Sum of electronic and thermal Enthalpies=            -206.463879
 Sum of electronic and thermal Free Energies=         -206.497875

                     E (Thermal)             CV                S
                      KCal/Mol        Cal/Mol-Kelvin    Cal/Mol-Kelvin
 Total                   65.562             18.690             71.549
 Electronic               0.000              0.000              0.000
 Translational            0.889              2.981             38.248
 Rotational               0.889              2.981             24.244
 Vibrational             63.784             12.729              9.057
 Vibration     1          0.610              1.928              3.021
 Vibration     2          0.662              1.764              1.736
 Vibration     3          0.699              1.654              1.360
 Vibration     4          0.806              1.368              0.806
 Vibration     5          0.845              1.274              0.686
 Vibration     6          0.907              1.136              0.540

 Optimization completed.
    -- Stationary point found.

 1\1\GINC-FN16\Freq\RB3LYP\6-31G(d,p)\C1H7N3\LIUJ201281\23-Jul-2021\0\\
 #P Geom=AllCheck Guess=TCheck SCRF=Check GenChk RB3LYP/6-31G(d,p) Freq
 \\Frag_26\\0,1\N,0.,1.3267,-0.222\C,0.,-0.0383,0.3551\N,-1.188,-0.7657
 ,-0.0589\N,1.188,-0.7658,-0.0589\H,0.8145,1.8451,0.1071\H,-0.8145,1.84
 51,0.1071\H,0.,-0.0356,1.4567\H,-1.2921,-0.6591,-1.0679\H,-2.0121,-0.3
 364,0.3561\H,2.0121,-0.3364,0.356\H,1.2921,-0.6592,-1.0679\\Version=ES
 64L-G09RevD.01\State=1-A\HF=-206.5693028\RMSD=1.551e-09\RMSF=3.225e-05
 \ZeroPoint=0.0990212\Thermal=0.1044792\Dipole=-0.0000543,1.1080101,0.1

 Normal termination of Gaussian 09 at Fri Jul 23 06:01:32 2021.
