 Gaussian 09, Revision E.01,
 Gaussian 09:  ES64L-G09RevE.01 30-Nov-2015

 --------------------------------
 #P OPT=calcfc Freq B3LYP/6-31G**
 --------------------------------

 --------
 Frag_163
 --------
 Symbolic Z-matrix:
 Charge =  0 Multiplicity = 1

 SCF Done:  E(RB3LYP) =  -325.640475504     A.U. after   14 cycles
 SCF Done:  E(RB3LYP) =  -325.660654378     A.U. after   13 cycles
 SCF Done:  E(RB3LYP) =  -325.666263988     A.U. after   14 cycles
 SCF Done:  E(RB3LYP) =  -325.667048182     A.U. after   12 cycles
 SCF Done:  E(RB3LYP) =  -325.666274114     A.U. after   12 cycles
 SCF Done:  E(RB3LYP) =  -325.667446290     A.U. after    8 cycles
 SCF Done:  E(RB3LYP) =  -325.667511072     A.U. after   11 cycles
 SCF Done:  E(RB3LYP) =  -325.667519463     A.U. after    9 cycles
 SCF Done:  E(RB3LYP) =  -325.667524407     A.U. after    8 cycles
 SCF Done:  E(RB3LYP) =  -325.667526080     A.U. after    7 cycles
 SCF Done:  E(RB3LYP) =  -325.667528945     A.U. after    8 cycles
 Optimization completed.
    -- Stationary point found.
 Normal termination of Gaussian 09 at Sat Aug 21 02:21:47 2021.

 ----------------------------------------------------------------------
 #P Geom=AllCheck Guess=TCheck SCRF=Check GenChk RB3LYP/6-31G(d,p) Freq
 ----------------------------------------------------------------------

 Structure from the checkpoint file:  "/public/home/users/caep010/.cache/gau_scr/Gau-27945.chk"
 --------
 Frag_163
 --------
 Charge =  0 Multiplicity = 1

                         Standard orientation:
 ---------------------------------------------------------------------
 Center     Atomic      Atomic             Coordinates (Angstroms)
 Number     Number       Type             X           Y           Z
 ---------------------------------------------------------------------
      1          6           0       -1.898791   -0.697329    0.003126
      2          6           0       -1.876568    0.702801    0.012607
      3          6           0       -0.678400    1.441770   -0.000165
      4          6           0        0.473649    0.671632   -0.016459
      5          6           0        0.461408   -0.725013    0.002438
      6          6           0       -0.709763   -1.454452   -0.006146
      7          6           0        1.982858   -0.715903    0.022589
      8          7           0        1.893408    0.789895   -0.125480
      9          1           0       -2.856370   -1.209338    0.009254
     10          1           0       -2.821292    1.239516    0.027403
     11          1           0       -0.679924    2.527025    0.002904
     12          1           0       -0.738661   -2.540350   -0.000160
     13          1           0        2.504167   -1.188730   -0.815539
     14          1           0        2.437218   -1.040433    0.965388
     15          1           0        2.374655    1.342007    0.581168
 ---------------------------------------------------------------------

 SCF Done:  E(RB3LYP) =  -325.667528945     A.U. after    1 cycles

 The electronic state is 1-A.
 Alpha  occ. eigenvalues --  -14.33746 -10.22677 -10.21037 -10.18881 -10.18567
 Alpha  occ. eigenvalues --  -10.18382 -10.18162 -10.17967  -0.95016  -0.82652
 Alpha  occ. eigenvalues --   -0.74797  -0.71041  -0.67334  -0.60693  -0.56251
 Alpha  occ. eigenvalues --   -0.52009  -0.47422  -0.45996  -0.44467  -0.41618
 Alpha  occ. eigenvalues --   -0.39454  -0.38891  -0.35632  -0.34504  -0.31820
 Alpha  occ. eigenvalues --   -0.28516  -0.24208  -0.20491
 Alpha virt. eigenvalues --    0.00159   0.01899   0.08442   0.11016   0.12483
 Alpha virt. eigenvalues --    0.14688   0.15307   0.16305   0.17671   0.18419
 Alpha virt. eigenvalues --    0.19698   0.21028   0.26774   0.29443   0.31886

 Mulliken charges:
               1
     1  C   -0.093179
     2  C   -0.102967
     3  C   -0.111175
     4  C    0.303050
     5  C    0.028723
     6  C   -0.162873
     7  C   -0.069885
     8  N   -0.607453
     9  H    0.078294
    10  H    0.082273
    11  H    0.084956
    12  H    0.084457
    13  H    0.124267
    14  H    0.117738
    15  H    0.243776
 Sum of Mulliken charges =  -0.00000

 Dipole moment (field-independent basis, Debye):
    X=              0.6761    Y=             -0.2876    Z=              1.2172  Tot=              1.4218
 Quadrupole moment (field-independent basis, Debye-Ang):
   XX=            -41.7177   YY=            -42.0879   ZZ=            -49.0260
   XY=             -0.9430   XZ=              3.0525   YZ=              1.7731

  Exact polarizability: 102.235  -1.045  83.143   1.071   1.098  34.133
 Approx polarizability: 161.853   1.917 143.313   0.013   1.155  51.661

                      1                      2                      3
                      A                      A                      A
 Frequencies --    225.7717               254.9917               397.3523
 Red. masses --      2.7571                 2.8473                 2.8994
 Frc consts  --      0.0828                 0.1091                 0.2697
 IR Inten    --      5.5892                 7.5668                 3.0103

                      4                      5                      6
                      A                      A                      A
 Frequencies --    434.8516               528.5166               551.7853
 Red. masses --      3.7531                 2.7474                 6.5471
 Frc consts  --      0.4181                 0.4522                 1.1745
 IR Inten    --      3.0882                21.9594                 1.5861

                      7                      8                      9
                      A                      A                      A
 Frequencies --    645.4243               686.7866               719.9063
 Red. masses --      3.4989                 2.1679                 2.2224
 Frc consts  --      0.8587                 0.6025                 0.6786
 IR Inten    --     58.2416               116.3861                12.0314

                     10                     11                     12
                      A                      A                      A
 Frequencies --    762.3081               821.3394               865.4613
 Red. masses --      1.5119                 4.1322                 1.2952
 Frc consts  --      0.5177                 1.6424                 0.5716
 IR Inten    --     76.8484                 9.4413                 0.6328

                     13                     14                     15
                      A                      A                      A
 Frequencies --    913.9002               926.4678               942.2513
 Red. masses --      2.5725                 1.6952                 2.7240
 Frc consts  --      1.2659                 0.8573                 1.4249
 IR Inten    --      1.6846                 5.8091                 3.5860

                     16                     17                     18
                      A                      A                      A
 Frequencies --    972.0447              1021.8192              1027.1535
 Red. masses --      1.2377                 2.1308                 1.9699
 Frc consts  --      0.6890                 1.3108                 1.2245
 IR Inten    --      0.0471                 7.3120                11.0684

                     19                     20                     21
                      A                      A                      A
 Frequencies --   1108.8656              1121.0130              1152.4254
 Red. masses --      2.0777                 1.2150                 1.8733
 Frc consts  --      1.5052                 0.8996                 1.4659
 IR Inten    --      3.6020                12.3282                 2.2901

                     22                     23                     24
                      A                      A                      A
 Frequencies --   1181.4415              1229.2259              1272.5159
 Red. masses --      1.1620                 2.3494                 1.6296
 Frc consts  --      0.9556                 2.0916                 1.5547
 IR Inten    --      1.0572                15.5942                 1.9621

                     25                     26                     27
                      A                      A                      A
 Frequencies --   1285.9155              1340.0175              1412.2108
 Red. masses --      1.3434                 1.4741                 3.7974
 Frc consts  --      1.3088                 1.5596                 4.4621
 IR Inten    --      3.8413                19.4972                 7.1347

                     28                     29                     30
                      A                      A                      A
 Frequencies --   1500.4016              1503.8302              1506.5034
 Red. masses --      1.7765                 1.3991                 2.5789
 Frc consts  --      2.3563                 1.8643                 3.4485
 IR Inten    --     22.9872                 9.8688                15.7497

                     31                     32                     33
                      A                      A                      A
 Frequencies --   1656.4406              1678.8258              3055.3769
 Red. masses --      7.0046                 7.2807                 1.0575
 Frc consts  --     11.3237                12.0903                 5.8163
 IR Inten    --     33.0480                 1.6228                51.4981

                     34                     35                     36
                      A                      A                      A
 Frequencies --   3108.8644              3177.5484              3188.2541
 Red. masses --      1.1090                 1.0855                 1.0899
 Frc consts  --      6.3152                 6.4578                 6.5277
 IR Inten    --     26.1941                 1.2474                13.6647

                     37                     38                     39
                      A                      A                      A
 Frequencies --   3201.0154              3208.0360              3518.1044
 Red. masses --      1.0942                 1.0961                 1.0762
 Frc consts  --      6.6055                 6.6463                 7.8482
 IR Inten    --     32.5630                12.5439                 1.8253

 - Thermochemistry -
 -------------------
 Temperature   298.150 Kelvin.  Pressure   1.00000 Atm.
 Atom     1 has atomic number  6 and mass  12.00000

 Molecular mass:   105.05785 amu.
 Principal axes and moments of inertia in atomic units:
                           1         2         3
     Eigenvalues --   396.79353 846.984981228.33893
           X            0.99982  -0.01753   0.00670
           Y            0.01749   0.99982   0.00701
           Z           -0.00682  -0.00689   0.99995
 This molecule is an asymmetric top.
 Rotational symmetry number  1.
 Rotational temperatures (Kelvin)      0.21828     0.10226     0.07051
 Rotational constants (GHZ):           4.54831     2.13078     1.46925
 Zero-point vibrational energy     323619.5 (Joules/Mol)
                                   77.34693 (Kcal/Mol)
 Warning -- explicit consideration of   6 degrees of freedom as
           vibrations may cause significant error
 Vibrational temperatures:    324.83   366.88   571.70   625.65   760.42
          (Kelvin)            793.89   928.62   988.13  1035.78  1096.79
                             1181.72  1245.20  1314.90  1332.98  1355.69
                             1398.55  1470.17  1477.84  1595.41  1612.89
                             1658.08  1699.83  1768.58  1830.86  1850.14
                             1927.98  2031.85  2158.74  2163.67  2167.52
                             2383.25  2415.45  4396.00  4472.96  4571.78
                             4587.18  4605.54  4615.64  5061.76

 Zero-point correction=                           0.123260 (Hartree/Particle)
 Thermal correction to Energy=                    0.129073
 Thermal correction to Enthalpy=                  0.130017
 Thermal correction to Gibbs Free Energy=         0.093644
 Sum of electronic and zero-point Energies=           -325.544269
 Sum of electronic and thermal Energies=              -325.538456
 Sum of electronic and thermal Enthalpies=            -325.537512
 Sum of electronic and thermal Free Energies=         -325.573885

                     E (Thermal)             CV                S
                      KCal/Mol        Cal/Mol-Kelvin    Cal/Mol-Kelvin
 Total                   80.995             23.706             76.553
 Electronic               0.000              0.000              0.000
 Translational            0.889              2.981             39.865
 Rotational               0.889              2.981             27.515
 Vibrational             79.217             17.745              9.174
 Vibration     1          0.650              1.802              1.912
 Vibration     2          0.665              1.754              1.696
 Vibration     3          0.764              1.476              0.972
 Vibration     4          0.795              1.394              0.843
 Vibration     5          0.883              1.187              0.591
 Vibration     6          0.907              1.136              0.540

 Optimization completed.
    -- Stationary point found.
 Normal termination of Gaussian 09 at Sat Aug 21 02:22:02 2021.
