 Gaussian 09, Revision E.01,
 Gaussian 09:  ES64L-G09RevE.01 30-Nov-2015

 --------------------------------
 #P OPT=calcfc Freq B3LYP/6-31G**
 --------------------------------

 --------
 Frag_319
 --------
 Symbolic Z-matrix:
 Charge =  0 Multiplicity = 1

 SCF Done:  E(RB3LYP) =  -299.964180687     A.U. after   12 cycles
 SCF Done:  E(RB3LYP) =  -299.989344878     A.U. after   14 cycles
 SCF Done:  E(RB3LYP) =  -299.964768271     A.U. after   13 cycles
 SCF Done:  E(RB3LYP) =  -299.989918426     A.U. after    9 cycles
 SCF Done:  E(RB3LYP) =  -299.993173265     A.U. after   12 cycles
 SCF Done:  E(RB3LYP) =  -299.996559676     A.U. after   12 cycles
 SCF Done:  E(RB3LYP) =  -299.998693682     A.U. after   13 cycles
 SCF Done:  E(RB3LYP) =  -299.998888878     A.U. after   14 cycles
 SCF Done:  E(RB3LYP) =  -300.010641239     A.U. after   13 cycles
 SCF Done:  E(RB3LYP) =  -300.015491089     A.U. after   14 cycles
 SCF Done:  E(RB3LYP) =  -300.025883514     A.U. after   11 cycles
 SCF Done:  E(RB3LYP) =  -300.026216740     A.U. after   11 cycles
 SCF Done:  E(RB3LYP) =  -300.026333622     A.U. after   11 cycles
 SCF Done:  E(RB3LYP) =  -300.026444991     A.U. after   11 cycles
 SCF Done:  E(RB3LYP) =  -300.026494314     A.U. after    9 cycles
 SCF Done:  E(RB3LYP) =  -300.026539141     A.U. after   10 cycles
 SCF Done:  E(RB3LYP) =  -300.026541250     A.U. after    8 cycles
 SCF Done:  E(RB3LYP) =  -300.026541626     A.U. after    7 cycles
 SCF Done:  E(RB3LYP) =  -300.026541710     A.U. after    7 cycles
 Optimization completed.
    -- Stationary point found.
 Normal termination of Gaussian 09 at Fri Sep 10 17:35:44 2021.

 ----------------------------------------------------------------------
 #P Geom=AllCheck Guess=TCheck SCRF=Check GenChk RB3LYP/6-31G(d,p) Freq
 ----------------------------------------------------------------------

 Structure from the checkpoint file:  "/public/home/users/caep010/.cache/gau_scr/Gau-77746.chk"
 --------
 Frag_319
 --------
 Charge =  0 Multiplicity = 1

                         Standard orientation:
 ---------------------------------------------------------------------
 Center     Atomic      Atomic             Coordinates (Angstroms)
 Number     Number       Type             X           Y           Z
 ---------------------------------------------------------------------
      1          7           0       -1.453519    1.169076   -0.098970
      2          6           0       -0.694004   -0.000049   -0.000010
      3          7           0       -1.453582   -1.169093    0.098956
      4          6           0        0.662410   -0.000023    0.000029
      5          7           0        1.348329   -1.262799   -0.029256
      6          7           0        1.348086    1.262906    0.029239
      7          1           0       -2.217768    1.183612    0.569213
      8          1           0       -0.848100    1.977187    0.008814
      9          1           0       -2.217751   -1.183829   -0.569291
     10          1           0       -0.848173   -1.977212   -0.008678
     11          1           0        1.878381   -1.426350    0.826555
     12          1           0        2.019852   -1.306224   -0.795392
     13          1           0        2.019592    1.306448    0.795414
     14          1           0        1.878333    1.426171   -0.826533
 ---------------------------------------------------------------------

 SCF Done:  E(RB3LYP) =  -300.026541710     A.U. after    1 cycles

 The electronic state is 1-A.
 Alpha  occ. eigenvalues --  -14.31378 -14.31377 -14.31176 -14.31175 -10.22465
 Alpha  occ. eigenvalues --  -10.18897  -0.93214  -0.88559  -0.84674  -0.82308
 Alpha  occ. eigenvalues --   -0.66720  -0.54715  -0.50523  -0.49309  -0.48300
 Alpha  occ. eigenvalues --   -0.44777  -0.44204  -0.40955  -0.40483  -0.34083
 Alpha  occ. eigenvalues --   -0.27689  -0.24490  -0.22254  -0.17025
 Alpha virt. eigenvalues --    0.07309   0.07348   0.10851   0.11561   0.15013
 Alpha virt. eigenvalues --    0.16471   0.17431   0.18346   0.19227   0.28051
 Alpha virt. eigenvalues --    0.28342   0.31212   0.43512   0.47957   0.57973

 Mulliken charges:
               1
     1  N   -0.646457
     2  C    0.469672
     3  N   -0.646470
     4  C    0.153752
     5  N   -0.646447
     6  N   -0.646402
     7  H    0.248037
     8  H    0.270468
     9  H    0.248049
    10  H    0.270454
    11  H    0.234159
    12  H    0.228526
    13  H    0.228516
    14  H    0.234143
 Sum of Mulliken charges =   0.00000

 Dipole moment (field-independent basis, Debye):
    X=              1.5942    Y=             -0.0007    Z=              0.0002  Tot=              1.5942
 Quadrupole moment (field-independent basis, Debye-Ang):
   XX=            -28.2486   YY=            -36.3434   ZZ=            -36.0090
   XY=              0.0008   XZ=              0.0002   YZ=              2.4307

  Exact polarizability:  71.135   0.000  51.816   0.000  -0.133  32.423
 Approx polarizability: 103.696  -0.000  69.097   0.001  -1.717  47.052

                      1                      2                      3
                      A                      A                      A
 Frequencies --    160.2810               250.8623               275.3797
 Red. masses --      2.1282                 1.8082                 2.5895
 Frc consts  --      0.0322                 0.0670                 0.1157
 IR Inten    --      0.3621                44.7832                12.4281

                      4                      5                      6
                      A                      A                      A
 Frequencies --    322.7137               365.6356               383.4785
 Red. masses --      1.2874                 1.6105                 2.9355
 Frc consts  --      0.0790                 0.1269                 0.2543
 IR Inten    --      0.2365                10.6952                 1.6870

                      7                      8                      9
                      A                      A                      A
 Frequencies --    447.1784               447.7242               498.4459
 Red. masses --      1.1417                 1.1477                 2.0304
 Frc consts  --      0.1345                 0.1356                 0.2972
 IR Inten    --     11.3869                89.4594                24.9384

                     10                     11                     12
                      A                      A                      A
 Frequencies --    559.0177               610.0274               765.2187
 Red. masses --      4.8451                 2.7693                 4.9746
 Frc consts  --      0.8921                 0.6072                 1.7163
 IR Inten    --      4.9656                71.3204                 8.8266

                     13                     14                     15
                      A                      A                      A
 Frequencies --    798.4199               831.3287               856.9526
 Red. masses --      1.2691                 1.2865                 1.6229
 Frc consts  --      0.4766                 0.5239                 0.7022
 IR Inten    --    235.3729               265.2723               337.9613

                     16                     17                     18
                      A                      A                      A
 Frequencies --    868.0065              1058.1000              1145.1844
 Red. masses --      1.6405                 2.3297                 1.1197
 Frc consts  --      0.7282                 1.5368                 0.8652
 IR Inten    --     23.7878                25.6580                 0.1640

                     19                     20                     21
                      A                      A                      A
 Frequencies --   1157.0007              1215.9312              1253.6819
 Red. masses --      1.3047                 2.9729                 1.6985
 Frc consts  --      1.0290                 2.5897                 1.5729
 IR Inten    --      5.7140                34.6760                17.0417

                     22                     23                     24
                      A                      A                      A
 Frequencies --   1295.6860              1423.3171              1616.0877
 Red. masses --      1.9084                 3.6844                 1.2199
 Frc consts  --      1.8876                 4.3976                 1.8771
 IR Inten    --     55.1706                30.2524                 2.9701

                     25                     26                     27
                      A                      A                      A
 Frequencies --   1632.8440              1655.3023              1659.8007
 Red. masses --      1.1829                 1.1061                 1.1729
 Frc consts  --      1.8582                 1.7856                 1.9037
 IR Inten    --    108.1731                 5.5270                10.1463

                     28                     29                     30
                      A                      A                      A
 Frequencies --   1796.9289              3444.2523              3444.6120
 Red. masses --      3.4724                 1.0466                 1.0475
 Frc consts  --      6.6060                 7.3154                 7.3231
 IR Inten    --    110.0517                21.5587                10.1292

                     31                     32                     33
                      A                      A                      A
 Frequencies --   3499.8933              3506.4123              3508.6926
 Red. masses --      1.0897                 1.0503                 1.0611
 Frc consts  --      7.8645                 7.6083                 7.6967
 IR Inten    --      1.4957                11.5958                 8.7633

                     34                     35                     36
                      A                      A                      A
 Frequencies --   3511.3329              3614.9511              3616.1054
 Red. masses --      1.0793                 1.0963                 1.0958
 Frc consts  --      7.8406                 8.4409                 8.4424
 IR Inten    --      4.2964                13.7667                16.2550

 - Thermochemistry -
 -------------------
 Temperature   298.150 Kelvin.  Pressure   1.00000 Atm.
 Atom     1 has atomic number  7 and mass  14.00307

 Molecular mass:    88.07490 amu.
 Principal axes and moments of inertia in atomic units:
                           1         2         3
     Eigenvalues --   374.21075 540.59133 889.15068
           X            1.00000   0.00001  -0.00000
           Y           -0.00001   0.99994   0.01121
           Z            0.00000  -0.01121   0.99994
 This molecule is an asymmetric top.
 Rotational symmetry number  1.
 Rotational temperatures (Kelvin)      0.23146     0.16022     0.09741
 Rotational constants (GHZ):           4.82279     3.33846     2.02974
 Zero-point vibrational energy     319981.8 (Joules/Mol)
                                   76.47750 (Kcal/Mol)
 Warning -- explicit consideration of  11 degrees of freedom as
           vibrations may cause significant error
 Vibrational temperatures:    230.61   360.93   396.21   464.31   526.07
          (Kelvin)            551.74   643.39   644.17   717.15   804.30
                              877.69  1100.98  1148.75  1196.10  1232.96
                             1248.87  1522.37  1647.66  1664.66  1749.45
                             1803.77  1864.20  2047.83  2325.19  2349.30
                             2381.61  2388.08  2585.38  4955.50  4956.02
                             5035.56  5044.94  5048.22  5052.02  5201.10
                             5202.76

 Zero-point correction=                           0.121875 (Hartree/Particle)
 Thermal correction to Energy=                    0.128920
 Thermal correction to Enthalpy=                  0.129864
 Thermal correction to Gibbs Free Energy=         0.091957
 Sum of electronic and zero-point Energies=           -299.904667
 Sum of electronic and thermal Energies=              -299.897621
 Sum of electronic and thermal Enthalpies=            -299.896677
 Sum of electronic and thermal Free Energies=         -299.934585

                     E (Thermal)             CV                S
                      KCal/Mol        Cal/Mol-Kelvin    Cal/Mol-Kelvin
 Total                   80.899             26.817             79.783
 Electronic               0.000              0.000              0.000
 Translational            0.889              2.981             39.340
 Rotational               0.889              2.981             26.689
 Vibrational             79.121             20.855             13.754
 Vibration     1          0.622              1.891              2.546
 Vibration     2          0.663              1.761              1.725
 Vibration     3          0.677              1.719              1.562
 Vibration     4          0.708              1.630              1.296
 Vibration     5          0.739              1.543              1.098
 Vibration     6          0.753              1.505              1.025
 Vibration     7          0.806              1.367              0.804
 Vibration     8          0.807              1.366              0.803
 Vibration     9          0.854              1.253              0.662
 Vibration    10          0.915              1.120              0.526
 Vibration    11          0.969              1.011              0.433

 Optimization completed.
    -- Stationary point found.
 Normal termination of Gaussian 09 at Fri Sep 10 17:35:54 2021.
