 Gaussian 09, Revision E.01,
 Gaussian 09:  ES64L-G09RevE.01 30-Nov-2015

 ----------------------------
 #P OPT Freq B3LYP/6-31G(d,p)
 ----------------------------

 --------
 Frag_616
 --------
 Symbolic Z-matrix:
 Charge =  0 Multiplicity = 1

 SCF Done:  E(RB3LYP) =  -382.923261485     A.U. after   14 cycles
 SCF Done:  E(RB3LYP) =  -382.923356783     A.U. after   12 cycles
 SCF Done:  E(RB3LYP) =  -382.923239882     A.U. after   12 cycles
 SCF Done:  E(RB3LYP) =  -382.923385272     A.U. after    8 cycles
 SCF Done:  E(RB3LYP) =  -382.923372957     A.U. after   11 cycles
 SCF Done:  E(RB3LYP) =  -382.923396051     A.U. after   10 cycles
 SCF Done:  E(RB3LYP) =  -382.923399656     A.U. after    8 cycles
 SCF Done:  E(RB3LYP) =  -382.923402120     A.U. after    8 cycles
 SCF Done:  E(RB3LYP) =  -382.923403041     A.U. after    8 cycles
 SCF Done:  E(RB3LYP) =  -382.923403165     A.U. after    7 cycles
 Optimization completed.
    -- Stationary point found.
 Normal termination of Gaussian 09 at Thu Sep  8 15:19:48 2022.

 ----------------------------------------------------------------------
 #P Geom=AllCheck Guess=TCheck SCRF=Check GenChk RB3LYP/6-31G(d,p) Freq
 ----------------------------------------------------------------------

 Structure from the checkpoint file:  "B3LYP6-31Gdp.Frag_616.chk"
 --------
 Frag_616
 --------
 Charge =  0 Multiplicity = 1

                         Standard orientation:
 ---------------------------------------------------------------------
 Center     Atomic      Atomic             Coordinates (Angstroms)
 Number     Number       Type             X           Y           Z
 ---------------------------------------------------------------------
      1          6           0        1.831643   -0.965977    0.057010
      2          6           0        0.910429    0.215949   -0.086236
      3          8           0        1.314177    1.360640   -0.218550
      4          6           0       -0.624894   -0.015914    0.014175
      5          6           0       -1.157821   -1.066808   -0.949822
      6          8           0       -1.261357    1.206605   -0.191300
      7          8           0       -0.858893   -0.493816    1.342796
      8          1           0        1.512974   -1.588011    0.897404
      9          1           0        2.856832   -0.621461    0.197819
     10          1           0        1.783113   -1.584785   -0.846554
     11          1           0       -2.244205   -1.107329   -0.841789
     12          1           0       -0.748025   -2.054381   -0.725422
     13          1           0       -0.916385   -0.797157   -1.981802
     14          1           0       -0.537544    1.862433   -0.249001
     15          1           0       -1.014327    0.299761    1.875016
 ---------------------------------------------------------------------

 SCF Done:  E(RB3LYP) =  -382.923403165     A.U. after    1 cycles

 The electronic state is 1-A.
 Alpha  occ. eigenvalues --  -19.16630 -19.15584 -19.15198 -10.29754 -10.29087
 Alpha  occ. eigenvalues --  -10.20096 -10.18501  -1.08402  -1.04732  -0.99599
 Alpha  occ. eigenvalues --   -0.77752  -0.73789  -0.63983  -0.56845  -0.53661
 Alpha  occ. eigenvalues --   -0.50404  -0.46621  -0.44833  -0.43460  -0.42197
 Alpha  occ. eigenvalues --   -0.39998  -0.39672  -0.37371  -0.37104  -0.35458
 Alpha  occ. eigenvalues --   -0.31945  -0.28890  -0.25642
 Alpha virt. eigenvalues --   -0.03433   0.07913   0.10363   0.12604   0.14463
 Alpha virt. eigenvalues --    0.14853   0.15920   0.16472   0.17432   0.20781
 Alpha virt. eigenvalues --    0.22027   0.25074   0.26669   0.30761   0.34980

 Mulliken charges:
               1
     1  C   -0.394636
     2  C    0.421575
     3  O   -0.464409
     4  C    0.411824
     5  C   -0.315375
     6  O   -0.556411
     7  O   -0.534498
     8  H    0.157006
     9  H    0.140559
    10  H    0.142014
    11  H    0.135762
    12  H    0.112480
    13  H    0.111747
    14  H    0.322712
    15  H    0.309650
 Sum of Mulliken charges =  -0.00000

 Dipole moment (field-independent basis, Debye):
    X=              0.8967    Y=             -1.3286    Z=              0.0058  Tot=              1.6029
 Quadrupole moment (field-independent basis, Debye-Ang):
   XX=            -44.0587   YY=            -42.4239   ZZ=            -39.4437
   XY=             -2.9013   XZ=              0.0579   YZ=              3.5429

  Exact polarizability:  53.331   0.009  55.113  -0.313   0.206  44.481
 Approx polarizability:  69.304   3.654  84.770  -2.608  -3.413  63.254

                      1                      2                      3
                      A                      A                      A
 Frequencies --     72.5570               130.5061               208.1675
 Red. masses --      4.7359                 1.0556                 2.1200
 Frc consts  --      0.0147                 0.0106                 0.0541
 IR Inten    --      1.1318                 0.7486                 0.7214

                      4                      5                      6
                      A                      A                      A
 Frequencies --    241.0042               247.2265               260.6397
 Red. masses --      1.3011                 1.2477                 2.7731
 Frc consts  --      0.0445                 0.0449                 0.1110
 IR Inten    --     56.9152                30.5877                 2.9626

                      7                      8                      9
                      A                      A                      A
 Frequencies --    370.6878               400.5996               427.1419
 Red. masses --      2.5696                 5.4773                 3.8183
 Frc consts  --      0.2080                 0.5179                 0.4105
 IR Inten    --      7.2211                20.5585                10.8463

                     10                     11                     12
                      A                      A                      A
 Frequencies --    507.7487               572.1527               600.1376
 Red. masses --      3.0658                 1.4684                 4.3046
 Frc consts  --      0.4657                 0.2832                 0.9135
 IR Inten    --     40.2608                28.7919                11.6936

                     13                     14                     15
                      A                      A                      A
 Frequencies --    644.0845               703.1623               907.8259
 Red. masses --      1.6148                 3.6296                 2.2433
 Frc consts  --      0.3947                 1.0574                 1.0893
 IR Inten    --     16.8977                 5.3730                21.0923

                     16                     17                     18
                      A                      A                      A
 Frequencies --    965.8860               982.5258              1041.3130
 Red. masses --      2.0450                 2.0486                 1.9276
 Frc consts  --      1.1241                 1.1652                 1.2315
 IR Inten    --     64.7752                13.6101                25.3550

                     19                     20                     21
                      A                      A                      A
 Frequencies --   1094.8983              1129.4566              1181.4580
 Red. masses --      2.0580                 1.8854                 2.9391
 Frc consts  --      1.4536                 1.4171                 2.4171
 IR Inten    --     55.4113                50.7795                85.5467

                     22                     23                     24
                      A                      A                      A
 Frequencies --   1240.5519              1368.3600              1396.5287
 Red. masses --      2.3293                 1.6115                 1.3504
 Frc consts  --      2.1121                 1.7777                 1.5517
 IR Inten    --     81.2948               104.4271                39.6339

                     25                     26                     27
                      A                      A                      A
 Frequencies --   1417.9883              1446.4034              1474.3465
 Red. masses --      1.3686                 1.5394                 1.0501
 Frc consts  --      1.6213                 1.8975                 1.3448
 IR Inten    --     58.5483                72.7348                11.9626

                     28                     29                     30
                      A                      A                      A
 Frequencies --   1487.6848              1499.3284              1505.0799
 Red. masses --      1.0560                 1.0594                 1.0894
 Frc consts  --      1.3770                 1.4031                 1.4540
 IR Inten    --     11.1662                 3.4131                 6.6895

                     31                     32                     33
                      A                      A                      A
 Frequencies --   1796.4509              3055.3144              3062.9134
 Red. masses --     10.7516                 1.0388                 1.0348
 Frc consts  --     20.4435                 5.7136                 5.7200
 IR Inten    --    124.1722                 0.3522                 8.3456

                     34                     35                     36
                      A                      A                      A
 Frequencies --   3127.2885              3143.4388              3150.8577
 Red. masses --      1.0947                 1.1036                 1.1033
 Frc consts  --      6.3079                 6.4249                 6.4538
 IR Inten    --      3.9465                15.3083                12.8372

                     37                     38                     39
                      A                      A                      A
 Frequencies --   3171.0580              3609.0269              3804.6970
 Red. masses --      1.1054                 1.0643                 1.0657
 Frc consts  --      6.5491                 8.1679                 9.0889
 IR Inten    --      5.9806               107.9649                39.3212

 - Thermochemistry -
 -------------------
 Temperature   298.150 Kelvin.  Pressure   1.00000 Atm.
 Atom     1 has atomic number  6 and mass  12.00000

 Molecular mass:   104.04734 amu.
 Principal axes and moments of inertia in atomic units:
                           1         2         3
     Eigenvalues --   529.59704 745.63020 910.24957
           X            0.99774  -0.06274   0.02394
           Y            0.06054   0.99466   0.08360
           Z           -0.02906  -0.08196   0.99621
 This molecule is an asymmetric top.
 Rotational symmetry number  1.
 Warning -- assumption of classical behavior for rotation
           may cause significant error
 Rotational temperatures (Kelvin)      0.16355     0.11616     0.09515
 Rotational constants (GHZ):           3.40776     2.42042     1.98269
 Zero-point vibrational energy     319681.0 (Joules/Mol)
                                   76.40560 (Kcal/Mol)
 Warning -- explicit consideration of  12 degrees of freedom as
           vibrations may cause significant error
 Vibrational temperatures:    104.39   187.77   299.51   346.75   355.70
          (Kelvin)            375.00   533.34   576.37   614.56   730.54
                              823.20   863.46   926.69  1011.69  1306.16
                             1389.69  1413.63  1498.22  1575.31  1625.03
                             1699.85  1784.88  1968.76  2009.29  2040.17
                             2081.05  2121.25  2140.44  2157.20  2165.47
                             2584.69  4395.91  4406.84  4499.46  4522.70
                             4533.38  4562.44  5192.58  5474.10

 Zero-point correction=                           0.121760 (Hartree/Particle)
 Thermal correction to Energy=                    0.130099
 Thermal correction to Enthalpy=                  0.131043
 Thermal correction to Gibbs Free Energy=         0.089509
 Sum of electronic and zero-point Energies=           -382.801643
 Sum of electronic and thermal Energies=              -382.793304
 Sum of electronic and thermal Enthalpies=            -382.792360
 Sum of electronic and thermal Free Energies=         -382.833894

                     E (Thermal)             CV                S
                      KCal/Mol        Cal/Mol-Kelvin    Cal/Mol-Kelvin
 Total                   81.638             29.824             87.417
 Electronic               0.000              0.000              0.000
 Translational            0.889              2.981             39.836
 Rotational               0.889              2.981             27.377
 Vibrational             79.861             23.863             20.203
 Vibration     1          0.599              1.967              4.083
 Vibration     2          0.612              1.923              2.939
 Vibration     3          0.641              1.828              2.060
 Vibration     4          0.658              1.778              1.795
 Vibration     5          0.661              1.767              1.750
 Vibration     6          0.669              1.745              1.657
 Vibration     7          0.743              1.532              1.077
 Vibration     8          0.766              1.469              0.960
 Vibration     9          0.789              1.411              0.868
 Vibration    10          0.863              1.233              0.639
 Vibration    11          0.928              1.091              0.500
 Vibration    12          0.958              1.032              0.449

 Normal termination of Gaussian 09 at Thu Sep  8 15:20:02 2022.
