 Gaussian 09, Revision E.01,
 Gaussian 09:  ES64L-G09RevE.01 30-Nov-2015

 ----------------------------
 #P OPT Freq B3LYP/6-31G(d,p)
 ----------------------------

 ---------
 Frag_1149
 ---------
 Symbolic Z-matrix:
 Charge =  0 Multiplicity = 1

 SCF Done:  E(RB3LYP) =  -321.043152293     A.U. after   13 cycles
 SCF Done:  E(RB3LYP) =  -321.043200401     A.U. after   10 cycles
 SCF Done:  E(RB3LYP) =  -321.043207735     A.U. after    8 cycles
 SCF Done:  E(RB3LYP) =  -321.043210113     A.U. after    7 cycles
 SCF Done:  E(RB3LYP) =  -321.043211803     A.U. after    8 cycles
 SCF Done:  E(RB3LYP) =  -321.043212832     A.U. after    7 cycles
 SCF Done:  E(RB3LYP) =  -321.043213959     A.U. after    8 cycles
 SCF Done:  E(RB3LYP) =  -321.043214238     A.U. after    7 cycles
 Optimization completed.
    -- Stationary point found.
 Normal termination of Gaussian 09 at Thu Sep  8 14:50:15 2022.

 ----------------------------------------------------------------------
 #P Geom=AllCheck Guess=TCheck SCRF=Check GenChk RB3LYP/6-31G(d,p) Freq
 ----------------------------------------------------------------------

 Structure from the checkpoint file:  "B3LYP6-31Gdp.Frag_1149.chk"
 ---------
 Frag_1149
 ---------
 Charge =  0 Multiplicity = 1

                         Standard orientation:
 ---------------------------------------------------------------------
 Center     Atomic      Atomic             Coordinates (Angstroms)
 Number     Number       Type             X           Y           Z
 ---------------------------------------------------------------------
      1          6           0        1.066583    1.196814    0.666922
      2          6           0        0.659870    0.233115   -0.455314
      3          8           0        1.563399   -0.848918   -0.551313
      4          7           0       -0.720641   -0.290218   -0.370945
      5          7           0       -1.638015    0.789138   -0.452536
      6          7           0       -0.980851   -1.130816    0.753024
      7          1           0        2.088571    1.544357    0.495857
      8          1           0        0.407465    2.068621    0.694818
      9          1           0        1.044286    0.714517    1.653192
     10          1           0        0.699737    0.758239   -1.412445
     11          1           0        1.734210   -1.172385    0.343567
     12          1           0       -1.813627    1.177906    0.479828
     13          1           0       -2.521868    0.389778   -0.759289
     14          1           0       -0.610054   -2.051239    0.532981
     15          1           0       -0.518078   -0.794750    1.605546
 ---------------------------------------------------------------------

 SCF Done:  E(RB3LYP) =  -321.043214238     A.U. after    1 cycles

 The electronic state is 1-A.
 Alpha  occ. eigenvalues --  -19.14923 -14.36886 -14.34530 -14.33957 -10.25811
 Alpha  occ. eigenvalues --  -10.18541  -1.03769  -0.98805  -0.85589  -0.76468
 Alpha  occ. eigenvalues --   -0.70251  -0.60641  -0.52781  -0.50500  -0.49027
 Alpha  occ. eigenvalues --   -0.46948  -0.45856  -0.43189  -0.39941  -0.37823
 Alpha  occ. eigenvalues --   -0.33599  -0.29408  -0.26610  -0.25127  -0.22557
 Alpha virt. eigenvalues --    0.05136   0.08983   0.10787   0.12846   0.13763
 Alpha virt. eigenvalues --    0.15667   0.15966   0.17924   0.19235   0.20115
 Alpha virt. eigenvalues --    0.22183   0.23302   0.27488   0.30986   0.53730

 Mulliken charges:
               1
     1  C   -0.361044
     2  C    0.312651
     3  O   -0.530673
     4  N   -0.232459
     5  N   -0.432527
     6  N   -0.463662
     7  H    0.127788
     8  H    0.123860
     9  H    0.082158
    10  H    0.122317
    11  H    0.290061
    12  H    0.223434
    13  H    0.261253
    14  H    0.262387
    15  H    0.214457
 Sum of Mulliken charges =  -0.00000

 Dipole moment (field-independent basis, Debye):
    X=              0.3027    Y=              0.2500    Z=              2.8261  Tot=              2.8532
 Quadrupole moment (field-independent basis, Debye-Ang):
   XX=            -37.1042   YY=            -36.3574   ZZ=            -37.6418
   XY=             -0.9920   XZ=              2.6912   YZ=             -1.3677

  Exact polarizability:  51.034  -1.944  48.954   1.774  -2.282  44.437
 Approx polarizability:  65.907  -4.569  67.406   1.726  -3.524  65.519

                      1                      2                      3
                      A                      A                      A
 Frequencies --    113.8108               219.8017               260.7691
 Red. masses --      3.2916                 1.1632                 1.0840
 Frc consts  --      0.0251                 0.0331                 0.0434
 IR Inten    --      1.3104               143.8249                 8.1467

                      4                      5                      6
                      A                      A                      A
 Frequencies --    272.0318               308.4931               315.1226
 Red. masses --      2.2534                 3.3043                 1.1532
 Frc consts  --      0.0982                 0.1853                 0.0675
 IR Inten    --     21.5071                 8.0515                27.2410

                      7                      8                      9
                      A                      A                      A
 Frequencies --    377.5471               413.8077               481.8376
 Red. masses --      1.1367                 3.0468                 2.6524
 Frc consts  --      0.0955                 0.3074                 0.3628
 IR Inten    --     15.3411                 2.7766                24.7788

                     10                     11                     12
                      A                      A                      A
 Frequencies --    521.0743               605.5136               761.0366
 Red. masses --      3.0767                 2.6770                 3.3511
 Frc consts  --      0.4922                 0.5783                 1.1435
 IR Inten    --     17.2514                 7.0316                41.3591

                     13                     14                     15
                      A                      A                      A
 Frequencies --    877.9523               891.5657               952.0574
 Red. masses --      2.1605                 2.6033                 1.7079
 Frc consts  --      0.9812                 1.2192                 0.9121
 IR Inten    --     94.7103                84.9242                13.6653

                     16                     17                     18
                      A                      A                      A
 Frequencies --   1028.6076              1058.3066              1132.6060
 Red. masses --      1.6168                 1.5941                 2.8137
 Frc consts  --      1.0079                 1.0519                 2.1266
 IR Inten    --     40.5755                40.1356                89.8769

                     19                     20                     21
                      A                      A                      A
 Frequencies --   1168.4994              1217.9534              1296.3257
 Red. masses --      3.1396                 1.7954                 1.3722
 Frc consts  --      2.5257                 1.5691                 1.3586
 IR Inten    --     89.8754                11.7179                 9.0611

                     22                     23                     24
                      A                      A                      A
 Frequencies --   1313.6740              1346.0171              1383.3524
 Red. masses --      1.5305                 1.2756                 1.2567
 Frc consts  --      1.5562                 1.3616                 1.4169
 IR Inten    --      6.1262                 4.1223                 6.4605

                     25                     26                     27
                      A                      A                      A
 Frequencies --   1405.8262              1421.1959              1504.9382
 Red. masses --      1.1975                 1.3157                 1.0532
 Frc consts  --      1.3944                 1.5657                 1.4054
 IR Inten    --     19.9849                61.4918                 0.6980

                     28                     29                     30
                      A                      A                      A
 Frequencies --   1515.6943              1662.0078              1694.1581
 Red. masses --      1.0474                 1.0861                 1.0763
 Frc consts  --      1.4177                 1.7675                 1.8201
 IR Inten    --      7.7608                 8.2331                18.4580

                     31                     32                     33
                      A                      A                      A
 Frequencies --   3033.8422              3103.3624              3120.3209
 Red. masses --      1.0450                 1.0867                 1.0914
 Frc consts  --      5.6670                 6.1661                 6.2606
 IR Inten    --     14.7501                 4.1806                40.0646

                     34                     35                     36
                      A                      A                      A
 Frequencies --   3141.9375              3362.5184              3384.9277
 Red. masses --      1.1032                 1.0553                 1.0576
 Frc consts  --      6.4167                 7.0297                 7.1396
 IR Inten    --     15.1437                29.3878                15.8943

                     37                     38                     39
                      A                      A                      A
 Frequencies --   3539.9701              3559.2870              3800.5144
 Red. masses --      1.0833                 1.0848                 1.0659
 Frc consts  --      7.9984                 8.0967                 9.0712
 IR Inten    --      0.4978                 0.6759                 7.3062

 - Thermochemistry -
 -------------------
 Temperature   298.150 Kelvin.  Pressure   1.00000 Atm.
 Atom     1 has atomic number  6 and mass  12.00000

 Molecular mass:    91.07456 amu.
 Principal axes and moments of inertia in atomic units:
                           1         2         3
     Eigenvalues --   382.81712 608.83128 745.02181
           X            0.99926   0.02927   0.02501
           Y           -0.02926   0.99957  -0.00085
           Z           -0.02502   0.00012   0.99969
 This molecule is an asymmetric top.
 Rotational symmetry number  1.
 Rotational temperatures (Kelvin)      0.22625     0.14226     0.11626
 Rotational constants (GHZ):           4.71437     2.96427     2.42240
 Zero-point vibrational energy     344334.7 (Joules/Mol)
                                   82.29797 (Kcal/Mol)
 Warning -- explicit consideration of  11 degrees of freedom as
           vibrations may cause significant error
 Vibrational temperatures:    163.75   316.25   375.19   391.39   443.85
          (Kelvin)            453.39   543.21   595.38   693.26   749.71
                              871.20  1094.96  1263.18  1282.76  1369.80
                             1479.94  1522.67  1629.57  1681.21  1752.36
                             1865.12  1890.08  1936.62  1990.33  2022.67
                             2044.78  2165.27  2180.74  2391.26  2437.51
                             4365.02  4465.04  4489.44  4520.54  4837.91
                             4870.15  5093.22  5121.01  5468.09

 Zero-point correction=                           0.131150 (Hartree/Particle)
 Thermal correction to Energy=                    0.138628
 Thermal correction to Enthalpy=                  0.139572
 Thermal correction to Gibbs Free Energy=         0.100597
 Sum of electronic and zero-point Energies=           -320.912064
 Sum of electronic and thermal Energies=              -320.904586
 Sum of electronic and thermal Enthalpies=            -320.903642
 Sum of electronic and thermal Free Energies=         -320.942617

                     E (Thermal)             CV                S
                      KCal/Mol        Cal/Mol-Kelvin    Cal/Mol-Kelvin
 Total                   86.990             27.441             82.030
 Electronic               0.000              0.000              0.000
 Translational            0.889              2.981             39.439
 Rotational               0.889              2.981             26.654
 Vibrational             85.213             21.480             15.936
 Vibration     1          0.607              1.938              3.203
 Vibration     2          0.647              1.811              1.961
 Vibration     3          0.669              1.744              1.657
 Vibration     4          0.675              1.725              1.583
 Vibration     5          0.698              1.658              1.370
 Vibration     6          0.702              1.645              1.335
 Vibration     7          0.748              1.518              1.049
 Vibration     8          0.777              1.440              0.913
 Vibration     9          0.838              1.290              0.705
 Vibration    10          0.876              1.203              0.607
 Vibration    11          0.964              1.020              0.440

 Optimization completed.
    -- Stationary point found.
 Normal termination of Gaussian 09 at Thu Sep  8 14:50:27 2022.
