 Gaussian 09, Revision E.01,
 Gaussian 09:  ES64L-G09RevE.01 30-Nov-2015

 ----------------------------
 #P OPT Freq B3LYP/6-31G(d,p)
 ----------------------------

 --------
 Frag_572
 --------
 Symbolic Z-matrix:
 Charge =  0 Multiplicity = 1

 SCF Done:  E(RB3LYP) =  -227.407515362     A.U. after   14 cycles
 SCF Done:  E(RB3LYP) =  -227.407629748     A.U. after    9 cycles
 SCF Done:  E(RB3LYP) =  -227.407640521     A.U. after    9 cycles
 SCF Done:  E(RB3LYP) =  -227.407649678     A.U. after   10 cycles
 SCF Done:  E(RB3LYP) =  -227.407650930     A.U. after    8 cycles
 SCF Done:  E(RB3LYP) =  -227.407651377     A.U. after    7 cycles
 SCF Done:  E(RB3LYP) =  -227.407651453     A.U. after    7 cycles
 Optimization completed.
    -- Stationary point found.
 Normal termination of Gaussian 09 at Thu Sep  8 15:21:22 2022.

 ----------------------------------------------------------------------
 #P Geom=AllCheck Guess=TCheck SCRF=Check GenChk RB3LYP/6-31G(d,p) Freq
 ----------------------------------------------------------------------

 Structure from the checkpoint file:  "B3LYP6-31Gdp.Frag_572.chk"
 --------
 Frag_572
 --------
 Charge =  0 Multiplicity = 1

                         Standard orientation:
 ---------------------------------------------------------------------
 Center     Atomic      Atomic             Coordinates (Angstroms)
 Number     Number       Type             X           Y           Z
 ---------------------------------------------------------------------
      1          6           0        1.014233    1.245173    0.058357
      2          7           0        0.300127   -0.000012   -0.237407
      3          6           0        1.014607   -1.244971    0.058372
      4          6           0       -1.026300   -0.000236   -0.046109
      5          7           0       -2.188883   -0.000074    0.072897
      6          1           0        1.963644    1.242271   -0.484510
      7          1           0        0.418756    2.092962   -0.283331
      8          1           0        1.219915    1.362613    1.131746
      9          1           0        1.220240   -1.362383    1.131774
     10          1           0        0.419436   -2.092938   -0.283406
     11          1           0        1.964056   -1.241715   -0.484423
 ---------------------------------------------------------------------

 SCF Done:  E(RB3LYP) =  -227.407651453     A.U. after    1 cycles

 The electronic state is 1-A.
 Alpha  occ. eigenvalues --  -14.39355 -14.31470 -10.24038 -10.23972 -10.23971
 Alpha  occ. eigenvalues --   -0.97912  -0.87547  -0.74441  -0.70610  -0.55244
 Alpha  occ. eigenvalues --   -0.49458  -0.48798  -0.42845  -0.42415  -0.40559
 Alpha  occ. eigenvalues --   -0.35731  -0.34541  -0.31724  -0.24185
 Alpha virt. eigenvalues --    0.04138   0.06545   0.07650   0.11988   0.12408
 Alpha virt. eigenvalues --    0.13838   0.15430   0.15912   0.17192   0.22263
 Alpha virt. eigenvalues --    0.23913   0.44712   0.46899   0.49850   0.51725

 Mulliken charges:
               1
     1  C   -0.173259
     2  N   -0.469565
     3  C   -0.173258
     4  C    0.502512
     5  N   -0.472765
     6  H    0.126193
     7  H    0.145182
     8  H    0.121799
     9  H    0.121799
    10  H    0.145174
    11  H    0.126187
 Sum of Mulliken charges =   0.00000

 Dipole moment (field-independent basis, Debye):
    X=              4.7336    Y=              0.0003    Z=              0.1977  Tot=              4.7378
 Quadrupole moment (field-independent basis, Debye-Ang):
   XX=            -37.9667   YY=            -26.5675   ZZ=            -30.8488
   XY=             -0.0004   XZ=              0.5240   YZ=              0.0000

  Exact polarizability:  57.056  -0.001  38.169  -0.630  -0.000  30.701
 Approx polarizability:  90.219  -0.004  47.604  -3.539   0.000  42.538

                      1                      2                      3
                      A                      A                      A
 Frequencies --    154.9050               189.3506               206.1528
 Red. masses --      1.6337                 1.0978                 3.5764
 Frc consts  --      0.0231                 0.0232                 0.0896
 IR Inten    --      1.5334                 0.9797                 4.4522

                      4                      5                      6
                      A                      A                      A
 Frequencies --    224.8781               367.0649               525.9334
 Red. masses --      1.6425                 2.3523                10.4590
 Frc consts  --      0.0489                 0.1867                 1.7045
 IR Inten    --      4.1942                 1.0577                 9.8346

                      7                      8                      9
                      A                      A                      A
 Frequencies --    629.2184               779.3975              1077.3935
 Red. masses --      6.2216                 4.9195                 1.6012
 Frc consts  --      1.4513                 1.7607                 1.0951
 IR Inten    --      1.9649                 8.1202                16.5152

                     10                     11                     12
                      A                      A                      A
 Frequencies --   1078.6353              1124.1948              1172.7219
 Red. masses --      1.9314                 1.2323                 1.3634
 Frc consts  --      1.3240                 0.9176                 1.1047
 IR Inten    --     41.4001                 4.7894                 8.0461

                     13                     14                     15
                      A                      A                      A
 Frequencies --   1241.9745              1365.3572              1456.6919
 Red. masses --      3.6560                 3.0862                 1.1375
 Frc consts  --      3.3227                 3.3897                 1.4221
 IR Inten    --     18.4887                24.1454                 0.1932

                     16                     17                     18
                      A                      A                      A
 Frequencies --   1480.8322              1493.8406              1506.4586
 Red. masses --      1.1531                 1.0430                 1.0554
 Frc consts  --      1.4897                 1.3714                 1.4112
 IR Inten    --      4.6154                 5.5474                24.6384

                     19                     20                     21
                      A                      A                      A
 Frequencies --   1513.5331              1534.2456              2336.8425
 Red. masses --      1.0463                 1.0777                12.4423
 Frc consts  --      1.4122                 1.4946                40.0323
 IR Inten    --     10.2066                 5.3681               155.5920

                     22                     23                     24
                      A                      A                      A
 Frequencies --   3014.9775              3018.9765              3102.5313
 Red. masses --      1.0458                 1.0481                 1.0900
 Frc consts  --      5.6011                 5.6285                 6.1815
 IR Inten    --     32.9885                74.9546                45.4695

                     25                     26                     27
                      A                      A                      A
 Frequencies --   3103.7028              3157.1473              3157.9681
 Red. masses --      1.0921                 1.1025                 1.1033
 Frc consts  --      6.1981                 6.4746                 6.4828
 IR Inten    --      1.7452                 5.7073                13.0815

 - Thermochemistry -
 -------------------
 Temperature   298.150 Kelvin.  Pressure   1.00000 Atm.
 Atom     1 has atomic number  6 and mass  12.00000

 Molecular mass:    70.05310 amu.
 Principal axes and moments of inertia in atomic units:
                           1         2         3
     Eigenvalues --   203.76982 429.48207 603.42672
           X            0.99998  -0.00001   0.00617
           Y            0.00001   1.00000  -0.00000
           Z           -0.00617   0.00000   0.99998
 This molecule is an asymmetric top.
 Rotational symmetry number  1.
 Rotational temperatures (Kelvin)      0.42506     0.20167     0.14354
 Rotational constants (GHZ):           8.85676     4.20213     2.99082
 Zero-point vibrational energy     239342.4 (Joules/Mol)
                                   57.20421 (Kcal/Mol)
 Warning -- explicit consideration of   6 degrees of freedom as
           vibrations may cause significant error
 Vibrational temperatures:    222.87   272.43   296.61   323.55   528.12
          (Kelvin)            756.70   905.30  1121.38  1550.13  1551.91
                             1617.46  1687.28  1786.92  1964.44  2095.85
                             2130.58  2149.30  2167.46  2177.63  2207.43
                             3362.19  4337.87  4343.63  4463.84  4465.53
                             4542.43  4543.61

 Zero-point correction=                           0.091161 (Hartree/Particle)
 Thermal correction to Energy=                    0.097206
 Thermal correction to Enthalpy=                  0.098150
 Thermal correction to Gibbs Free Energy=         0.062205
 Sum of electronic and zero-point Energies=           -227.316491
 Sum of electronic and thermal Energies=              -227.310446
 Sum of electronic and thermal Enthalpies=            -227.309502
 Sum of electronic and thermal Free Energies=         -227.345447

                     E (Thermal)             CV                S
                      KCal/Mol        Cal/Mol-Kelvin    Cal/Mol-Kelvin
 Total                   60.998             19.575             75.653
 Electronic               0.000              0.000              0.000
 Translational            0.889              2.981             38.657
 Rotational               0.889              2.981             25.471
 Vibrational             59.220             13.613             11.524
 Vibration     1          0.620              1.897              2.611
 Vibration     2          0.633              1.855              2.234
 Vibration     3          0.641              1.831              2.077
 Vibration     4          0.650              1.803              1.919
 Vibration     5          0.740              1.540              1.092
 Vibration     6          0.881              1.193              0.596

 Optimization completed.
    -- Stationary point found.
 Normal termination of Gaussian 09 at Thu Sep  8 15:21:30 2022.
