 Gaussian 09, Revision E.01,
 Gaussian 09:  ES64L-G09RevE.01 30-Nov-2015

 ----------------------------
 #P OPT Freq B3LYP/6-31G(d,p)
 ----------------------------

 --------
 Frag_507
 --------
 Symbolic Z-matrix:
 Charge =  0 Multiplicity = 1

 SCF Done:  E(RB3LYP) =  -267.169889189     A.U. after   15 cycles
 SCF Done:  E(RB3LYP) =  -267.169997400     A.U. after    9 cycles
 SCF Done:  E(RB3LYP) =  -267.170001814     A.U. after    8 cycles
 Optimization completed.
    -- Stationary point found.
 Normal termination of Gaussian 09 at Thu Sep  8 14:55:00 2022.

 ----------------------------------------------------------------------
 #P Geom=AllCheck Guess=TCheck SCRF=Check GenChk RB3LYP/6-31G(d,p) Freq
 ----------------------------------------------------------------------

 Structure from the checkpoint file:  "B3LYP6-31Gdp.Frag_507.chk"
 --------
 Frag_507
 --------
 Charge =  0 Multiplicity = 1

                         Standard orientation:
 ---------------------------------------------------------------------
 Center     Atomic      Atomic             Coordinates (Angstroms)
 Number     Number       Type             X           Y           Z
 ---------------------------------------------------------------------
      1          6           0        1.926244    0.114677   -0.000001
      2          6           0        0.830426   -0.647618   -0.000000
      3          6           0       -0.553515   -0.120358    0.000018
      4          8           0       -1.545984   -0.820242   -0.000005
      5          8           0       -0.618478    1.236177   -0.000004
      6          1           0        2.917994   -0.326795   -0.000012
      7          1           0        1.861645    1.197587    0.000009
      8          1           0        0.882327   -1.731679   -0.000011
      9          1           0       -1.565207    1.453201   -0.000013
 ---------------------------------------------------------------------

 SCF Done:  E(RB3LYP) =  -267.170001814     A.U. after    1 cycles

 The electronic state is 1-A.
 Alpha  occ. eigenvalues --  -19.19631 -19.13883 -10.32240 -10.21308 -10.21096
 Alpha  occ. eigenvalues --   -1.10440  -1.01334  -0.79893  -0.66042  -0.58890
 Alpha  occ. eigenvalues --   -0.49510  -0.48232  -0.45553  -0.44574  -0.40030
 Alpha  occ. eigenvalues --   -0.38491  -0.32085  -0.29017  -0.27705
 Alpha virt. eigenvalues --   -0.05094   0.07501   0.08464   0.11906   0.13989
 Alpha virt. eigenvalues --    0.18464   0.25946   0.29099   0.32070   0.35363
 Alpha virt. eigenvalues --    0.51119   0.52196   0.55256   0.58989   0.62638

 Mulliken charges:
               1
     1  C   -0.210079
     2  C   -0.079279
     3  C    0.561914
     4  O   -0.470027
     5  O   -0.498213
     6  H    0.118096
     7  H    0.136837
     8  H    0.117509
     9  H    0.323241
 Sum of Mulliken charges =   0.00000

 Dipole moment (field-independent basis, Debye):
    X=              1.5868    Y=              1.2429    Z=              0.0000  Tot=              2.0156
 Quadrupole moment (field-independent basis, Debye-Ang):
   XX=            -26.2289   YY=            -27.9110   ZZ=            -29.3994
   XY=             -5.1575   XZ=             -0.0000   YZ=             -0.0000

  Exact polarizability:  53.965   4.793  38.651   0.000   0.000  15.931
 Approx polarizability:  83.281  19.074  60.871   0.000   0.000  22.737

                      1                      2                      3
                      A                      A                      A
 Frequencies --    116.1723               282.2712               482.2878
 Red. masses --      2.7342                 3.5951                 1.4220
 Frc consts  --      0.0217                 0.1688                 0.1949
 IR Inten    --      0.0938                 0.8703                10.0745

                      4                      5                      6
                      A                      A                      A
 Frequencies --    532.7130               583.7279               611.3618
 Red. masses --      5.4859                 3.2133                 1.1837
 Frc consts  --      0.9173                 0.6451                 0.2607
 IR Inten    --      8.1382                42.1531                95.8426

                      7                      8                      9
                      A                      A                      A
 Frequencies --    826.3233               841.3650               998.3330
 Red. masses --      4.0239                 3.0729                 1.3686
 Frc consts  --      1.6188                 1.2816                 0.8037
 IR Inten    --     40.4091                 7.1544                26.2137

                     10                     11                     12
                      A                      A                      A
 Frequencies --   1035.7246              1039.8894              1214.1849
 Red. masses --      1.0791                 1.6096                 1.7321
 Frc consts  --      0.6820                 1.0255                 1.5045
 IR Inten    --     19.0924                75.9812               172.1563

                     13                     14                     15
                      A                      A                      A
 Frequencies --   1314.2059              1380.0047              1458.2397
 Red. masses --      1.3224                 2.2946                 1.3671
 Frc consts  --      1.3457                 2.5746                 1.7127
 IR Inten    --      1.4055                56.7340                32.6322

                     16                     17                     18
                      A                      A                      A
 Frequencies --   1702.6369              1828.8411              3170.1001
 Red. masses --      4.5628                 9.2824                 1.0594
 Frc consts  --      7.7933                18.2920                 6.2730
 IR Inten    --     10.4367               302.7664                 4.0711

                     19                     20                     21
                      A                      A                      A
 Frequencies --   3212.2685              3263.9293              3768.2245
 Red. masses --      1.0945                 1.1163                 1.0644
 Frc consts  --      6.6541                 7.0067                 8.9047
 IR Inten    --      2.1799                 4.2375                62.6575

 - Thermochemistry -
 -------------------
 Temperature   298.150 Kelvin.  Pressure   1.00000 Atm.
 Atom     1 has atomic number  6 and mass  12.00000

 Molecular mass:    72.02113 amu.
 Principal axes and moments of inertia in atomic units:
                           1         2         3
     Eigenvalues --   168.47623 414.28820 582.76443
           X            0.99935  -0.03592  -0.00000
           Y            0.03592   0.99935   0.00000
           Z            0.00000  -0.00000   1.00000
 This molecule is an asymmetric top.
 Rotational symmetry number  1.
 Rotational temperatures (Kelvin)      0.51410     0.20907     0.14863
 Rotational constants (GHZ):          10.71214     4.35625     3.09686
 Zero-point vibrational energy     177423.0 (Joules/Mol)
                                   42.40511 (Kcal/Mol)
 Warning -- explicit consideration of   6 degrees of freedom as
           vibrations may cause significant error
 Vibrational temperatures:    167.15   406.12   693.90   766.45   839.85
          (Kelvin)            879.61  1188.89  1210.54  1436.38  1490.17
                             1496.17  1746.94  1890.85  1985.52  2098.08
                             2449.71  2631.29  4561.06  4621.73  4696.06
                             5421.63

 Zero-point correction=                           0.067577 (Hartree/Particle)
 Thermal correction to Energy=                    0.072601
 Thermal correction to Enthalpy=                  0.073545
 Thermal correction to Gibbs Free Energy=         0.039548
 Sum of electronic and zero-point Energies=           -267.102425
 Sum of electronic and thermal Energies=              -267.097401
 Sum of electronic and thermal Enthalpies=            -267.096457
 Sum of electronic and thermal Free Energies=         -267.130454

                     E (Thermal)             CV                S
                      KCal/Mol        Cal/Mol-Kelvin    Cal/Mol-Kelvin
 Total                   45.558             16.989             71.553
 Electronic               0.000              0.000              0.000
 Translational            0.889              2.981             38.740
 Rotational               0.889              2.981             25.212
 Vibrational             43.780             11.028              7.601
 Vibration     1          0.608              1.936              3.163
 Vibration     2          0.681              1.706              1.520
 Vibration     3          0.839              1.289              0.704
 Vibration     4          0.888              1.178              0.581
 Vibration     5          0.941              1.067              0.479
 Vibration     6          0.971              1.008              0.431

 Optimization completed.
    -- Stationary point found.
 Normal termination of Gaussian 09 at Thu Sep  8 14:55:07 2022.
