 Gaussian 09, Revision E.01,
 Gaussian 09:  ES64L-G09RevE.01 30-Nov-2015

 --------------------------------
 #P OPT=calcfc Freq B3LYP/6-31G**
 --------------------------------

 --------
 Frag_183
 --------
 Symbolic Z-matrix:
 Charge =  0 Multiplicity = 1

 SCF Done:  E(RB3LYP) =  -299.985271844     A.U. after   14 cycles
 SCF Done:  E(RB3LYP) =  -300.005988691     A.U. after   13 cycles
 SCF Done:  E(RB3LYP) =  -300.004951277     A.U. after   13 cycles
 SCF Done:  E(RB3LYP) =  -300.006410303     A.U. after   11 cycles
 SCF Done:  E(RB3LYP) =  -300.008771808     A.U. after   13 cycles
 SCF Done:  E(RB3LYP) =  -300.008417669     A.U. after   12 cycles
 SCF Done:  E(RB3LYP) =  -300.008786723     A.U. after    8 cycles
 SCF Done:  E(RB3LYP) =  -300.009665249     A.U. after   12 cycles
 SCF Done:  E(RB3LYP) =  -300.009838669     A.U. after   11 cycles
 SCF Done:  E(RB3LYP) =  -300.009911808     A.U. after   12 cycles
 SCF Done:  E(RB3LYP) =  -300.009966863     A.U. after   10 cycles
 SCF Done:  E(RB3LYP) =  -300.009988445     A.U. after   10 cycles
 SCF Done:  E(RB3LYP) =  -300.009989282     A.U. after    9 cycles
 SCF Done:  E(RB3LYP) =  -300.009990189     A.U. after    7 cycles
 Optimization completed.
    -- Stationary point found.
 Normal termination of Gaussian 09 at Sat Aug 21 02:21:47 2021.

 ----------------------------------------------------------------------
 #P Geom=AllCheck Guess=TCheck SCRF=Check GenChk RB3LYP/6-31G(d,p) Freq
 ----------------------------------------------------------------------

 Structure from the checkpoint file:  "/public/home/users/caep010/.cache/gau_scr/Gau-168804.chk"
 --------
 Frag_183
 --------
 Charge =  0 Multiplicity = 1

                         Standard orientation:
 ---------------------------------------------------------------------
 Center     Atomic      Atomic             Coordinates (Angstroms)
 Number     Number       Type             X           Y           Z
 ---------------------------------------------------------------------
      1          6           0       -1.525879   -1.042367   -0.035825
      2          7           0       -0.601012    0.062064   -0.226587
      3          7           0       -1.061617    1.345859    0.150972
      4          6           0        0.770440   -0.173039   -0.033246
      5          7           0        1.179231   -1.381006    0.133852
      6          7           0        1.546937    0.972592   -0.146715
      7          1           0       -1.059482   -1.955684   -0.400521
      8          1           0       -2.443749   -0.840536   -0.598101
      9          1           0       -1.784817   -1.190408    1.025403
     10          1           0       -1.530861    1.295357    1.059548
     11          1           0       -1.751652    1.651249   -0.531732
     12          1           0        2.198795   -1.412133    0.130908
     13          1           0        1.026087    1.826329    0.015909
     14          1           0        2.433543    0.921693    0.332359
 ---------------------------------------------------------------------

 SCF Done:  E(RB3LYP) =  -300.009990189     A.U. after    1 cycles

 The electronic state is 1-A.
 Alpha  occ. eigenvalues --  -14.36746 -14.36463 -14.32884 -14.26769 -10.26622
 Alpha  occ. eigenvalues --  -10.20292  -1.00260  -0.91354  -0.83791  -0.78742
 Alpha  occ. eigenvalues --   -0.68731  -0.56124  -0.52320  -0.51310  -0.50865
 Alpha  occ. eigenvalues --   -0.45278  -0.43373  -0.41383  -0.38604  -0.36147
 Alpha  occ. eigenvalues --   -0.28307  -0.24825  -0.23756  -0.20983
 Alpha virt. eigenvalues --    0.05662   0.07604   0.10347   0.12972   0.14182
 Alpha virt. eigenvalues --    0.15859   0.17117   0.17868   0.18311   0.19465
 Alpha virt. eigenvalues --    0.24896   0.29989   0.35040   0.44373   0.54325

 Mulliken charges:
               1
     1  C   -0.158371
     2  N   -0.353987
     3  N   -0.471598
     4  C    0.635247
     5  N   -0.623237
     6  N   -0.626988
     7  H    0.164050
     8  H    0.093089
     9  H    0.093849
    10  H    0.247014
    11  H    0.265429
    12  H    0.205003
    13  H    0.277408
    14  H    0.253091
 Sum of Mulliken charges =  -0.00000

 Dipole moment (field-independent basis, Debye):
    X=             -1.3676    Y=              2.5130    Z=              1.1515  Tot=              3.0840
 Quadrupole moment (field-independent basis, Debye-Ang):
   XX=            -27.5222   YY=            -38.8740   ZZ=            -37.7114
   XY=              0.2999   XZ=              1.7764   YZ=              1.7675

  Exact polarizability:  61.044  -3.750  56.284   0.783  -1.056  32.430
 Approx polarizability:  77.722  -8.551  85.292   1.785  -3.875  47.000

                      1                      2                      3
                      A                      A                      A
 Frequencies --    110.9391               161.1713               235.1981
 Red. masses --      3.0555                 1.5250                 1.8679
 Frc consts  --      0.0222                 0.0233                 0.0609
 IR Inten    --      1.9130                 7.1424                21.1949

                      4                      5                      6
                      A                      A                      A
 Frequencies --    341.0706               380.8552               418.1312
 Red. masses --      3.0461                 1.0928                 2.0656
 Frc consts  --      0.2088                 0.0934                 0.2128
 IR Inten    --     11.0008                20.5787                19.8553

                      7                      8                      9
                      A                      A                      A
 Frequencies --    437.8350               517.1780               569.6500
 Red. masses --      1.2376                 2.6279                 4.1676
 Frc consts  --      0.1398                 0.4141                 0.7968
 IR Inten    --     38.8733                21.6040                30.0642

                     10                     11                     12
                      A                      A                      A
 Frequencies --    647.4982               738.2565               757.8821
 Red. masses --      1.4094                 3.7206                 1.8490
 Frc consts  --      0.3482                 1.1948                 0.6257
 IR Inten    --    157.5726                67.0076                75.4667

                     13                     14                     15
                      A                      A                      A
 Frequencies --    781.8260               938.0059              1049.5694
 Red. masses --      1.9391                 1.7449                 1.7451
 Frc consts  --      0.6983                 0.9045                 1.1327
 IR Inten    --     41.5391               104.6384                16.2891

                     16                     17                     18
                      A                      A                      A
 Frequencies --   1105.3814              1142.1951              1153.7825
 Red. masses --      1.8600                 1.1808                 1.3618
 Frc consts  --      1.3390                 0.9076                 1.0681
 IR Inten    --     57.7380                66.4698                 7.3425

                     19                     20                     21
                      A                      A                      A
 Frequencies --   1231.1804              1302.0082              1322.3988
 Red. masses --      4.3041                 1.8605                 1.3237
 Frc consts  --      3.8439                 1.8583                 1.3638
 IR Inten    --      7.6926                23.9193                23.6475

                     22                     23                     24
                      A                      A                      A
 Frequencies --   1438.2060              1471.6726              1502.5585
 Red. masses --      1.2786                 1.9273                 1.0721
 Frc consts  --      1.5582                 2.4593                 1.4261
 IR Inten    --     12.2469               102.6901                12.9841

                     25                     26                     27
                      A                      A                      A
 Frequencies --   1521.4997              1625.7992              1695.1723
 Red. masses --      1.1573                 1.2180                 1.2128
 Frc consts  --      1.5784                 1.8968                 2.0533
 IR Inten    --      6.2273               142.6277                56.3611

                     28                     29                     30
                      A                      A                      A
 Frequencies --   1723.9918              2986.3642              3077.7033
 Red. masses --      4.4752                 1.0545                 1.0871
 Frc consts  --      7.8368                 5.5410                 6.0672
 IR Inten    --    264.9959                72.0811                47.2287

                     31                     32                     33
                      A                      A                      A
 Frequencies --   3183.6603              3401.9742              3500.5971
 Red. masses --      1.0960                 1.0547                 1.0752
 Frc consts  --      6.5450                 7.1916                 7.7629
 IR Inten    --      1.4645                15.4934                 4.7423

                     34                     35                     36
                      A                      A                      A
 Frequencies --   3529.9508              3553.6890              3687.2723
 Red. masses --      1.0874                 1.0492                 1.0967
 Frc consts  --      7.9834                 7.8066                 8.7850
 IR Inten    --      0.4200                34.8696                35.0025

 - Thermochemistry -
 -------------------
 Temperature   298.150 Kelvin.  Pressure   1.00000 Atm.
 Atom     1 has atomic number  6 and mass  12.00000

 Molecular mass:    88.07490 amu.
 Principal axes and moments of inertia in atomic units:
                           1         2         3
     Eigenvalues --   357.19934 504.84227 828.28011
           X            0.99836   0.05718   0.00349
           Y           -0.05721   0.99833   0.00790
           Z           -0.00303  -0.00809   0.99996
 This molecule is an asymmetric top.
 Rotational symmetry number  1.
 Rotational temperatures (Kelvin)      0.24248     0.17157     0.10457
 Rotational constants (GHZ):           5.05248     3.57486     2.17890
 Zero-point vibrational energy     318458.6 (Joules/Mol)
                                   76.11344 (Kcal/Mol)
 Warning -- explicit consideration of   9 degrees of freedom as
           vibrations may cause significant error
 Vibrational temperatures:    159.62   231.89   338.40   490.72   547.96
          (Kelvin)            601.60   629.95   744.10   819.60   931.60
                             1062.19  1090.42  1124.87  1349.58  1510.09
                             1590.40  1643.36  1660.03  1771.39  1873.30
                             1902.63  2069.26  2117.41  2161.84  2189.10
                             2339.16  2438.97  2480.44  4296.71  4428.12
                             4580.57  4894.68  5036.57  5078.81  5112.96
                             5305.16

 Zero-point correction=                           0.121294 (Hartree/Particle)
 Thermal correction to Energy=                    0.128244
 Thermal correction to Enthalpy=                  0.129188
 Thermal correction to Gibbs Free Energy=         0.091088
 Sum of electronic and zero-point Energies=           -299.888696
 Sum of electronic and thermal Energies=              -299.881746
 Sum of electronic and thermal Enthalpies=            -299.880802
 Sum of electronic and thermal Free Energies=         -299.918902

                     E (Thermal)             CV                S
                      KCal/Mol        Cal/Mol-Kelvin    Cal/Mol-Kelvin
 Total                   80.475             25.348             80.189
 Electronic               0.000              0.000              0.000
 Translational            0.889              2.981             39.340
 Rotational               0.889              2.981             26.504
 Vibrational             78.697             19.387             14.345
 Vibration     1          0.607              1.940              3.252
 Vibration     2          0.622              1.890              2.536
 Vibration     3          0.655              1.787              1.839
 Vibration     4          0.721              1.593              1.207
 Vibration     5          0.751              1.511              1.036
 Vibration     6          0.781              1.431              0.898
 Vibration     7          0.798              1.388              0.833
 Vibration     8          0.872              1.212              0.617
 Vibration     9          0.926              1.097              0.505

 Optimization completed.
    -- Stationary point found.
 Normal termination of Gaussian 09 at Sat Aug 21 02:21:58 2021.
