 Gaussian 09, Revision E.01,
 Gaussian 09:  ES64L-G09RevE.01 30-Nov-2015

 ----------------------------
 #P OPT Freq B3LYP/6-31G(d,p)
 ----------------------------

 --------
 Frag_603
 --------
 Symbolic Z-matrix:
 Charge =  0 Multiplicity = 1

 SCF Done:  E(RB3LYP) =  -327.145156707     A.U. after   14 cycles
 SCF Done:  E(RB3LYP) =  -327.145220396     A.U. after   11 cycles
 SCF Done:  E(RB3LYP) =  -327.144892559     A.U. after   12 cycles
 SCF Done:  E(RB3LYP) =  -327.145251953     A.U. after    7 cycles
 SCF Done:  E(RB3LYP) =  -327.145254969     A.U. after   11 cycles
 SCF Done:  E(RB3LYP) =  -327.145273666     A.U. after   11 cycles
 SCF Done:  E(RB3LYP) =  -327.145278884     A.U. after    9 cycles
 SCF Done:  E(RB3LYP) =  -327.145282591     A.U. after   10 cycles
 SCF Done:  E(RB3LYP) =  -327.145282933     A.U. after    7 cycles
 SCF Done:  E(RB3LYP) =  -327.145283056     A.U. after    7 cycles
 SCF Done:  E(RB3LYP) =  -327.145283110     A.U. after    6 cycles
 Optimization completed.
    -- Stationary point found.
 Normal termination of Gaussian 09 at Thu Sep  8 15:20:00 2022.

 ----------------------------------------------------------------------
 #P Geom=AllCheck Guess=TCheck SCRF=Check GenChk RB3LYP/6-31G(d,p) Freq
 ----------------------------------------------------------------------

 Structure from the checkpoint file:  "B3LYP6-31Gdp.Frag_603.chk"
 --------
 Frag_603
 --------
 Charge =  0 Multiplicity = 1

                         Standard orientation:
 ---------------------------------------------------------------------
 Center     Atomic      Atomic             Coordinates (Angstroms)
 Number     Number       Type             X           Y           Z
 ---------------------------------------------------------------------
      1          6           0       -1.895365   -0.885860    0.037728
      2          6           0       -0.913941    0.267349   -0.048880
      3          8           0       -1.306136    1.419669   -0.088706
      4          6           0        0.602698   -0.035605   -0.033458
      5          6           0        0.952231   -1.307900   -0.825550
      6          6           0        0.994143   -0.213252    1.459265
      7          7           0        1.274440    1.103157   -0.663514
      8          1           0       -1.612473   -1.607079    0.810467
      9          1           0       -1.916011   -1.428007   -0.914446
     10          1           0       -2.891053   -0.490846    0.242656
     11          1           0        0.640198   -1.207192   -1.868419
     12          1           0        2.037988   -1.450731   -0.819243
     13          1           0        0.497756   -2.206628   -0.397928
     14          1           0        0.480422   -1.055990    1.934984
     15          1           0        2.071226   -0.402319    1.531897
     16          1           0        0.765358    0.694511    2.026096
     17          1           0        0.783994    1.954284   -0.397182
     18          1           0        2.232016    1.172156   -0.329267
 ---------------------------------------------------------------------

 SCF Done:  E(RB3LYP) =  -327.145283110     A.U. after    1 cycles

 The electronic state is 1-A.
 Alpha  occ. eigenvalues --  -19.14202 -14.30335 -10.27606 -10.22898 -10.19294
 Alpha  occ. eigenvalues --  -10.18740 -10.17978  -1.04267  -0.88552  -0.77264
 Alpha  occ. eigenvalues --   -0.72957  -0.69414  -0.61905  -0.51607  -0.49765
 Alpha  occ. eigenvalues --   -0.46708  -0.44974  -0.42923  -0.42537  -0.41873
 Alpha  occ. eigenvalues --   -0.40339  -0.38777  -0.37597  -0.36036  -0.35276
 Alpha  occ. eigenvalues --   -0.34221  -0.24912  -0.23008
 Alpha virt. eigenvalues --   -0.01554   0.06786   0.11397   0.12382   0.13947
 Alpha virt. eigenvalues --    0.14193   0.15100   0.16888   0.17926   0.18864
 Alpha virt. eigenvalues --    0.19557   0.20516   0.21194   0.22035   0.24749

 Mulliken charges:
               1
     1  C   -0.392806
     2  C    0.450666
     3  O   -0.452116
     4  C    0.073395
     5  C   -0.294411
     6  C   -0.317189
     7  N   -0.593924
     8  H    0.125222
     9  H    0.141328
    10  H    0.137939
    11  H    0.119907
    12  H    0.103390
    13  H    0.093279
    14  H    0.100295
    15  H    0.105861
    16  H    0.115771
    17  H    0.254800
    18  H    0.228593
 Sum of Mulliken charges =  -0.00000

 Dipole moment (field-independent basis, Debye):
    X=              0.8732    Y=             -2.2709    Z=              1.3988  Tot=              2.8064
 Quadrupole moment (field-independent basis, Debye-Ang):
   XX=            -42.2590   YY=            -45.2673   ZZ=            -45.4782
   XY=              4.3147   XZ=              1.7944   YZ=              1.7591

  Exact polarizability:  66.872   0.594  65.197   0.226  -0.474  53.613
 Approx polarizability:  88.338  -3.851  99.154   0.146  -2.971  74.653

                      1                      2                      3
                      A                      A                      A
 Frequencies --     65.5643               160.7441               225.8194
 Red. masses --      3.9728                 1.0256                 1.9348
 Frc consts  --      0.0101                 0.0156                 0.0581
 IR Inten    --      3.7448                 0.3827                 0.6399

                      4                      5                      6
                      A                      A                      A
 Frequencies --    248.2377               266.4952               277.8198
 Red. masses --      1.2997                 1.1831                 1.4527
 Frc consts  --      0.0472                 0.0495                 0.0661
 IR Inten    --      6.2779                37.8931                 2.5249

                      7                      8                      9
                      A                      A                      A
 Frequencies --    283.1344               345.2466               382.0265
 Red. masses --      1.3527                 2.4076                 3.8128
 Frc consts  --      0.0639                 0.1691                 0.3279
 IR Inten    --      1.1029                 1.7145                 0.6643

                     10                     11                     12
                      A                      A                      A
 Frequencies --    420.6410               464.2210               567.8116
 Red. masses --      2.5727                 2.5585                 3.8216
 Frc consts  --      0.2682                 0.3249                 0.7260
 IR Inten    --      6.9252                 4.3507                13.6963

                     13                     14                     15
                      A                      A                      A
 Frequencies --    608.3742               679.3498               843.9558
 Red. masses --      2.3861                 3.2938                 2.5274
 Frc consts  --      0.5203                 0.8956                 1.0606
 IR Inten    --      2.3844                 5.8120                33.9568

                     16                     17                     18
                      A                      A                      A
 Frequencies --    886.6370               928.9012               973.9456
 Red. masses --      1.4010                 1.6595                 1.8251
 Frc consts  --      0.6489                 0.8436                 1.0200
 IR Inten    --    132.0663                 0.4707                13.2863

                     19                     20                     21
                      A                      A                      A
 Frequencies --    984.3775              1001.8451              1052.6684
 Red. masses --      1.5482                 1.4605                 1.6260
 Frc consts  --      0.8839                 0.8637                 1.0616
 IR Inten    --      1.3102                 2.4176                 5.7553

                     22                     23                     24
                      A                      A                      A
 Frequencies --   1111.0316              1172.4485              1194.8702
 Red. masses --      1.5048                 2.7742                 2.2045
 Frc consts  --      1.0944                 2.2468                 1.8544
 IR Inten    --     11.1756                17.6534                63.4362

                     25                     26                     27
                      A                      A                      A
 Frequencies --   1277.4118              1357.7233              1397.8954
 Red. masses --      3.1980                 1.8475                 1.3512
 Frc consts  --      3.0746                 2.0065                 1.5557
 IR Inten    --     14.7759                 0.3428                31.5435

                     28                     29                     30
                      A                      A                      A
 Frequencies --   1403.7382              1428.1205              1474.3895
 Red. masses --      1.2292                 1.2353                 1.0513
 Frc consts  --      1.4271                 1.4844                 1.3465
 IR Inten    --      5.1125                 4.7973                10.6798

                     31                     32                     33
                      A                      A                      A
 Frequencies --   1489.0699              1496.3892              1503.3006
 Red. masses --      1.0532                 1.0472                 1.0506
 Frc consts  --      1.3759                 1.3816                 1.3989
 IR Inten    --      7.8797                 0.9999                 2.1694

                     34                     35                     36
                      A                      A                      A
 Frequencies --   1517.0579              1522.3711              1635.9305
 Red. masses --      1.0552                 1.0706                 1.1162
 Frc consts  --      1.4308                 1.4619                 1.7600
 IR Inten    --      5.0666                11.1653                61.6706

                     37                     38                     39
                      A                      A                      A
 Frequencies --   1802.7200              3033.7725              3048.7517
 Red. masses --      9.3409                 1.0347                 1.0357
 Frc consts  --     17.8853                 5.6106                 5.6716
 IR Inten    --    125.8240                19.3029                13.9650

                     40                     41                     42
                      A                      A                      A
 Frequencies --   3054.7000              3102.5449              3117.1561
 Red. masses --      1.0375                 1.1023                 1.1012
 Frc consts  --      5.7038                 6.2514                 6.3045
 IR Inten    --      6.6665                18.1991                37.6723

                     43                     44                     45
                      A                      A                      A
 Frequencies --   3118.7414              3121.6161              3136.2194
 Red. masses --      1.0985                 1.1026                 1.1034
 Frc consts  --      6.2954                 6.3303                 6.3946
 IR Inten    --     10.3597                20.5741                23.6054

                     46                     47                     48
                      A                      A                      A
 Frequencies --   3166.2217              3489.8167              3583.1273
 Red. masses --      1.1035                 1.0486                 1.0934
 Frc consts  --      6.5181                 7.5241                 8.2706
 IR Inten    --      9.9656                 8.6042                 4.3577

 - Thermochemistry -
 -------------------
 Temperature   298.150 Kelvin.  Pressure   1.00000 Atm.
 Atom     1 has atomic number  6 and mass  12.00000

 Molecular mass:   101.08406 amu.
 Principal axes and moments of inertia in atomic units:
                           1         2         3
     Eigenvalues --   559.84400 776.37925 933.22004
           X            0.99651   0.08218   0.01471
           Y           -0.08270   0.99579   0.03942
           Z           -0.01141  -0.04050   0.99911
 This molecule is an asymmetric top.
 Rotational symmetry number  1.
 Warning -- assumption of classical behavior for rotation
           may cause significant error
 Rotational temperatures (Kelvin)      0.15471     0.11156     0.09281
 Rotational constants (GHZ):           3.22365     2.32456     1.93389
 Zero-point vibrational energy     415253.4 (Joules/Mol)
                                   99.24795 (Kcal/Mol)
 Warning -- explicit consideration of  13 degrees of freedom as
           vibrations may cause significant error
 Vibrational temperatures:     94.33   231.27   324.90   357.16   383.43
          (Kelvin)            399.72   407.37   496.73   549.65   605.21
                              667.91   816.95   875.31   977.43  1214.26
                             1275.67  1336.48  1401.29  1416.30  1441.43
                             1514.55  1598.52  1686.89  1719.15  1837.91
                             1953.46  2011.26  2019.66  2054.74  2121.31
                             2142.44  2152.97  2162.91  2182.71  2190.35
                             2353.74  2593.71  4364.92  4386.47  4395.03
                             4463.86  4484.89  4487.17  4491.30  4512.31
                             4555.48  5021.06  5155.31

 Zero-point correction=                           0.158162 (Hartree/Particle)
 Thermal correction to Energy=                    0.166931
 Thermal correction to Enthalpy=                  0.167875
 Thermal correction to Gibbs Free Energy=         0.125734
 Sum of electronic and zero-point Energies=           -326.987121
 Sum of electronic and thermal Energies=              -326.978352
 Sum of electronic and thermal Enthalpies=            -326.977408
 Sum of electronic and thermal Free Energies=         -327.019549

                     E (Thermal)             CV                S
                      KCal/Mol        Cal/Mol-Kelvin    Cal/Mol-Kelvin
 Total                  104.751             32.251             88.694
 Electronic               0.000              0.000              0.000
 Translational            0.889              2.981             39.750
 Rotational               0.889              2.981             27.497
 Vibrational            102.973             26.289             21.447
 Vibration     1          0.597              1.971              4.282
 Vibration     2          0.622              1.890              2.541
 Vibration     3          0.650              1.802              1.912
 Vibration     4          0.662              1.766              1.743
 Vibration     5          0.672              1.735              1.619
 Vibration     6          0.679              1.715              1.547
 Vibration     7          0.682              1.705              1.515
 Vibration     8          0.724              1.585              1.188
 Vibration     9          0.751              1.509              1.031
 Vibration    10          0.783              1.425              0.890
 Vibration    11          0.822              1.329              0.754
 Vibration    12          0.924              1.101              0.508
 Vibration    13          0.967              1.014              0.435

 Optimization completed.
    -- Stationary point found.
 Normal termination of Gaussian 09 at Thu Sep  8 15:20:17 2022.
