 Gaussian 09, Revision D.01,
 Gaussian 09:  ES64L-G09RevD.01 24-Apr-2013

 -------------------------
 #P OPT Freq B3LYP/6-31G**
 -------------------------

 --------
 Frag_104
 --------
 Symbolic Z-matrix:
 Charge =  0 Multiplicity = 1

 SCF Done:  E(RB3LYP) =  -172.032270190     A.U. after   14 cycles
 Optimization completed.
    -- Stationary point found.

 1\1\GINC-FN16\FOpt\RB3LYP\6-31G(d,p)\C3H5N1\LIUJ201281\23-Jul-2021\0\\
 #P OPT Freq B3LYP/6-31G**\\Frag_104\\0,1\C,1.4926,0.4682,-0.0752\C,0.6
 383,-0.5419,0.1267\N,-0.7134,-0.5504,-0.2498\C,-1.4734,0.3994,0.1204\H
 ,2.5417,0.3663,0.1788\H,1.1757,1.3947,-0.5438\H,0.9833,-1.4937,0.5271\
 H,-1.1435,1.2131,0.7802\H,-2.5079,0.4183,-0.2248\\Version=ES64L-G09Rev
 D.01\State=1-A\HF=-172.0322702\RMSD=2.831e-09\RMSF=3.290e-05\Dipole=-0
 .0005273,0.4274046,0.3155464\Quadrupole=1.6435002,-0.1216274,-1.521872
 8,-1.5790086,-0.1200984,-0.993058\PG=C01 [X(C3H5N1)]\\@

 Normal termination of Gaussian 09 at Fri Jul 23 07:56:20 2021.

 ----------------------------------------------------------------------
 #P Geom=AllCheck Guess=TCheck SCRF=Check GenChk RB3LYP/6-31G(d,p) Freq
 ----------------------------------------------------------------------

 Structure from the checkpoint file:  "/vol2/users/liuj201281/HOFBenchmark/IsodesmicSplit/Sample60/Ring26/Running/Gau-61308.chk"
 --------
 Frag_104
 --------
 Charge =  0 Multiplicity = 1

                         Standard orientation:
 ---------------------------------------------------------------------
 Center     Atomic      Atomic             Coordinates (Angstroms)
 Number     Number       Type             X           Y           Z
 ---------------------------------------------------------------------
      1          6           0        1.492598    0.468150   -0.075210
      2          6           0        0.638266   -0.541923    0.126690
      3          7           0       -0.713434   -0.550381   -0.249810
      4          6           0       -1.473404    0.399443    0.120390
      5          1           0        2.541695    0.366216    0.178790
      6          1           0        1.175727    1.394660   -0.543810
      7          1           0        0.983236   -1.493734    0.527090
      8          1           0       -1.143478    1.213133    0.780190
      9          1           0       -2.507903    0.418376   -0.224810
 ---------------------------------------------------------------------

 SCF Done:  E(RB3LYP) =  -172.032270190     A.U. after    1 cycles

 The electronic state is 1-A.
 Alpha  occ. eigenvalues --  -14.34557 -10.23624 -10.21838 -10.18236  -0.93373
 Alpha  occ. eigenvalues --   -0.75516  -0.64854  -0.55142  -0.49783  -0.45512
 Alpha  occ. eigenvalues --   -0.44398  -0.38135  -0.33886  -0.28836  -0.23629
 Alpha virt. eigenvalues --   -0.02998   0.04213   0.12098   0.13262   0.14664
 Alpha virt. eigenvalues --    0.16315   0.20061   0.24478   0.33418   0.36901
 Alpha virt. eigenvalues --    0.50287   0.53967   0.56108   0.57726   0.61872

 Mulliken charges:
               1
     1  C   -0.241182
     2  C    0.074198
     3  N   -0.328183
     4  C   -0.022290
     5  H    0.103365
     6  H    0.099573
     7  H    0.105557
     8  H    0.096698
     9  H    0.112263
 Sum of Mulliken charges =   0.00000

 Dipole moment (field-independent basis, Debye):
    X=             -0.0013    Y=              1.0864    Z=              0.8020  Tot=              1.3503
 Quadrupole moment (field-independent basis, Debye-Ang):
   XX=            -21.5843   YY=            -23.9582   ZZ=            -25.8417
   XY=             -2.1239   XZ=             -0.1616   YZ=             -1.3357

  Exact polarizability:  56.529  -0.305  37.240   0.620  -0.346  20.569
 Approx polarizability:  79.937   2.171  61.864  -0.732   1.239  29.536

                      1                      2                      3
                      A                      A                      A
 Frequencies --    205.8242               338.9987               480.9774
 Red. masses --      2.4507                 1.9117                 1.5580
 Frc consts  --      0.0612                 0.1294                 0.2124
 IR Inten    --     13.6317                 6.4501                 7.5556

                      4                      5                      6
                      A                      A                      A
 Frequencies --    709.8794               800.9180               890.1150
 Red. masses --      1.5098                 1.4242                 1.4169
 Frc consts  --      0.4483                 0.5383                 0.6614
 IR Inten    --      3.8722                 0.8684                48.6503

                      7                      8                      9
                      A                      A                      A
 Frequencies --    927.9072              1007.3919              1062.1233
 Red. masses --      2.2290                 1.1498                 1.3567
 Frc consts  --      1.1308                 0.6875                 0.9018
 IR Inten    --      9.5782                22.4007                19.5528

                     10                     11                     12
                      A                      A                      A
 Frequencies --   1135.8002              1221.5916              1328.4357
 Red. masses --      1.9295                 1.4839                 1.2553
 Frc consts  --      1.4666                 1.3047                 1.3052
 IR Inten    --     14.1050                15.1557                 1.3395

                     13                     14                     15
                      A                      A                      A
 Frequencies --   1442.6407              1511.2593              1684.6099
 Red. masses --      1.1973                 1.1630                 4.2138
 Frc consts  --      1.4682                 1.5650                 7.0456
 IR Inten    --      1.6106                 8.5974                29.8635

                     16                     17                     18
                      A                      A                      A
 Frequencies --   1731.1657              3033.6804              3162.3331
 Red. masses --      6.0926                 1.0612                 1.0911
 Frc consts  --     10.7579                 5.7544                 6.4287
 IR Inten    --     26.2015                35.1131                25.2771

                     19                     20                     21
                      A                      A                      A
 Frequencies --   3164.2138              3173.2010              3260.2728
 Red. masses --      1.0845                 1.0822                 1.1168
 Frc consts  --      6.3974                 6.4204                 6.9944
 IR Inten    --     14.9231                 4.8550                10.9821

 - Thermochemistry -
 -------------------
 Temperature   298.150 Kelvin.  Pressure   1.00000 Atm.
 Atom     1 has atomic number  6 and mass  12.00000

 Molecular mass:    55.04220 amu.
 Principal axes and moments of inertia in atomic units:
                           1         2         3
     Eigenvalues --    74.26787 299.58884 355.63856
           X            0.99979  -0.02042   0.00086
           Y            0.02043   0.99906  -0.03818
           Z           -0.00008   0.03819   0.99927
 This molecule is an asymmetric top.
 Rotational symmetry number  1.
 Rotational temperatures (Kelvin)      1.16624     0.28911     0.24354
 Rotational constants (GHZ):          24.30043     6.02406     5.07465
 Zero-point vibrational energy     193037.4 (Joules/Mol)
                                   46.13705 (Kcal/Mol)
 Warning -- explicit consideration of   3 degrees of freedom as
           vibrations may cause significant error
 Vibrational temperatures:    296.13   487.74   692.02  1021.36  1152.34
          (Kelvin)           1280.68  1335.05  1449.41  1528.16  1634.16
                             1757.60  1911.32  2075.64  2174.36  2423.77
                             2490.76  4364.78  4549.89  4552.59  4565.52
                             4690.80

 Zero-point correction=                           0.073524 (Hartree/Particle)
 Thermal correction to Energy=                    0.077939
 Thermal correction to Enthalpy=                  0.078883
 Thermal correction to Gibbs Free Energy=         0.047232
 Sum of electronic and zero-point Energies=           -171.958746
 Sum of electronic and thermal Energies=              -171.954331
 Sum of electronic and thermal Enthalpies=            -171.953387
 Sum of electronic and thermal Free Energies=         -171.985038

                     E (Thermal)             CV                S
                      KCal/Mol        Cal/Mol-Kelvin    Cal/Mol-Kelvin
 Total                   48.907             14.615             66.615
 Electronic               0.000              0.000              0.000
 Translational            0.889              2.981             37.938
 Rotational               0.889              2.981             23.585
 Vibrational             47.130              8.653              5.091
 Vibration     1          0.640              1.832              2.080
 Vibration     2          0.719              1.598              1.217
 Vibration     3          0.837              1.292              0.707

 Optimization completed.
    -- Stationary point found.

 1\1\GINC-FN16\Freq\RB3LYP\6-31G(d,p)\C3H5N1\LIUJ201281\23-Jul-2021\0\\
 #P Geom=AllCheck Guess=TCheck SCRF=Check GenChk RB3LYP/6-31G(d,p) Freq
 \\Frag_104\\0,1\C,1.4926,0.4682,-0.0752\C,0.6383,-0.5419,0.1267\N,-0.7
 134,-0.5504,-0.2498\C,-1.4734,0.3994,0.1204\H,2.5417,0.3663,0.1788\H,1
 .1757,1.3947,-0.5438\H,0.9833,-1.4937,0.5271\H,-1.1435,1.2131,0.7802\H
 ,-2.5079,0.4183,-0.2248\\Version=ES64L-G09RevD.01\State=1-A\HF=-172.03
 22702\RMSD=1.516e-09\RMSF=3.290e-05\ZeroPoint=0.0735241\Thermal=0.0779
 388\Dipole=-0.0005277,0.4274046,0.3155464\DipoleDeriv=-0.1517822,-0.02

 Normal termination of Gaussian 09 at Fri Jul 23 07:56:42 2021.
