 Gaussian 09, Revision E.01,
 Gaussian 09:  ES64L-G09RevE.01 30-Nov-2015

 ----------------------------
 #P OPT Freq B3LYP/6-31G(d,p)
 ----------------------------

 --------
 Frag_611
 --------
 Symbolic Z-matrix:
 Charge =  0 Multiplicity = 1

 SCF Done:  E(RB3LYP) =  -250.709736678     A.U. after   13 cycles
 SCF Done:  E(RB3LYP) =  -250.709802856     A.U. after    9 cycles
 Optimization completed.
    -- Stationary point found.
 Normal termination of Gaussian 09 at Thu Sep  8 15:08:46 2022.

 ----------------------------------------------------------------------
 #P Geom=AllCheck Guess=TCheck SCRF=Check GenChk RB3LYP/6-31G(d,p) Freq
 ----------------------------------------------------------------------

 Structure from the checkpoint file:  "B3LYP6-31Gdp.Frag_611.chk"
 --------
 Frag_611
 --------
 Charge =  0 Multiplicity = 1

                         Standard orientation:
 ---------------------------------------------------------------------
 Center     Atomic      Atomic             Coordinates (Angstroms)
 Number     Number       Type             X           Y           Z
 ---------------------------------------------------------------------
      1          6           0       -0.773182    0.166076   -1.454960
      2          6           0       -0.278453   -0.000009    0.000009
      3          6           0       -0.773550   -1.342948    0.583766
      4          6           0       -0.772858    1.177237    0.871220
      5          6           0        1.199422   -0.000225   -0.000056
      6          7           0        2.360691   -0.000267   -0.000008
      7          1           0       -0.421800    1.107302   -1.886743
      8          1           0       -0.421439   -0.653541   -2.087641
      9          1           0       -1.867740    0.167529   -1.469740
     10          1           0       -0.422272   -1.481039    1.610101
     11          1           0       -1.868187   -1.356213    0.589336
     12          1           0       -0.421973   -2.187681   -0.015111
     13          1           0       -1.867417    1.189196    0.880498
     14          1           0       -0.421419    2.134978    0.477483
     15          1           0       -0.420858    1.080552    1.901998
 ---------------------------------------------------------------------

 SCF Done:  E(RB3LYP) =  -250.709802856     A.U. after    1 cycles

 The electronic state is 1-A.
 Alpha  occ. eigenvalues --  -14.32613 -10.24809 -10.21774 -10.19832 -10.19830
 Alpha  occ. eigenvalues --  -10.19829  -0.89863  -0.83759  -0.70751  -0.70751
 Alpha  occ. eigenvalues --   -0.63003  -0.50281  -0.46060  -0.46058  -0.41242
 Alpha  occ. eigenvalues --   -0.41241  -0.39560  -0.38554  -0.36453  -0.36449
 Alpha  occ. eigenvalues --   -0.34560  -0.31536  -0.31535
 Alpha virt. eigenvalues --    0.04266   0.04267   0.06454   0.11474   0.13508
 Alpha virt. eigenvalues --    0.13510   0.15396   0.15397   0.17474   0.18741
 Alpha virt. eigenvalues --    0.18747   0.20682   0.20781   0.23948   0.23950

 Mulliken charges:
               1
     1  C   -0.296029
     2  C   -0.045192
     3  C   -0.296116
     4  C   -0.296064
     5  C    0.345335
     6  N   -0.477660
     7  H    0.121942
     8  H    0.121946
     9  H    0.111320
    10  H    0.121967
    11  H    0.111322
    12  H    0.121975
    13  H    0.111323
    14  H    0.121966
    15  H    0.121966
 Sum of Mulliken charges =  -0.00000

 Dipole moment (field-independent basis, Debye):
    X=             -3.9600    Y=              0.0003    Z=              0.0001  Tot=              3.9600
 Quadrupole moment (field-independent basis, Debye-Ang):
   XX=            -46.9348   YY=            -36.2243   ZZ=            -36.2258
   XY=              0.0010   XZ=              0.0002   YZ=             -0.0005

  Exact polarizability:  65.043  -0.001  50.439   0.000  -0.001  50.435
 Approx polarizability: 101.736  -0.003  67.142   0.002  -0.002  67.136

                      1                      2                      3
                      A                      A                      A
 Frequencies --    184.4899               184.8982               218.7273
 Red. masses --      3.5978                 3.6208                 1.0136
 Frc consts  --      0.0721                 0.0729                 0.0286
 IR Inten    --      3.8188                 3.8394                 0.0010

                      4                      5                      6
                      A                      A                      A
 Frequencies --    272.9252               276.4661               357.7487
 Red. masses --      1.0673                 1.0647                 2.3116
 Frc consts  --      0.0468                 0.0479                 0.1743
 IR Inten    --      0.1330                 0.1133                 0.2191

                      7                      8                      9
                      A                      A                      A
 Frequencies --    360.1350               377.5950               581.6333
 Red. masses --      2.3066                 2.6130                 5.3958
 Frc consts  --      0.1763                 0.2195                 1.0755
 IR Inten    --      0.2224                 0.6587                 0.0001

                     10                     11                     12
                      A                      A                      A
 Frequencies --    581.6653               689.2781               885.0296
 Red. masses --      5.3905                 4.0457                 2.2243
 Frc consts  --      1.0745                 1.1325                 1.0265
 IR Inten    --      0.0001                 1.3193                 0.6098

                     13                     14                     15
                      A                      A                      A
 Frequencies --    941.4404               942.2763               977.8194
 Red. masses --      1.7887                 1.7852                 1.1982
 Frc consts  --      0.9341                 0.9339                 0.6750
 IR Inten    --      0.9684                 0.9714                 0.0003

                     16                     17                     18
                      A                      A                      A
 Frequencies --   1057.9781              1058.7402              1234.1598
 Red. masses --      1.3965                 1.3996                 2.6304
 Frc consts  --      0.9210                 0.9243                 2.3605
 IR Inten    --      0.1120                 0.1118                 5.6080

                     19                     20                     21
                      A                      A                      A
 Frequencies --   1234.6804              1276.6685              1413.9837
 Red. masses --      2.6289                 2.5927                 1.2080
 Frc consts  --      2.3612                 2.4898                 1.4231
 IR Inten    --      5.6242                16.8271                 3.8668

                     22                     23                     24
                      A                      A                      A
 Frequencies --   1414.4962              1446.2224              1490.6607
 Red. masses --      1.2089                 1.2113                 1.0467
 Frc consts  --      1.4251                 1.4927                 1.3704
 IR Inten    --      3.7716                 1.0264                 0.0010

                     25                     26                     27
                      A                      A                      A
 Frequencies --   1500.8987              1501.3317              1514.7665
 Red. masses --      1.0441                 1.0442                 1.0495
 Frc consts  --      1.3857                 1.3868                 1.4187
 IR Inten    --      0.3925                 0.4749                 6.1970

                     28                     29                     30
                      A                      A                      A
 Frequencies --   1515.1009              1533.3632              2356.3217
 Red. masses --      1.0494                 1.0605                12.6906
 Frc consts  --      1.4193                 1.4691                41.5146
 IR Inten    --      6.2533                 9.6851                 8.5311

                     31                     32                     33
                      A                      A                      A
 Frequencies --   3049.6405              3049.8871              3055.4320
 Red. masses --      1.0345                 1.0344                 1.0354
 Frc consts  --      5.6684                 5.6688                 5.6953
 IR Inten    --     16.2930                16.4649                13.3163

                     34                     35                     36
                      A                      A                      A
 Frequencies --   3125.7275              3126.1364              3131.3763
 Red. masses --      1.1031                 1.1032                 1.1022
 Frc consts  --      6.3500                 6.3520                 6.3679
 IR Inten    --      3.4399                 3.3172                44.6559

                     37                     38                     39
                      A                      A                      A
 Frequencies --   3133.5241              3136.6085              3136.7122
 Red. masses --      1.1043                 1.1036                 1.1036
 Frc consts  --      6.3888                 6.3970                 6.3974
 IR Inten    --      0.1127                29.5769                29.7144

 - Thermochemistry -
 -------------------
 Temperature   298.150 Kelvin.  Pressure   1.00000 Atm.
 Atom     1 has atomic number  6 and mass  12.00000

 Molecular mass:    83.07350 amu.
 Principal axes and moments of inertia in atomic units:
                           1         2         3
     Eigenvalues --   402.67091 660.53290 660.54745
           X            1.00000   0.00003   0.00000
           Y           -0.00003   0.99904  -0.04374
           Z           -0.00000   0.04374   0.99904
 This molecule is an asymmetric top.
 Rotational symmetry number  1.
 Rotational temperatures (Kelvin)      0.21510     0.13113     0.13112
 Rotational constants (GHZ):           4.48193     2.73225     2.73219
 Zero-point vibrational energy     342888.9 (Joules/Mol)
                                   81.95241 (Kcal/Mol)
 Warning -- explicit consideration of  10 degrees of freedom as
           vibrations may cause significant error
 Vibrational temperatures:    265.44   266.03   314.70   392.68   397.77
          (Kelvin)            514.72   518.15   543.27   836.84   836.89
                              991.72  1273.36  1354.52  1355.72  1406.86
                             1522.19  1523.29  1775.68  1776.43  1836.84
                             2034.40  2035.14  2080.79  2144.73  2159.46
                             2160.08  2179.41  2179.89  2206.16  3390.22
                             4387.75  4388.10  4396.08  4497.22  4497.81
                             4505.35  4508.44  4512.87  4513.02

 Zero-point correction=                           0.130599 (Hartree/Particle)
 Thermal correction to Energy=                    0.137871
 Thermal correction to Enthalpy=                  0.138815
 Thermal correction to Gibbs Free Energy=         0.100361
 Sum of electronic and zero-point Energies=           -250.579203
 Sum of electronic and thermal Energies=              -250.571932
 Sum of electronic and thermal Enthalpies=            -250.570988
 Sum of electronic and thermal Free Energies=         -250.609442

                     E (Thermal)             CV                S
                      KCal/Mol        Cal/Mol-Kelvin    Cal/Mol-Kelvin
 Total                   86.515             26.266             80.934
 Electronic               0.000              0.000              0.000
 Translational            0.889              2.981             39.165
 Rotational               0.889              2.981             26.666
 Vibrational             84.738             20.305             15.103
 Vibration     1          0.631              1.861              2.282
 Vibration     2          0.631              1.860              2.278
 Vibration     3          0.646              1.813              1.970
 Vibration     4          0.676              1.723              1.578
 Vibration     5          0.678              1.717              1.555
 Vibration     6          0.733              1.559              1.132
 Vibration     7          0.735              1.554              1.122
 Vibration     8          0.748              1.518              1.049
 Vibration     9          0.938              1.071              0.482
 Vibration    10          0.938              1.071              0.482

 Normal termination of Gaussian 09 at Thu Sep  8 15:08:59 2022.
