 Gaussian 09, Revision E.01,
 Gaussian 09:  ES64L-G09RevE.01 30-Nov-2015

 -------------------------
 #P OPT Freq B3LYP/6-31G**
 -------------------------

 --------
 Frag_254
 --------
 Symbolic Z-matrix:
 Charge =  0 Multiplicity = 1

 SCF Done:  E(RB3LYP) =  -261.847939810     A.U. after   13 cycles
 SCF Done:  E(RB3LYP) =  -261.853416748     A.U. after   11 cycles
 SCF Done:  E(RB3LYP) =  -261.853905890     A.U. after   10 cycles
 SCF Done:  E(RB3LYP) =  -261.854017883     A.U. after   10 cycles
 SCF Done:  E(RB3LYP) =  -261.854030625     A.U. after    9 cycles
 SCF Done:  E(RB3LYP) =  -261.854034178     A.U. after    8 cycles
 SCF Done:  E(RB3LYP) =  -261.854038024     A.U. after    8 cycles
 SCF Done:  E(RB3LYP) =  -261.854040487     A.U. after    8 cycles
 SCF Done:  E(RB3LYP) =  -261.854041982     A.U. after    8 cycles
 SCF Done:  E(RB3LYP) =  -261.854042645     A.U. after    7 cycles
 SCF Done:  E(RB3LYP) =  -261.854042749     A.U. after    7 cycles
 Optimization completed.
    -- Stationary point found.
 Normal termination of Gaussian 09 at Sat Aug 21 01:39:06 2021.

 ----------------------------------------------------------------------
 #P Geom=AllCheck Guess=TCheck SCRF=Check GenChk RB3LYP/6-31G(d,p) Freq
 ----------------------------------------------------------------------

 Structure from the checkpoint file:  "/public/home/users/caep010/.cache/gau_scr/Gau-217230.chk"
 --------
 Frag_254
 --------
 Charge =  0 Multiplicity = 1

                         Standard orientation:
 ---------------------------------------------------------------------
 Center     Atomic      Atomic             Coordinates (Angstroms)
 Number     Number       Type             X           Y           Z
 ---------------------------------------------------------------------
      1          7           0       -1.952667    0.122411   -0.145999
      2          6           0       -0.750208   -0.540306    0.313486
      3          7           0        0.438391    0.025138   -0.334455
      4          7           0        0.640742    1.362145    0.096423
      5          7           0        1.611516   -0.766796   -0.081832
      6          1           0       -2.760638   -0.231443    0.357949
      7          1           0       -2.092089   -0.067871   -1.134753
      8          1           0       -0.703834   -1.621649    0.094430
      9          1           0       -0.696491   -0.431752    1.415422
     10          1           0        1.061345    1.356921    1.034408
     11          1           0        1.346924    1.749578   -0.524668
     12          1           0        1.596731   -1.551494   -0.730396
     13          1           0        1.583427   -1.160737    0.867730
 ---------------------------------------------------------------------

 SCF Done:  E(RB3LYP) =  -261.854042749     A.U. after    1 cycles

 The electronic state is 1-A.
 Alpha  occ. eigenvalues --  -14.37050 -14.34062 -14.32809 -14.30779 -10.23365
 Alpha  occ. eigenvalues --   -0.99898  -0.87606  -0.84765  -0.72621  -0.61357
 Alpha  occ. eigenvalues --   -0.51170  -0.50467  -0.49019  -0.46029  -0.43477
 Alpha  occ. eigenvalues --   -0.41126  -0.38923  -0.26502  -0.24992  -0.22966
 Alpha  occ. eigenvalues --   -0.22180
 Alpha virt. eigenvalues --    0.07160   0.08895   0.11766   0.13339   0.15857
 Alpha virt. eigenvalues --    0.16622   0.17038   0.17886   0.18602   0.24129
 Alpha virt. eigenvalues --    0.26285   0.27246   0.55983   0.56194   0.60865

 Mulliken charges:
               1
     1  N   -0.573454
     2  C    0.121168
     3  N   -0.241593
     4  N   -0.402082
     5  N   -0.453105
     6  H    0.234134
     7  H    0.241603
     8  H    0.066658
     9  H    0.069618
    10  H    0.213351
    11  H    0.254628
    12  H    0.253347
    13  H    0.215727
 Sum of Mulliken charges =  -0.00000

 Dipole moment (field-independent basis, Debye):
    X=             -0.0605    Y=             -2.6685    Z=              0.8130  Tot=              2.7903
 Quadrupole moment (field-independent basis, Debye-Ang):
   XX=            -29.6363   YY=            -30.6807   ZZ=            -29.0669
   XY=              3.7860   XZ=              1.3579   YZ=              0.1903

  Exact polarizability:  45.854  -1.011  42.461   0.420  -0.117  38.710
 Approx polarizability:  56.097  -2.958  57.152   0.263  -0.384  56.543

                      1                      2                      3
                      A                      A                      A
 Frequencies --    101.3763               180.0817               240.7803
 Red. masses --      1.9152                 1.2201                 1.1404
 Frc consts  --      0.0116                 0.0233                 0.0390
 IR Inten    --      2.4450                44.0593                63.4605

                      4                      5                      6
                      A                      A                      A
 Frequencies --    301.4729               316.7900               428.7516
 Red. masses --      2.0388                 1.3404                 2.4030
 Frc consts  --      0.1092                 0.0793                 0.2603
 IR Inten    --     18.8042                 4.3504                 1.7465

                      7                      8                      9
                      A                      A                      A
 Frequencies --    468.6679               539.8095               777.3684
 Red. masses --      3.0068                 3.0961                 1.8977
 Frc consts  --      0.3891                 0.5315                 0.6757
 IR Inten    --     25.8799                 7.3307               122.6968

                     10                     11                     12
                      A                      A                      A
 Frequencies --    840.2806               898.4728               969.3548
 Red. masses --      1.9938                 2.4548                 1.6395
 Frc consts  --      0.8294                 1.1676                 0.9077
 IR Inten    --    118.3296               124.6588                29.1909

                     13                     14                     15
                      A                      A                      A
 Frequencies --   1052.1849              1091.3523              1134.0354
 Red. masses --      1.6228                 1.8833                 2.7154
 Frc consts  --      1.0585                 1.3216                 2.0575
 IR Inten    --     33.8277                15.6341                26.1814

                     16                     17                     18
                      A                      A                      A
 Frequencies --   1224.3537              1232.7968              1301.8162
 Red. masses --      1.3221                 1.8091                 1.2914
 Frc consts  --      1.1677                 1.6199                 1.2895
 IR Inten    --      5.1078                 6.6190                 7.9992

                     19                     20                     21
                      A                      A                      A
 Frequencies --   1345.5803              1382.7025              1454.2006
 Red. masses --      1.3713                 1.2879                 1.3413
 Frc consts  --      1.4629                 1.4508                 1.6712
 IR Inten    --      4.8068                13.0969                45.7903

                     22                     23                     24
                      A                      A                      A
 Frequencies --   1524.6963              1650.4972              1659.4903
 Red. masses --      1.0890                 1.0992                 1.0908
 Frc consts  --      1.4916                 1.7642                 1.7699
 IR Inten    --      2.2620                32.6484                13.0434

                     25                     26                     27
                      A                      A                      A
 Frequencies --   1686.1235              2916.8419              2955.9237
 Red. masses --      1.0801                 1.0617                 1.0978
 Frc consts  --      1.8092                 5.3222                 5.6512
 IR Inten    --     20.0646                85.9192                92.2960

                     28                     29                     30
                      A                      A                      A
 Frequencies --   3339.5543              3350.5869              3503.2508
 Red. masses --      1.0564                 1.0589                 1.0489
 Frc consts  --      6.9418                 7.0042                 7.5846
 IR Inten    --     36.0996                21.6137                 0.4817

                     31                     32                     33
                      A                      A                      A
 Frequencies --   3532.8772              3547.1297              3598.6434
 Red. masses --      1.0840                 1.0815                 1.0937
 Frc consts  --      7.9711                 8.0170                 8.3448
 IR Inten    --      0.4439                 0.6091                 0.1527

 - Thermochemistry -
 -------------------
 Temperature   298.150 Kelvin.  Pressure   1.00000 Atm.
 Atom     1 has atomic number  7 and mass  14.00307

 Molecular mass:    76.07490 amu.
 Principal axes and moments of inertia in atomic units:
                           1         2         3
     Eigenvalues --   210.02856 483.78808 627.08960
           X            0.99972   0.02236   0.00776
           Y           -0.02233   0.99974  -0.00447
           Z           -0.00785   0.00429   0.99996
 This molecule is an asymmetric top.
 Rotational symmetry number  1.
 Rotational temperatures (Kelvin)      0.41239     0.17903     0.13812
 Rotational constants (GHZ):           8.59284     3.73044     2.87796
 Zero-point vibrational energy     302343.3 (Joules/Mol)
                                   72.26177 (Kcal/Mol)
 Warning -- explicit consideration of   8 degrees of freedom as
           vibrations may cause significant error
 Vibrational temperatures:    145.86   259.10   346.43   433.75   455.79
          (Kelvin)            616.88   674.31   776.66  1118.46  1208.97
                             1292.70  1394.68  1513.86  1570.21  1631.62
                             1761.57  1773.72  1873.02  1935.99  1989.40
                             2092.27  2193.70  2374.69  2387.63  2425.95
                             4196.68  4252.91  4804.87  4820.74  5040.39
                             5083.02  5103.52  5177.64

 Zero-point correction=                           0.115156 (Hartree/Particle)
 Thermal correction to Energy=                    0.121760
 Thermal correction to Enthalpy=                  0.122705
 Thermal correction to Gibbs Free Energy=         0.085622
 Sum of electronic and zero-point Energies=           -261.738886
 Sum of electronic and thermal Energies=              -261.732282
 Sum of electronic and thermal Enthalpies=            -261.731338
 Sum of electronic and thermal Free Energies=         -261.768421

                     E (Thermal)             CV                S
                      KCal/Mol        Cal/Mol-Kelvin    Cal/Mol-Kelvin
 Total                   76.406             22.851             78.048
 Electronic               0.000              0.000              0.000
 Translational            0.889              2.981             38.903
 Rotational               0.889              2.981             25.658
 Vibrational             74.628             16.890             13.487
 Vibration     1          0.604              1.948              3.428
 Vibration     2          0.629              1.867              2.328
 Vibration     3          0.658              1.778              1.797
 Vibration     4          0.693              1.671              1.409
 Vibration     5          0.704              1.642              1.327
 Vibration     6          0.790              1.408              0.863
 Vibration     7          0.826              1.320              0.741
 Vibration     8          0.895              1.162              0.566

 Optimization completed.
    -- Stationary point found.
 Normal termination of Gaussian 09 at Sat Aug 21 01:39:15 2021.
