 Gaussian 09, Revision E.01,
 Gaussian 09:  ES64L-G09RevE.01 30-Nov-2015

 ----------------------------
 #P OPT Freq B3LYP/6-31G(d,p)
 ----------------------------

 --------
 Frag_794
 --------
 Symbolic Z-matrix:
 Charge =  0 Multiplicity = 1

 SCF Done:  E(RB3LYP) =  -307.255986124     A.U. after   14 cycles
 SCF Done:  E(RB3LYP) =  -307.256020895     A.U. after   10 cycles
 SCF Done:  E(RB3LYP) =  -307.256025510     A.U. after    9 cycles
 SCF Done:  E(RB3LYP) =  -307.256029863     A.U. after    9 cycles
 SCF Done:  E(RB3LYP) =  -307.256030109     A.U. after    7 cycles
 SCF Done:  E(RB3LYP) =  -307.256030234     A.U. after    6 cycles
 SCF Done:  E(RB3LYP) =  -307.256030306     A.U. after    6 cycles
 Optimization completed.
    -- Stationary point found.
 Normal termination of Gaussian 09 at Thu Sep  8 15:25:48 2022.

 ----------------------------------------------------------------------
 #P Geom=AllCheck Guess=TCheck SCRF=Check GenChk RB3LYP/6-31G(d,p) Freq
 ----------------------------------------------------------------------

 Structure from the checkpoint file:  "B3LYP6-31Gdp.Frag_794.chk"
 --------
 Frag_794
 --------
 Charge =  0 Multiplicity = 1

                         Standard orientation:
 ---------------------------------------------------------------------
 Center     Atomic      Atomic             Coordinates (Angstroms)
 Number     Number       Type             X           Y           Z
 ---------------------------------------------------------------------
      1          6           0        1.652307    1.238707    0.010379
      2          6           0        0.958390    0.090997   -0.004089
      3          7           0        1.582700   -1.168133   -0.090262
      4          6           0       -0.576463    0.038060   -0.002466
      5          6           0       -1.080426   -0.918737   -1.110524
      6          6           0       -1.073579   -0.444710    1.377409
      7          7           0       -1.102389    1.400789   -0.187790
      8          1           0        1.147133    2.193177    0.025337
      9          1           0        2.738993    1.235893    0.016900
     10          1           0        1.130469   -1.896943    0.448528
     11          1           0        2.570017   -1.133888    0.133042
     12          1           0       -0.728595   -1.946015   -0.981443
     13          1           0       -0.737947   -0.577834   -2.092916
     14          1           0       -2.176400   -0.933864   -1.112992
     15          1           0       -0.748826    0.250804    2.154572
     16          1           0       -2.168551   -0.497291    1.391057
     17          1           0       -0.700543   -1.444765    1.620587
     18          1           0       -2.119569    1.364009   -0.163361
     19          1           0       -0.849729    1.732231   -1.117201
 ---------------------------------------------------------------------

 SCF Done:  E(RB3LYP) =  -307.256030306     A.U. after    1 cycles

 The electronic state is 1-A.
 Alpha  occ. eigenvalues --  -14.32855 -14.30777 -10.22412 -10.20812 -10.17635
 Alpha  occ. eigenvalues --  -10.17176 -10.14425  -0.90973  -0.87728  -0.74861
 Alpha  occ. eigenvalues --   -0.71358  -0.68551  -0.60020  -0.52947  -0.50893
 Alpha  occ. eigenvalues --   -0.48113  -0.44805  -0.42574  -0.41637  -0.40135
 Alpha  occ. eigenvalues --   -0.39307  -0.38077  -0.36409  -0.34557  -0.32331
 Alpha  occ. eigenvalues --   -0.30627  -0.23347  -0.19607
 Alpha virt. eigenvalues --    0.04950   0.06725   0.10035   0.12597   0.12951
 Alpha virt. eigenvalues --    0.14202   0.16078   0.16839   0.18573   0.19545
 Alpha virt. eigenvalues --    0.19972   0.20416   0.21565   0.24240   0.25393

 Mulliken charges:
               1
     1  C   -0.327138
     2  C    0.323304
     3  N   -0.637866
     4  C    0.079978
     5  C   -0.289890
     6  C   -0.293556
     7  N   -0.587434
     8  H    0.106918
     9  H    0.063931
    10  H    0.247972
    11  H    0.251249
    12  H    0.097024
    13  H    0.106027
    14  H    0.086238
    15  H    0.127692
    16  H    0.094708
    17  H    0.084995
    18  H    0.229935
    19  H    0.235913
 Sum of Mulliken charges =  -0.00000

 Dipole moment (field-independent basis, Debye):
    X=             -0.6642    Y=             -1.5011    Z=              0.1659  Tot=              1.6499
 Quadrupole moment (field-independent basis, Debye-Ang):
   XX=            -39.9305   YY=            -45.1729   ZZ=            -45.9523
   XY=             -2.3603   XZ=              2.6059   YZ=             -4.3654

  Exact polarizability:  74.858   5.205  74.976  -0.321  -1.759  51.945
 Approx polarizability:  99.535   9.751 116.020  -1.471  -2.287  70.588

                      1                      2                      3
                      A                      A                      A
 Frequencies --     76.3346               218.6946               248.4118
 Red. masses --      3.1551                 1.1898                 1.4529
 Frc consts  --      0.0108                 0.0335                 0.0528
 IR Inten    --      1.1026                 0.1109                 9.5367

                      4                      5                      6
                      A                      A                      A
 Frequencies --    274.9637               295.2745               301.0718
 Red. masses --      1.2035                 1.5131                 1.5638
 Frc consts  --      0.0536                 0.0777                 0.0835
 IR Inten    --      4.3606                 3.4272                12.8082

                      7                      8                      9
                      A                      A                      A
 Frequencies --    333.0076               350.9042               404.4570
 Red. masses --      1.1611                 2.3448                 2.8591
 Frc consts  --      0.0759                 0.1701                 0.2756
 IR Inten    --     57.5741                 2.4787                 2.9103

                     10                     11                     12
                      A                      A                      A
 Frequencies --    424.1251               497.5848               506.2129
 Red. masses --      2.5314                 3.1169                 2.2412
 Frc consts  --      0.2683                 0.4547                 0.3384
 IR Inten    --     11.1064                 0.8809                 9.8950

                     13                     14                     15
                      A                      A                      A
 Frequencies --    625.5905               692.9417               702.7800
 Red. masses --      1.9572                 2.7240                 1.3617
 Frc consts  --      0.4513                 0.7706                 0.3963
 IR Inten    --    110.4666                 7.2773                70.8184

                     16                     17                     18
                      A                      A                      A
 Frequencies --    778.9471               835.0285               867.5091
 Red. masses --      1.4231                 1.4470                 2.1497
 Frc consts  --      0.5088                 0.5945                 0.9532
 IR Inten    --     44.6872                81.0487                46.6604

                     19                     20                     21
                      A                      A                      A
 Frequencies --    918.8828               927.2546               975.1129
 Red. masses --      1.4884                 1.5266                 1.6597
 Frc consts  --      0.7404                 0.7733                 0.9298
 IR Inten    --     71.1703                 2.2046                 2.2576

                     22                     23                     24
                      A                      A                      A
 Frequencies --    995.3943              1031.4422              1092.7750
 Red. masses --      1.5860                 1.3187                 1.5275
 Frc consts  --      0.9258                 0.8266                 1.0747
 IR Inten    --      5.1824                 3.5294                 8.6036

                     25                     26                     27
                      A                      A                      A
 Frequencies --   1133.3163              1200.2935              1251.0561
 Red. masses --      1.4716                 2.6135                 2.6116
 Frc consts  --      1.1136                 2.2185                 2.4083
 IR Inten    --      2.3094                34.6426                25.8982

                     28                     29                     30
                      A                      A                      A
 Frequencies --   1318.2243              1372.9232              1408.2482
 Red. masses --      1.8369                 2.6416                 1.2332
 Frc consts  --      1.8807                 2.9336                 1.4409
 IR Inten    --      9.0456                20.0234                 6.3858

                     31                     32                     33
                      A                      A                      A
 Frequencies --   1430.9101              1447.3492              1494.7215
 Red. masses --      1.2559                 1.1933                 1.0467
 Frc consts  --      1.5150                 1.4728                 1.3778
 IR Inten    --      2.2303                 3.7659                 0.4957

                     34                     35                     36
                      A                      A                      A
 Frequencies --   1498.2692              1512.3931              1520.7549
 Red. masses --      1.0534                 1.0551                 1.0782
 Frc consts  --      1.3932                 1.4219                 1.4691
 IR Inten    --      0.5783                 2.6564                 6.3446

                     37                     38                     39
                      A                      A                      A
 Frequencies --   1656.8548              1663.1817              1721.7762
 Red. masses --      1.1265                 1.1441                 4.4266
 Frc consts  --      1.8220                 1.8646                 7.7316
 IR Inten    --     29.5457                64.1172                76.2279

                     40                     41                     42
                      A                      A                      A
 Frequencies --   3038.0370              3044.5738              3105.0300
 Red. masses --      1.0368                 1.0377                 1.1001
 Frc consts  --      5.6380                 5.6675                 6.2489
 IR Inten    --     19.1920                30.6559                13.4805

                     43                     44                     45
                      A                      A                      A
 Frequencies --   3111.9487              3126.2816              3143.2702
 Red. masses --      1.1015                 1.1008                 1.1020
 Frc consts  --      6.2849                 6.3388                 6.4152
 IR Inten    --     47.3440                34.3459                19.4775

                     46                     47                     48
                      A                      A                      A
 Frequencies --   3163.4353              3284.2486              3477.1516
 Red. masses --      1.0660                 1.1089                 1.0494
 Frc consts  --      6.2851                 7.0473                 7.4753
 IR Inten    --     18.8064                 3.3498                 1.3536

                     49                     50                     51
                      A                      A                      A
 Frequencies --   3542.5204              3563.8252              3642.0950
 Red. masses --      1.0479                 1.0925                 1.0964
 Frc consts  --      7.7478                 8.1750                 8.5690
 IR Inten    --      1.7899                 0.3865                 3.0808

 - Thermochemistry -
 -------------------
 Temperature   298.150 Kelvin.  Pressure   1.00000 Atm.
 Atom     1 has atomic number  6 and mass  12.00000

 Molecular mass:   100.10005 amu.
 Principal axes and moments of inertia in atomic units:
                           1         2         3
     Eigenvalues --   559.71500 774.97822 938.04519
           X            0.99920   0.03864   0.00991
           Y           -0.03832   0.99880  -0.03036
           Z           -0.01107   0.02995   0.99949
 This molecule is an asymmetric top.
 Rotational symmetry number  1.
 Warning -- assumption of classical behavior for rotation
           may cause significant error
 Rotational temperatures (Kelvin)      0.15475     0.11176     0.09233
 Rotational constants (GHZ):           3.22439     2.32876     1.92394
 Zero-point vibrational energy     450079.3 (Joules/Mol)
                                  107.57154 (Kcal/Mol)
 Warning -- explicit consideration of  12 degrees of freedom as
           vibrations may cause significant error
 Vibrational temperatures:    109.83   314.65   357.41   395.61   424.83
          (Kelvin)            433.17   479.12   504.87   581.92   610.22
                              715.91   728.33   900.08   996.99  1011.14
                             1120.73  1201.42  1248.15  1322.07  1334.11
                             1402.97  1432.15  1484.01  1572.26  1630.59
                             1726.95  1799.99  1896.63  1975.33  2026.15
                             2058.76  2082.41  2150.57  2155.67  2175.99
                             2188.02  2383.84  2392.94  2477.25  4371.05
                             4380.46  4467.44  4477.39  4498.02  4522.46
                             4551.47  4725.30  5002.84  5096.89  5127.54
                             5240.16

 Zero-point correction=                           0.171426 (Hartree/Particle)
 Thermal correction to Energy=                    0.180076
 Thermal correction to Enthalpy=                  0.181020
 Thermal correction to Gibbs Free Energy=         0.139518
 Sum of electronic and zero-point Energies=           -307.084604
 Sum of electronic and thermal Energies=              -307.075954
 Sum of electronic and thermal Enthalpies=            -307.075010
 Sum of electronic and thermal Free Energies=         -307.116512

                     E (Thermal)             CV                S
                      KCal/Mol        Cal/Mol-Kelvin    Cal/Mol-Kelvin
 Total                  112.999             33.546             87.349
 Electronic               0.000              0.000              0.000
 Translational            0.889              2.981             39.721
 Rotational               0.889              2.981             27.500
 Vibrational            111.222             27.585             20.128
 Vibration     1          0.599              1.965              3.983
 Vibration     2          0.646              1.813              1.970
 Vibration     3          0.662              1.765              1.742
 Vibration     4          0.677              1.720              1.565
 Vibration     5          0.689              1.683              1.444
 Vibration     6          0.693              1.672              1.411
 Vibration     7          0.715              1.610              1.245
 Vibration     8          0.728              1.573              1.162
 Vibration     9          0.770              1.461              0.946
 Vibration    10          0.786              1.418              0.878
 Vibration    11          0.853              1.255              0.664
 Vibration    12          0.861              1.236              0.643

 Optimization completed.
    -- Stationary point found.
 Normal termination of Gaussian 09 at Thu Sep  8 15:26:08 2022.
