 Gaussian 09, Revision E.01,
 Gaussian 09:  ES64L-G09RevE.01 30-Nov-2015

 ----------------------------
 #P OPT Freq B3LYP/6-31G(d,p)
 ----------------------------

 --------
 Frag_492
 --------
 Symbolic Z-matrix:
 Charge =  0 Multiplicity = 1

 SCF Done:  E(RB3LYP) =  -230.256235292     A.U. after   13 cycles
 SCF Done:  E(RB3LYP) =  -230.256277944     A.U. after    9 cycles
 SCF Done:  E(RB3LYP) =  -230.256282307     A.U. after    8 cycles
 SCF Done:  E(RB3LYP) =  -230.256282833     A.U. after    7 cycles
 SCF Done:  E(RB3LYP) =  -230.256282927     A.U. after    7 cycles
 Optimization completed.
    -- Stationary point found.
 Normal termination of Gaussian 09 at Thu Sep  8 15:05:57 2022.

 ----------------------------------------------------------------------
 #P Geom=AllCheck Guess=TCheck SCRF=Check GenChk RB3LYP/6-31G(d,p) Freq
 ----------------------------------------------------------------------

 Structure from the checkpoint file:  "B3LYP6-31Gdp.Frag_492.chk"
 --------
 Frag_492
 --------
 Charge =  0 Multiplicity = 1

                         Standard orientation:
 ---------------------------------------------------------------------
 Center     Atomic      Atomic             Coordinates (Angstroms)
 Number     Number       Type             X           Y           Z
 ---------------------------------------------------------------------
      1          6           0        1.477881   -0.410088    0.107042
      2          8           0        0.579594    0.579054   -0.380120
      3          6           0       -0.672789    0.554050    0.251593
      4          8           0       -1.414176   -0.614170   -0.009496
      5          1           0        2.411028   -0.292612   -0.447530
      6          1           0        1.678808   -0.270708    1.179930
      7          1           0        1.086592   -1.422203   -0.045908
      8          1           0       -0.570615    0.590293    1.345608
      9          1           0       -1.188035    1.456018   -0.103179
     10          1           0       -1.571677   -0.643633   -0.963802
 ---------------------------------------------------------------------

 SCF Done:  E(RB3LYP) =  -230.256282927     A.U. after    1 cycles

 The electronic state is 1-A.
 Alpha  occ. eigenvalues --  -19.15191 -19.15159 -10.27670 -10.22537  -1.06070
 Alpha  occ. eigenvalues --   -0.99793  -0.71522  -0.63603  -0.52648  -0.48745
 Alpha  occ. eigenvalues --   -0.47486  -0.42040  -0.40598  -0.37420  -0.30944
 Alpha  occ. eigenvalues --   -0.29204  -0.26793
 Alpha virt. eigenvalues --    0.08113   0.11232   0.14208   0.14724   0.16189
 Alpha virt. eigenvalues --    0.17503   0.18841   0.23842   0.25569   0.51055
 Alpha virt. eigenvalues --    0.52575   0.54188   0.56860   0.57595   0.72556

 Mulliken charges:
               1
     1  C   -0.074909
     2  O   -0.472550
     3  C    0.258189
     4  O   -0.524806
     5  H    0.114783
     6  H    0.093392
     7  H    0.112024
     8  H    0.093578
     9  H    0.093722
    10  H    0.306576
 Sum of Mulliken charges =   0.00000

 Dipole moment (field-independent basis, Debye):
    X=              0.2172    Y=             -0.0383    Z=             -0.3372  Tot=              0.4029
 Quadrupole moment (field-independent basis, Debye-Ang):
   XX=            -23.7491   YY=            -25.6042   ZZ=            -23.1942
   XY=             -2.7126   XZ=              2.9042   YZ=              1.8914

  Exact polarizability:  33.565  -1.556  27.969   1.051   1.028  28.527
 Approx polarizability:  40.203   0.174  37.309   0.602  -0.109  38.997

                      1                      2                      3
                      A                      A                      A
 Frequencies --    148.4522               197.6913               369.5233
 Red. masses --      1.2908                 1.9115                 2.0203
 Frc consts  --      0.0168                 0.0440                 0.1625
 IR Inten    --      2.9453                 6.4786                33.4587

                      4                      5                      6
                      A                      A                      A
 Frequencies --    401.9036               593.3674               944.6953
 Red. masses --      1.3080                 3.4649                 4.4159
 Frc consts  --      0.1245                 0.7188                 2.3220
 IR Inten    --    102.7470                36.6521                29.0971

                      7                      8                      9
                      A                      A                      A
 Frequencies --   1039.0357              1071.7768              1154.6228
 Red. masses --      1.5902                 4.3946                 3.1052
 Frc consts  --      1.0115                 2.9742                 2.4391
 IR Inten    --     84.1655               150.8406               140.7709

                     10                     11                     12
                      A                      A                      A
 Frequencies --   1180.8104              1207.9848              1306.8766
 Red. masses --      1.3121                 1.4888                 1.3308
 Frc consts  --      1.0779                 1.2800                 1.3392
 IR Inten    --      9.2902                32.5519                17.7418

                     13                     14                     15
                      A                      A                      A
 Frequencies --   1393.3277              1443.5343              1489.8765
 Red. masses --      1.2203                 1.1387                 1.1662
 Frc consts  --      1.3958                 1.3981                 1.5252
 IR Inten    --     12.9006                34.6889                14.6774

                     16                     17                     18
                      A                      A                      A
 Frequencies --   1497.2972              1523.8116              1529.9100
 Red. masses --      1.0498                 1.0640                 1.0884
 Frc consts  --      1.3866                 1.4557                 1.5009
 IR Inten    --      2.5814                 4.5953                 1.7001

                     19                     20                     21
                      A                      A                      A
 Frequencies --   3002.9702              3015.8698              3067.2699
 Red. masses --      1.0433                 1.0544                 1.1119
 Frc consts  --      5.5433                 5.6502                 6.1632
 IR Inten    --     54.8835                72.7608                59.0862

                     22                     23                     24
                      A                      A                      A
 Frequencies --   3079.6580              3141.1137              3798.8013
 Red. masses --      1.0943                 1.1018                 1.0657
 Frc consts  --      6.1147                 6.4049                 9.0606
 IR Inten    --     43.1454                27.3831                18.3960

 - Thermochemistry -
 -------------------
 Temperature   298.150 Kelvin.  Pressure   1.00000 Atm.
 Atom     1 has atomic number  6 and mass  12.00000

 Molecular mass:    62.03678 amu.
 Principal axes and moments of inertia in atomic units:
                           1         2         3
     Eigenvalues --   105.34142 324.28796 376.34803
           X            0.99782  -0.06301   0.01937
           Y            0.06149   0.99558   0.07103
           Z           -0.02376  -0.06969   0.99729
 This molecule is an asymmetric top.
 Rotational symmetry number  1.
 Rotational temperatures (Kelvin)      0.82222     0.26709     0.23014
 Rotational constants (GHZ):          17.13230     5.56524     4.79540
 Zero-point vibrational energy     224899.0 (Joules/Mol)
                                   53.75216 (Kcal/Mol)
 Warning -- explicit consideration of   5 degrees of freedom as
           vibrations may cause significant error
 Vibrational temperatures:    213.59   284.43   531.66   578.25   853.72
          (Kelvin)           1359.20  1494.94  1542.05  1661.24  1698.92
                             1738.02  1880.30  2004.69  2076.92  2143.60
                             2154.27  2192.42  2201.20  4320.60  4339.16
                             4413.11  4430.94  4519.36  5465.62

 Zero-point correction=                           0.085660 (Hartree/Particle)
 Thermal correction to Energy=                    0.090717
 Thermal correction to Enthalpy=                  0.091661
 Thermal correction to Gibbs Free Energy=         0.058300
 Sum of electronic and zero-point Energies=           -230.170623
 Sum of electronic and thermal Energies=              -230.165566
 Sum of electronic and thermal Enthalpies=            -230.164622
 Sum of electronic and thermal Free Energies=         -230.197983

                     E (Thermal)             CV                S
                      KCal/Mol        Cal/Mol-Kelvin    Cal/Mol-Kelvin
 Total                   56.926             16.127             70.214
 Electronic               0.000              0.000              0.000
 Translational            0.889              2.981             38.295
 Rotational               0.889              2.981             24.068
 Vibrational             55.148             10.166              7.852
 Vibration     1          0.618              1.904              2.692
 Vibration     2          0.637              1.843              2.154
 Vibration     3          0.742              1.535              1.082
 Vibration     4          0.768              1.466              0.956
 Vibration     5          0.951              1.046              0.461

 Optimization completed.
    -- Stationary point found.
 Normal termination of Gaussian 09 at Thu Sep  8 15:06:04 2022.
