 Gaussian 09, Revision E.01,
 Gaussian 09:  ES64L-G09RevE.01 30-Nov-2015

 --------------------------------
 #P OPT=calcfc Freq B3LYP/6-31G**
 --------------------------------

 --------
 Frag_318
 --------
 Symbolic Z-matrix:
 Charge =  0 Multiplicity = 1

 SCF Done:  E(RB3LYP) =  -228.604663358     A.U. after   13 cycles
 SCF Done:  E(RB3LYP) =  -228.620560308     A.U. after   13 cycles
 SCF Done:  E(RB3LYP) =  -228.621293261     A.U. after   13 cycles
 SCF Done:  E(RB3LYP) =  -228.621753410     A.U. after   12 cycles
 SCF Done:  E(RB3LYP) =  -228.574886127     A.U. after   12 cycles
 SCF Done:  E(RB3LYP) =  -228.622612725     A.U. after   10 cycles
 SCF Done:  E(RB3LYP) =  -228.622714366     A.U. after   13 cycles
 SCF Done:  E(RB3LYP) =  -228.624685732     A.U. after   12 cycles
 SCF Done:  E(RB3LYP) =  -228.625107279     A.U. after   11 cycles
 SCF Done:  E(RB3LYP) =  -228.625757046     A.U. after   11 cycles
 SCF Done:  E(RB3LYP) =  -228.626282334     A.U. after   12 cycles
 SCF Done:  E(RB3LYP) =  -228.626389070     A.U. after   11 cycles
 SCF Done:  E(RB3LYP) =  -228.626573220     A.U. after   11 cycles
 SCF Done:  E(RB3LYP) =  -228.626581609     A.U. after    8 cycles
 SCF Done:  E(RB3LYP) =  -228.626582077     A.U. after    7 cycles
 SCF Done:  E(RB3LYP) =  -228.626582160     A.U. after    7 cycles
 Optimization completed.
    -- Stationary point found.
 Normal termination of Gaussian 09 at Fri Sep 10 15:24:02 2021.

 ----------------------------------------------------------------------
 #P Geom=AllCheck Guess=TCheck SCRF=Check GenChk RB3LYP/6-31G(d,p) Freq
 ----------------------------------------------------------------------

 Structure from the checkpoint file:  "/public/home/users/caep010/.cache/gau_scr/Gau-154425.chk"
 --------
 Frag_318
 --------
 Charge =  0 Multiplicity = 1

                         Standard orientation:
 ---------------------------------------------------------------------
 Center     Atomic      Atomic             Coordinates (Angstroms)
 Number     Number       Type             X           Y           Z
 ---------------------------------------------------------------------
      1          6           0        0.561633    1.429759    0.001410
      2          6           0        0.521620    0.083030    0.005291
      3          7           0        1.665378   -0.738871    0.073899
      4          7           0       -0.639434   -0.693085   -0.047646
      5          6           0       -1.936270   -0.042798   -0.018459
      6          1           0        1.506748    1.951176   -0.092090
      7          1           0       -0.331418    2.030815    0.101129
      8          1           0        2.525134   -0.205153    0.046510
      9          1           0        1.668343   -1.449490   -0.651699
     10          1           0       -0.573087   -1.497884    0.565201
     11          1           0       -2.717181   -0.804165   -0.088828
     12          1           0       -2.030189    0.621899   -0.882476
     13          1           0       -2.111853    0.556551    0.889021
 ---------------------------------------------------------------------

 SCF Done:  E(RB3LYP) =  -228.626582160     A.U. after    1 cycles

 The electronic state is 1-A.
 Alpha  occ. eigenvalues --  -14.33367 -14.32801 -10.23591 -10.20718 -10.13972
 Alpha  occ. eigenvalues --   -0.94124  -0.86547  -0.70991  -0.67882  -0.55284
 Alpha  occ. eigenvalues --   -0.51369  -0.49474  -0.44461  -0.42199  -0.40364
 Alpha  occ. eigenvalues --   -0.37695  -0.37488  -0.32951  -0.24213  -0.18623
 Alpha virt. eigenvalues --    0.06717   0.08506   0.11191   0.13076   0.13989
 Alpha virt. eigenvalues --    0.16674   0.17815   0.19157   0.20327   0.22088
 Alpha virt. eigenvalues --    0.29410   0.35579   0.39255   0.50829   0.54901

 Mulliken charges:
               1
     1  C   -0.339412
     2  C    0.461468
     3  N   -0.648258
     4  N   -0.543411
     5  C   -0.171699
     6  H    0.065540
     7  H    0.078171
     8  H    0.254334
     9  H    0.253235
    10  H    0.253122
    11  H    0.105736
    12  H    0.127214
    13  H    0.103959
 Sum of Mulliken charges =  -0.00000

 Dipole moment (field-independent basis, Debye):
    X=             -0.0834    Y=             -1.0477    Z=             -0.3102  Tot=              1.0958
 Quadrupole moment (field-independent basis, Debye-Ang):
   XX=            -25.8478   YY=            -30.8998   ZZ=            -33.7587
   XY=             -0.0132   XZ=             -2.5852   YZ=              0.2891

  Exact polarizability:  54.200   1.572  57.183  -0.969   0.381  27.934
 Approx polarizability:  66.216   2.233  90.575  -0.257   0.516  39.038

                      1                      2                      3
                      A                      A                      A
 Frequencies --    158.1689               232.2882               288.0868
 Red. masses --      2.6420                 1.0889                 2.4885
 Frc consts  --      0.0389                 0.0346                 0.1217
 IR Inten    --      2.2910                 0.8378                 2.7824

                      4                      5                      6
                      A                      A                      A
 Frequencies --    344.8524               460.0889               520.7841
 Red. masses --      1.0640                 2.5538                 2.2487
 Frc consts  --      0.0746                 0.3185                 0.3593
 IR Inten    --     23.0870                10.1555                55.2395

                      7                      8                      9
                      A                      A                      A
 Frequencies --    565.5145               647.8832               696.4134
 Red. masses --      1.8216                 1.1173                 1.4959
 Frc consts  --      0.3432                 0.2763                 0.4274
 IR Inten    --     42.9121               124.5226                25.6144

                     10                     11                     12
                      A                      A                      A
 Frequencies --    731.6443               807.2618               894.4950
 Red. masses --      1.6188                 1.4626                 2.4739
 Frc consts  --      0.5105                 0.5616                 1.1662
 IR Inten    --     96.3147               190.4682                 3.2544

                     13                     14                     15
                      A                      A                      A
 Frequencies --    987.8014              1108.6492              1150.8095
 Red. masses --      1.5224                 1.9486                 1.3560
 Frc consts  --      0.8752                 1.4111                 1.0581
 IR Inten    --      4.3207                 1.9319                 6.8988

                     16                     17                     18
                      A                      A                      A
 Frequencies --   1179.1556              1202.1417              1350.6768
 Red. masses --      1.4369                 2.0330                 2.1606
 Frc consts  --      1.1771                 1.7310                 2.3223
 IR Inten    --      6.5460                19.9585                55.2218

                     19                     20                     21
                      A                      A                      A
 Frequencies --   1446.6014              1478.2397              1495.8128
 Red. masses --      1.1965                 1.1420                 1.1424
 Frc consts  --      1.4752                 1.4704                 1.5060
 IR Inten    --      6.1101                 2.1244                39.0079

                     22                     23                     24
                      A                      A                      A
 Frequencies --   1513.6479              1544.0087              1639.8359
 Red. masses --      1.3667                 1.1848                 1.1676
 Frc consts  --      1.8449                 1.6642                 1.8498
 IR Inten    --     26.1677                61.9208                63.1993

                     25                     26                     27
                      A                      A                      A
 Frequencies --   1731.9992              2989.4888              3085.9107
 Red. masses --      4.4486                 1.0544                 1.0803
 Frc consts  --      7.8627                 5.5522                 6.0613
 IR Inten    --    155.1251                64.5254                34.9388

                     28                     29                     30
                      A                      A                      A
 Frequencies --   3130.4743              3188.0840              3276.4616
 Red. masses --      1.1034                 1.0607                 1.1151
 Frc consts  --      6.3711                 6.3519                 7.0528
 IR Inten    --     22.0932                 1.4168                13.9346

                     31                     32                     33
                      A                      A                      A
 Frequencies --   3522.4617              3567.3014              3640.4180
 Red. masses --      1.0506                 1.0747                 1.0932
 Frc consts  --      7.6803                 8.0577                 8.5362
 IR Inten    --      2.4257                 3.7046                 5.0474

 - Thermochemistry -
 -------------------
 Temperature   298.150 Kelvin.  Pressure   1.00000 Atm.
 Atom     1 has atomic number  6 and mass  12.00000

 Molecular mass:    72.06875 amu.
 Principal axes and moments of inertia in atomic units:
                           1         2         3
     Eigenvalues --   197.17197 453.76724 633.37823
           X            0.99994  -0.00128  -0.01063
           Y            0.00130   1.00000   0.00258
           Z            0.01062  -0.00259   0.99994
 This molecule is an asymmetric top.
 Rotational symmetry number  1.
 Rotational temperatures (Kelvin)      0.43928     0.19088     0.13675
 Rotational constants (GHZ):           9.15313     3.97724     2.84939
 Zero-point vibrational energy     302520.4 (Joules/Mol)
                                   72.30411 (Kcal/Mol)
 Warning -- explicit consideration of   7 degrees of freedom as
           vibrations may cause significant error
 Vibrational temperatures:    227.57   334.21   414.49   496.17   661.96
          (Kelvin)            749.29   813.65   932.16  1001.98  1052.67
                             1161.47  1286.98  1421.22  1595.10  1655.76
                             1696.54  1729.61  1943.32  2081.33  2126.85
                             2152.14  2177.80  2221.48  2359.36  2491.96
                             4301.20  4439.93  4504.05  4586.94  4714.09
                             5068.03  5132.54  5237.74

 Zero-point correction=                           0.115224 (Hartree/Particle)
 Thermal correction to Energy=                    0.121283
 Thermal correction to Enthalpy=                  0.122227
 Thermal correction to Gibbs Free Energy=         0.086608
 Sum of electronic and zero-point Energies=           -228.511358
 Sum of electronic and thermal Energies=              -228.505299
 Sum of electronic and thermal Enthalpies=            -228.504355
 Sum of electronic and thermal Free Energies=         -228.539974

                     E (Thermal)             CV                S
                      KCal/Mol        Cal/Mol-Kelvin    Cal/Mol-Kelvin
 Total                   76.106             22.173             74.966
 Electronic               0.000              0.000              0.000
 Translational            0.889              2.981             38.742
 Rotational               0.889              2.981             25.541
 Vibrational             74.329             16.211             10.683
 Vibration     1          0.621              1.893              2.572
 Vibration     2          0.653              1.792              1.861
 Vibration     3          0.685              1.696              1.485
 Vibration     4          0.723              1.586              1.190
 Vibration     5          0.818              1.339              0.766
 Vibration     6          0.876              1.204              0.608
 Vibration     7          0.921              1.106              0.513

 Optimization completed.
    -- Stationary point found.
 Normal termination of Gaussian 09 at Fri Sep 10 15:24:11 2021.
