 Gaussian 09, Revision E.01,
 Gaussian 09:  ES64L-G09RevE.01 30-Nov-2015

 ----------------------------
 #P OPT Freq B3LYP/6-31G(d,p)
 ----------------------------

 --------
 Frag_740
 --------
 Symbolic Z-matrix:
 Charge =  0 Multiplicity = 1

 SCF Done:  E(RB3LYP) =  -418.845056739     A.U. after   14 cycles
 SCF Done:  E(RB3LYP) =  -418.845142859     A.U. after   11 cycles
 SCF Done:  E(RB3LYP) =  -418.844955968     A.U. after   12 cycles
 SCF Done:  E(RB3LYP) =  -418.845192177     A.U. after    8 cycles
 SCF Done:  E(RB3LYP) =  -418.845208683     A.U. after   10 cycles
 SCF Done:  E(RB3LYP) =  -418.845214239     A.U. after   10 cycles
 SCF Done:  E(RB3LYP) =  -418.845218675     A.U. after    8 cycles
 SCF Done:  E(RB3LYP) =  -418.845220581     A.U. after    8 cycles
 SCF Done:  E(RB3LYP) =  -418.845220815     A.U. after    8 cycles
 Optimization completed.
    -- Stationary point found.
 Normal termination of Gaussian 09 at Thu Sep  8 15:18:16 2022.

 ----------------------------------------------------------------------
 #P Geom=AllCheck Guess=TCheck SCRF=Check GenChk RB3LYP/6-31G(d,p) Freq
 ----------------------------------------------------------------------

 Structure from the checkpoint file:  "B3LYP6-31Gdp.Frag_740.chk"
 --------
 Frag_740
 --------
 Charge =  0 Multiplicity = 1

                         Standard orientation:
 ---------------------------------------------------------------------
 Center     Atomic      Atomic             Coordinates (Angstroms)
 Number     Number       Type             X           Y           Z
 ---------------------------------------------------------------------
      1          6           0        1.256803   -1.107502   -0.748691
      2          6           0        0.608548    0.039760    0.006992
      3          8           0        1.054503    1.266079   -0.493907
      4          8           0        0.943114   -0.111262    1.382757
      5          6           0       -0.935841    0.049890   -0.065042
      6          8           0       -1.572165    1.080324   -0.184212
      7          8           0       -1.498185   -1.155833    0.080917
      8          1           0        2.340258   -0.988429   -0.679732
      9          1           0        0.970431   -2.064159   -0.309627
     10          1           0        0.962069   -1.086040   -1.800674
     11          1           0        0.278120    1.854495   -0.504438
     12          1           0        0.915577    0.777634    1.765019
     13          1           0       -2.461651   -1.020856    0.085455
 ---------------------------------------------------------------------

 SCF Done:  E(RB3LYP) =  -418.845220815     A.U. after    1 cycles

 The electronic state is 1-A.
 Alpha  occ. eigenvalues --  -19.21902 -19.16448 -19.15891 -19.15773 -10.33615
 Alpha  occ. eigenvalues --  -10.30827 -10.18203  -1.13172  -1.07324  -1.03683
 Alpha  occ. eigenvalues --   -1.00036  -0.76541  -0.67882  -0.60405  -0.55493
 Alpha  occ. eigenvalues --   -0.53987  -0.50102  -0.47158  -0.43534  -0.42973
 Alpha  occ. eigenvalues --   -0.40103  -0.39380  -0.37567  -0.36441  -0.33939
 Alpha  occ. eigenvalues --   -0.32570  -0.29625  -0.27523
 Alpha virt. eigenvalues --   -0.01220   0.05848   0.08736   0.11710   0.14076
 Alpha virt. eigenvalues --    0.16132   0.17277   0.20827   0.22361   0.25255
 Alpha virt. eigenvalues --    0.25940   0.31778   0.37715   0.50231   0.54557

 Mulliken charges:
               1
     1  C   -0.306956
     2  C    0.418196
     3  O   -0.543091
     4  O   -0.519603
     5  C    0.571708
     6  O   -0.490786
     7  O   -0.465294
     8  H    0.131447
     9  H    0.131933
    10  H    0.111658
    11  H    0.323286
    12  H    0.307297
    13  H    0.330205
 Sum of Mulliken charges =  -0.00000

 Dipole moment (field-independent basis, Debye):
    X=             -1.5079    Y=             -0.4706    Z=              0.0133  Tot=              1.5797
 Quadrupole moment (field-independent basis, Debye-Ang):
   XX=            -38.5830   YY=            -40.3048   ZZ=            -39.6483
   XY=              2.9109   XZ=             -0.3903   YZ=              3.7262

  Exact polarizability:  47.232  -0.691  47.655   0.243   0.037  36.599
 Approx polarizability:  62.201  -3.087  73.976   1.926  -3.657  51.957

                      1                      2                      3
                      A                      A                      A
 Frequencies --     56.6677               207.1897               234.0881
 Red. masses --      7.9833                 1.4110                 1.2301
 Frc consts  --      0.0151                 0.0357                 0.0397
 IR Inten    --      0.3436                17.4047                63.9194

                      4                      5                      6
                      A                      A                      A
 Frequencies --    239.0899               263.5132               377.2161
 Red. masses --      1.9332                 4.2882                 3.0162
 Frc consts  --      0.0651                 0.1754                 0.2529
 IR Inten    --      9.2432                 2.3577                 7.3144

                      7                      8                      9
                      A                      A                      A
 Frequencies --    388.7811               432.8584               517.1001
 Red. masses --      4.5993                 4.6971                 1.3312
 Frc consts  --      0.4096                 0.5185                 0.2097
 IR Inten    --     25.3142                14.5505                88.6718

                     10                     11                     12
                      A                      A                      A
 Frequencies --    568.6509               621.9958               625.3227
 Red. masses --      2.5088                 3.1012                 1.3702
 Frc consts  --      0.4780                 0.7069                 0.3157
 IR Inten    --     16.2925                44.0379                78.5799

                     13                     14                     15
                      A                      A                      A
 Frequencies --    753.9681               786.4111               931.2473
 Red. masses --      3.9756                 5.1220                 2.4636
 Frc consts  --      1.3316                 1.8663                 1.2588
 IR Inten    --     23.4562                39.1152                46.4460

                     16                     17                     18
                      A                      A                      A
 Frequencies --    971.5309              1092.5743              1149.4672
 Red. masses --      2.0184                 2.1077                 2.1943
 Frc consts  --      1.1224                 1.4824                 1.7082
 IR Inten    --     52.2514               111.4674                83.4398

                     19                     20                     21
                      A                      A                      A
 Frequencies --   1184.0650              1206.9584              1341.0598
 Red. masses --      2.8935                 1.8855                 1.5073
 Frc consts  --      2.3902                 1.6183                 1.5971
 IR Inten    --    141.9017               158.8222               179.5880

                     22                     23                     24
                      A                      A                      A
 Frequencies --   1384.7865              1432.9662              1465.6399
 Red. masses --      1.6483                 1.6878                 1.6221
 Frc consts  --      1.8624                 2.0419                 2.0529
 IR Inten    --     33.7928                12.6449                32.6998

                     25                     26                     27
                      A                      A                      A
 Frequencies --   1497.1135              1508.1965              1817.4850
 Red. masses --      1.0558                 1.1972                10.3141
 Frc consts  --      1.3943                 1.6045                20.0734
 IR Inten    --      0.9002                 1.6208               247.4562

                     28                     29                     30
                      A                      A                      A
 Frequencies --   3072.4749              3152.6830              3167.9492
 Red. masses --      1.0348                 1.1037                 1.1040
 Frc consts  --      5.7557                 6.4634                 6.5277
 IR Inten    --      6.6417                13.4503                 8.5320

                     31                     32                     33
                      A                      A                      A
 Frequencies --   3687.5758              3744.1588              3803.8322
 Red. masses --      1.0650                 1.0642                 1.0658
 Frc consts  --      8.5326                 8.7899                 9.0859
 IR Inten    --     84.1406                55.8066                31.5217

 - Thermochemistry -
 -------------------
 Temperature   298.150 Kelvin.  Pressure   1.00000 Atm.
 Atom     1 has atomic number  6 and mass  12.00000

 Molecular mass:   106.02661 amu.
 Principal axes and moments of inertia in atomic units:
                           1         2         3
     Eigenvalues --   504.25682 730.50290 886.48357
           X            0.99946  -0.02315  -0.02344
           Y            0.02504   0.99616   0.08389
           Z            0.02140  -0.08443   0.99620
 This molecule is an asymmetric top.
 Rotational symmetry number  1.
 Warning -- assumption of classical behavior for rotation
           may cause significant error
 Rotational temperatures (Kelvin)      0.17177     0.11857     0.09770
 Rotational constants (GHZ):           3.57901     2.47055     2.03584
 Zero-point vibrational energy     261292.0 (Joules/Mol)
                                   62.45029 (Kcal/Mol)
 Warning -- explicit consideration of  10 degrees of freedom as
           vibrations may cause significant error
 Vibrational temperatures:     81.53   298.10   336.80   344.00   379.14
          (Kelvin)            542.73   559.37   622.79   743.99   818.16
                              894.91   899.70  1084.79  1131.47  1339.86
                             1397.81  1571.97  1653.82  1703.60  1736.54
                             1929.48  1992.40  2061.72  2108.73  2154.01
                             2169.96  2614.95  4420.60  4536.00  4557.97
                             5305.59  5387.00  5472.86

 Zero-point correction=                           0.099521 (Hartree/Particle)
 Thermal correction to Energy=                    0.107204
 Thermal correction to Enthalpy=                  0.108148
 Thermal correction to Gibbs Free Energy=         0.067786
 Sum of electronic and zero-point Energies=           -418.745700
 Sum of electronic and thermal Energies=              -418.738017
 Sum of electronic and thermal Enthalpies=            -418.737073
 Sum of electronic and thermal Free Energies=         -418.777435

                     E (Thermal)             CV                S
                      KCal/Mol        Cal/Mol-Kelvin    Cal/Mol-Kelvin
 Total                   67.272             27.568             84.950
 Electronic               0.000              0.000              0.000
 Translational            0.889              2.981             39.892
 Rotational               0.889              2.981             27.282
 Vibrational             65.494             21.606             17.775
 Vibration     1          0.596              1.975              4.570
 Vibration     2          0.641              1.830              2.068
 Vibration     3          0.654              1.789              1.847
 Vibration     4          0.657              1.781              1.810
 Vibration     5          0.670              1.740              1.638
 Vibration     6          0.748              1.519              1.050
 Vibration     7          0.757              1.494              1.005
 Vibration     8          0.794              1.399              0.849
 Vibration     9          0.872              1.212              0.617
 Vibration    10          0.925              1.099              0.507

 Normal termination of Gaussian 09 at Thu Sep  8 15:18:28 2022.
