 Gaussian 09, Revision E.01,
 Gaussian 09:  ES64L-G09RevE.01 30-Nov-2015

 ----------------------------
 #P OPT Freq B3LYP/6-31G(d,p)
 ----------------------------

 --------
 Frag_875
 --------
 Symbolic Z-matrix:
 Charge =  0 Multiplicity = 1

 SCF Done:  E(RB3LYP) =  -343.598604953     A.U. after   13 cycles
 SCF Done:  E(RB3LYP) =  -343.598706656     A.U. after   11 cycles
 SCF Done:  E(RB3LYP) =  -343.598599333     A.U. after   12 cycles
 SCF Done:  E(RB3LYP) =  -343.598724799     A.U. after   11 cycles
 SCF Done:  E(RB3LYP) =  -343.598734024     A.U. after   10 cycles
 SCF Done:  E(RB3LYP) =  -343.598738476     A.U. after    9 cycles
 SCF Done:  E(RB3LYP) =  -343.598740584     A.U. after    8 cycles
 SCF Done:  E(RB3LYP) =  -343.598741099     A.U. after    8 cycles
 SCF Done:  E(RB3LYP) =  -343.598741224     A.U. after    7 cycles
 SCF Done:  E(RB3LYP) =  -343.598741292     A.U. after    7 cycles
 SCF Done:  E(RB3LYP) =  -343.598741344     A.U. after    7 cycles
 SCF Done:  E(RB3LYP) =  -343.598741369     A.U. after    7 cycles
 Optimization completed.
    -- Stationary point found.
 Normal termination of Gaussian 09 at Thu Sep  8 14:56:36 2022.

 ----------------------------------------------------------------------
 #P Geom=AllCheck Guess=TCheck SCRF=Check GenChk RB3LYP/6-31G(d,p) Freq
 ----------------------------------------------------------------------

 Structure from the checkpoint file:  "B3LYP6-31Gdp.Frag_875.chk"
 --------
 Frag_875
 --------
 Charge =  0 Multiplicity = 1

                         Standard orientation:
 ---------------------------------------------------------------------
 Center     Atomic      Atomic             Coordinates (Angstroms)
 Number     Number       Type             X           Y           Z
 ---------------------------------------------------------------------
      1          6           0       -1.885882   -0.624250    0.207636
      2          6           0       -0.701658    0.284575    0.031624
      3          8           0       -0.772361    1.408076   -0.439328
      4          6           0        0.695985   -0.267135    0.408441
      5          8           0        1.632208    0.749204    0.308366
      6          8           0        0.976132   -1.359230   -0.458231
      7          1           0       -2.041450   -0.820327    1.275523
      8          1           0       -1.680382   -1.587993   -0.267023
      9          1           0       -2.781922   -0.167693   -0.213891
     10          1           0        0.692464   -0.694012    1.419660
     11          1           0        1.155844    1.493316   -0.110958
     12          1           0        1.316945   -0.966835   -1.275969
 ---------------------------------------------------------------------

 SCF Done:  E(RB3LYP) =  -343.598741369     A.U. after    1 cycles

 The electronic state is 1-A.
 Alpha  occ. eigenvalues --  -19.17082 -19.16198 -19.15740 -10.29563 -10.29491
 Alpha  occ. eigenvalues --  -10.20444  -1.08710  -1.05144  -1.00277  -0.77121
 Alpha  occ. eigenvalues --   -0.68862  -0.58131  -0.53518  -0.50573  -0.48941
 Alpha  occ. eigenvalues --   -0.45241  -0.44030  -0.42265  -0.38224  -0.37356
 Alpha  occ. eigenvalues --   -0.36070  -0.32793  -0.29551  -0.26060
 Alpha virt. eigenvalues --   -0.03988   0.08467   0.10129   0.11685   0.14155
 Alpha virt. eigenvalues --    0.15296   0.15916   0.20690   0.22670   0.24966
 Alpha virt. eigenvalues --    0.30081   0.33596   0.50394   0.52279   0.53228

 Mulliken charges:
               1
     1  C   -0.390439
     2  C    0.395104
     3  O   -0.451524
     4  C    0.325602
     5  O   -0.535583
     6  O   -0.520297
     7  H    0.140129
     8  H    0.158848
     9  H    0.142509
    10  H    0.106340
    11  H    0.322367
    12  H    0.306944
 Sum of Mulliken charges =   0.00000

 Dipole moment (field-independent basis, Debye):
    X=             -1.5602    Y=             -0.8204    Z=             -0.0987  Tot=              1.7656
 Quadrupole moment (field-independent basis, Debye-Ang):
   XX=            -36.6145   YY=            -39.0611   ZZ=            -31.7859
   XY=              2.8935   XZ=             -3.5832   YZ=              0.2237

  Exact polarizability:  43.016   1.860  43.845  -1.235  -3.296  34.846
 Approx polarizability:  53.330   0.780  70.099  -1.109  -7.615  50.738

                      1                      2                      3
                      A                      A                      A
 Frequencies --     66.2203               118.5522               238.0712
 Red. masses --      3.8956                 1.1355                 2.2410
 Frc consts  --      0.0101                 0.0094                 0.0748
 IR Inten    --      1.5687                 0.2934                 2.6619

                      4                      5                      6
                      A                      A                      A
 Frequencies --    262.8420               308.2552               399.0421
 Red. masses --      1.4604                 3.7960                 4.6649
 Frc consts  --      0.0594                 0.2125                 0.4377
 IR Inten    --    102.5826                 9.0311                 9.5428

                      7                      8                      9
                      A                      A                      A
 Frequencies --    507.4040               560.5270               601.7484
 Red. masses --      2.9361                 1.5956                 2.3813
 Frc consts  --      0.4454                 0.2954                 0.5080
 IR Inten    --     75.9139                22.9682                25.2209

                     10                     11                     12
                      A                      A                      A
 Frequencies --    660.7721               809.9912               979.3900
 Red. masses --      2.6036                 2.6367                 2.0543
 Frc consts  --      0.6698                 1.0192                 1.1610
 IR Inten    --      4.4388                11.4619                 9.4537

                     13                     14                     15
                      A                      A                      A
 Frequencies --   1026.1024              1045.1441              1129.2366
 Red. masses --      4.3106                 1.8424                 3.6987
 Frc consts  --      2.6740                 1.1858                 2.7789
 IR Inten    --    152.4964                 2.4901               138.8688

                     16                     17                     18
                      A                      A                      A
 Frequencies --   1215.8842              1275.6489              1317.0337
 Red. masses --      2.1795                 1.2167                 1.5482
 Frc consts  --      1.8984                 1.1665                 1.5823
 IR Inten    --     38.3788                59.6828                30.4398

                     19                     20                     21
                      A                      A                      A
 Frequencies --   1395.2266              1430.0335              1462.2608
 Red. masses --      1.3296                 1.2579                 1.3081
 Frc consts  --      1.5249                 1.5156                 1.6480
 IR Inten    --     62.5974                44.2874                96.7518

                     22                     23                     24
                      A                      A                      A
 Frequencies --   1479.3005              1483.2312              1803.9839
 Red. masses --      1.1036                 1.0541                10.4126
 Frc consts  --      1.4229                 1.3663                19.9653
 IR Inten    --     24.8686                14.1019               117.9201

                     25                     26                     27
                      A                      A                      A
 Frequencies --   3048.7221              3054.4409              3121.5833
 Red. masses --      1.0617                 1.0624                 1.0944
 Frc consts  --      5.8143                 5.8399                 6.2831
 IR Inten    --     13.5091                26.8759                 3.2708

                     28                     29                     30
                      A                      A                      A
 Frequencies --   3172.7584              3620.3255              3789.8781
 Red. masses --      1.1050                 1.0644                 1.0656
 Frc consts  --      6.5534                 8.2195                 9.0174
 IR Inten    --      5.8723                94.0167                30.8220

 - Thermochemistry -
 -------------------
 Temperature   298.150 Kelvin.  Pressure   1.00000 Atm.
 Atom     1 has atomic number  6 and mass  12.00000

 Molecular mass:    90.03169 amu.
 Principal axes and moments of inertia in atomic units:
                           1         2         3
     Eigenvalues --   353.76440 558.62688 798.96889
           X            0.99625   0.08425  -0.01963
           Y           -0.08444   0.99639  -0.00913
           Z            0.01879   0.01075   0.99977
 This molecule is an asymmetric top.
 Rotational symmetry number  1.
 Rotational temperatures (Kelvin)      0.24483     0.15505     0.10841
 Rotational constants (GHZ):           5.10153     3.23067     2.25884
 Zero-point vibrational energy     247529.0 (Joules/Mol)
                                   59.16084 (Kcal/Mol)
 Warning -- explicit consideration of   9 degrees of freedom as
           vibrations may cause significant error
 Vibrational temperatures:     95.28   170.57   342.53   378.17   443.51
          (Kelvin)            574.13   730.04   806.47   865.78   950.70
                             1165.40  1409.12  1476.33  1503.73  1624.72
                             1749.38  1835.37  1894.92  2007.42  2057.50
                             2103.86  2128.38  2134.04  2595.53  4386.43
                             4394.65  4491.26  4564.89  5208.83  5452.78

 Zero-point correction=                           0.094279 (Hartree/Particle)
 Thermal correction to Energy=                    0.101267
 Thermal correction to Enthalpy=                  0.102211
 Thermal correction to Gibbs Free Energy=         0.063344
 Sum of electronic and zero-point Energies=           -343.504463
 Sum of electronic and thermal Energies=              -343.497474
 Sum of electronic and thermal Enthalpies=            -343.496530
 Sum of electronic and thermal Free Energies=         -343.535398

                     E (Thermal)             CV                S
                      KCal/Mol        Cal/Mol-Kelvin    Cal/Mol-Kelvin
 Total                   63.546             23.743             81.804
 Electronic               0.000              0.000              0.000
 Translational            0.889              2.981             39.405
 Rotational               0.889              2.981             26.560
 Vibrational             61.769             17.782             15.839
 Vibration     1          0.598              1.970              4.263
 Vibration     2          0.609              1.934              3.124
 Vibration     3          0.656              1.782              1.817
 Vibration     4          0.670              1.741              1.643
 Vibration     5          0.698              1.658              1.372
 Vibration     6          0.765              1.472              0.966
 Vibration     7          0.863              1.234              0.640
 Vibration     8          0.916              1.117              0.523
 Vibration     9          0.960              1.028              0.447

 Optimization completed.
    -- Stationary point found.
 Normal termination of Gaussian 09 at Thu Sep  8 14:56:45 2022.
