 Gaussian 09, Revision E.01,
 Gaussian 09:  ES64L-G09RevE.01 30-Nov-2015

 ----------------------------
 #P OPT Freq B3LYP/6-31G(d,p)
 ----------------------------

 --------
 Frag_896
 --------
 Symbolic Z-matrix:
 Charge =  0 Multiplicity = 1

 SCF Done:  E(RB3LYP) =  -189.303260552     A.U. after   11 cycles
 SCF Done:  E(RB3LYP) =  -189.303298242     A.U. after    8 cycles
 SCF Done:  E(RB3LYP) =  -189.303300535     A.U. after    7 cycles
 SCF Done:  E(RB3LYP) =  -189.303302171     A.U. after    7 cycles
 SCF Done:  E(RB3LYP) =  -189.303302551     A.U. after    7 cycles
 Optimization completed.
    -- Stationary point found.
 Normal termination of Gaussian 09 at Thu Sep  8 15:11:06 2022.

 ----------------------------------------------------------------------
 #P Geom=AllCheck Guess=TCheck SCRF=Check GenChk RB3LYP/6-31G(d,p) Freq
 ----------------------------------------------------------------------

 Structure from the checkpoint file:  "B3LYP6-31Gdp.Frag_896.chk"
 --------
 Frag_896
 --------
 Charge =  0 Multiplicity = 1

                         Standard orientation:
 ---------------------------------------------------------------------
 Center     Atomic      Atomic             Coordinates (Angstroms)
 Number     Number       Type             X           Y           Z
 ---------------------------------------------------------------------
      1          7           0       -1.861040   -0.267609   -0.184570
      2          6           0       -0.512017    0.092664   -0.422412
      3          6           0        0.512017   -0.092664    0.422412
      4          7           0        1.861040    0.267609    0.184570
      5          1           0       -2.504019    0.486403   -0.409799
      6          1           0       -2.016680   -0.537237    0.781888
      7          1           0       -0.335034    0.495745   -1.418503
      8          1           0        0.335034   -0.495745    1.418503
      9          1           0        2.016680    0.537237   -0.781888
     10          1           0        2.504019   -0.486403    0.409799
 ---------------------------------------------------------------------

 SCF Done:  E(RB3LYP) =  -189.303302551     A.U. after    1 cycles

 The electronic state is 1-AG.
 Alpha  occ. eigenvalues --  -14.32281 -14.32281 -10.19261 -10.19178  -0.89574
 Alpha  occ. eigenvalues --   -0.87437  -0.69592  -0.57317  -0.49897  -0.49895
 Alpha  occ. eigenvalues --   -0.42941  -0.42525  -0.36324  -0.33473  -0.27534
 Alpha  occ. eigenvalues --   -0.16912
 Alpha virt. eigenvalues --    0.06425   0.08287   0.10496   0.11448   0.16374
 Alpha virt. eigenvalues --    0.17713   0.18511   0.26773   0.35616   0.40958
 Alpha virt. eigenvalues --    0.52538   0.56433   0.58903   0.62512   0.66123

 Mulliken charges:
               1
     1  N   -0.609252
     2  C    0.045287
     3  C    0.045287
     4  N   -0.609252
     5  H    0.247536
     6  H    0.242527
     7  H    0.073903
     8  H    0.073903
     9  H    0.242527
    10  H    0.247536
 Sum of Mulliken charges =  -0.00000

 Dipole moment (field-independent basis, Debye):
    X=             -0.0000    Y=              0.0000    Z=             -0.0000  Tot=              0.0000
 Quadrupole moment (field-independent basis, Debye-Ang):
   XX=            -20.7695   YY=            -26.9519   ZZ=            -23.2218
   XY=             -4.8098   XZ=             -3.6378   YZ=             -3.7357

  Exact polarizability:  56.067  -0.076  21.254   5.848  -6.839  33.242
 Approx polarizability:  79.421   0.201  29.672  14.816  -9.475  49.241

                      1                      2                      3
                     AU                     AG                     AU
 Frequencies --    199.7207               298.6745               306.2116
 Red. masses --      1.2097                 1.2133                 2.5525
 Frc consts  --      0.0284                 0.0638                 0.1410
 IR Inten    --     93.3210                 0.0000                81.8706

                      4                      5                      6
                     AU                     AG                     AG
 Frequencies --    319.5367               549.6305               764.9128
 Red. masses --      2.3827                 3.5182                 1.2876
 Frc consts  --      0.1433                 0.6262                 0.4439
 IR Inten    --     28.3243                 0.0000                 0.0000

                      7                      8                      9
                     AU                     AG                     AU
 Frequencies --    790.5087               836.1388               934.4528
 Red. masses --      1.5039                 1.8297                 1.0682
 Frc consts  --      0.5537                 0.7537                 0.5495
 IR Inten    --    544.2928                 0.0000                69.2322

                     10                     11                     12
                     AG                     AU                     AU
 Frequencies --   1032.6301              1131.0547              1180.2767
 Red. masses --      1.7706                 1.0826                 3.7935
 Frc consts  --      1.1124                 0.8160                 3.1136
 IR Inten    --      0.0000                 0.4701                90.7173

                     13                     14                     15
                     AG                     AG                     AU
 Frequencies --   1287.8790              1342.3808              1402.8211
 Red. masses --      1.7324                 1.3159                 1.3019
 Frc consts  --      1.6930                 1.3971                 1.5095
 IR Inten    --      0.0000                 0.0000                11.2313

                     16                     17                     18
                     AG                     AU                     AG
 Frequencies --   1653.4786              1661.9764              1770.1249
 Red. masses --      1.1059                 1.1185                 4.9459
 Frc consts  --      1.7814                 1.8203                 9.1306
 IR Inten    --      0.0000                60.8549                 0.0000

                     19                     20                     21
                     AG                     AU                     AG
 Frequencies --   3156.2752              3159.8194              3496.9905
 Red. masses --      1.0933                 1.0854                 1.0495
 Frc consts  --      6.4173                 6.3852                 7.5617
 IR Inten    --      0.0000                49.1802                 0.0000

                     22                     23                     24
                     AU                     AU                     AG
 Frequencies --   3499.2106              3596.6133              3597.2402
 Red. masses --      1.0489                 1.0938                 1.0939
 Frc consts  --      7.5670                 8.3360                 8.3397
 IR Inten    --      2.4846                 1.9285                 0.0000

 - Thermochemistry -
 -------------------
 Temperature   298.150 Kelvin.  Pressure   1.00000 Atm.
 Atom     1 has atomic number  7 and mass  14.00307

 Molecular mass:    58.05310 amu.
 Principal axes and moments of inertia in atomic units:
                           1         2         3
     Eigenvalues --    41.54305 458.04196 493.03762
           X            0.98788  -0.07218  -0.13743
           Y            0.09535  -0.41646   0.90414
           Z            0.12250   0.90629   0.40453
 This molecule is an asymmetric top.
 Rotational symmetry number  1.
 Rotational temperatures (Kelvin)      2.08492     0.18910     0.17567
 Rotational constants (GHZ):          43.44267     3.94012     3.66045
 Zero-point vibrational energy     227102.4 (Joules/Mol)
                                   54.27878 (Kcal/Mol)
 Warning -- explicit consideration of   5 degrees of freedom as
           vibrations may cause significant error
 Vibrational temperatures:    287.35   429.73   440.57   459.74   790.79
          (Kelvin)           1100.54  1137.36  1203.02  1344.47  1485.72
                             1627.33  1698.15  1852.97  1931.38  2018.34
                             2378.98  2391.21  2546.81  4541.17  4546.27
                             5031.38  5034.58  5174.72  5175.62

 Zero-point correction=                           0.086499 (Hartree/Particle)
 Thermal correction to Energy=                    0.091707
 Thermal correction to Enthalpy=                  0.092651
 Thermal correction to Gibbs Free Energy=         0.059547
 Sum of electronic and zero-point Energies=           -189.216804
 Sum of electronic and thermal Energies=              -189.211595
 Sum of electronic and thermal Enthalpies=            -189.210651
 Sum of electronic and thermal Free Energies=         -189.243755

                     E (Thermal)             CV                S
                      KCal/Mol        Cal/Mol-Kelvin    Cal/Mol-Kelvin
 Total                   57.547             17.658             69.673
 Electronic               0.000              0.000              0.000
 Translational            0.889              2.981             38.097
 Rotational               0.889              2.981             23.754
 Vibrational             55.770             11.696              7.821
 Vibration     1          0.638              1.840              2.136
 Vibration     2          0.692              1.676              1.424
 Vibration     3          0.697              1.662              1.383
 Vibration     4          0.705              1.636              1.312
 Vibration     5          0.905              1.140              0.545

 Optimization completed.
    -- Stationary point found.
 Normal termination of Gaussian 09 at Thu Sep  8 15:11:12 2022.
