 Gaussian 09, Revision D.01,
 Gaussian 09:  ES64L-G09RevD.01 24-Apr-2013

 -------------------------
 #P OPT Freq B3LYP/6-31G**
 -------------------------

 -------
 Frag_52
 -------
 Symbolic Z-matrix:
 Charge =  0 Multiplicity = 1

 SCF Done:  E(RB3LYP) =  -264.481300126     A.U. after   14 cycles
 Optimization completed.
    -- Stationary point found.
 Normal termination of Gaussian 09 at Fri Jul 23 17:10:26 2021.

 ----------------------------------------------------------------------
 #P Geom=AllCheck Guess=TCheck SCRF=Check GenChk RB3LYP/6-31G(d,p) Freq
 ----------------------------------------------------------------------

 Structure from the checkpoint file:  "/vol2/users/liuj201281/HOFBenchmark/IsodesmicSplit/Sample60/Ring26/Running/Gau-418679.chk"
 -------
 Frag_52
 -------
 Charge =  0 Multiplicity = 1

                         Standard orientation:
 ---------------------------------------------------------------------
 Center     Atomic      Atomic             Coordinates (Angstroms)
 Number     Number       Type             X           Y           Z
 ---------------------------------------------------------------------
      1          6           0        0.119214    1.438289   -0.000005
      2          7           0        0.340105   -0.001212   -0.008005
      3          6           0        1.663901   -0.592220    0.003895
      4          7           0       -0.697900   -0.843506   -0.004305
      5          8           0       -1.795297   -0.287499    0.004795
      6          1           0        1.084217    1.939683   -0.076505
      7          1           0       -0.388584    1.743192    0.920695
      8          1           0       -0.521384    1.721393   -0.840005
      9          1           0        2.219303   -0.303124    0.903595
     10          1           0        2.240003   -0.289124   -0.877805
     11          1           0        1.534695   -1.675420   -0.005505
 ---------------------------------------------------------------------

 SCF Done:  E(RB3LYP) =  -264.481300126     A.U. after    1 cycles

 The electronic state is 1-A.
 Alpha  occ. eigenvalues --  -19.15052 -14.44500 -14.40319 -10.23592 -10.22982
 Alpha  occ. eigenvalues --   -1.13415  -0.95855  -0.75336  -0.73924  -0.58105
 Alpha  occ. eigenvalues --   -0.50744  -0.50111  -0.49647  -0.42519  -0.42302
 Alpha  occ. eigenvalues --   -0.40538  -0.40351  -0.37572  -0.25679  -0.22107
 Alpha virt. eigenvalues --   -0.02522   0.08847   0.12653   0.12895   0.13858
 Alpha virt. eigenvalues --    0.14443   0.15357   0.18005   0.21682   0.30434
 Alpha virt. eigenvalues --    0.33739   0.46960   0.50802   0.54669   0.55792

 Mulliken charges:
               1
     1  C   -0.174330
     2  N   -0.223459
     3  C   -0.170627
     4  N    0.141918
     5  O   -0.384957
     6  H    0.115944
     7  H    0.144748
     8  H    0.148840
     9  H    0.126257
    10  H    0.125809
    11  H    0.149857
 Sum of Mulliken charges =   0.00000

 Dipole moment (field-independent basis, Debye):
    X=              3.7657    Y=              1.5958    Z=              0.0019  Tot=              4.0899
 Quadrupole moment (field-independent basis, Debye-Ang):
   XX=            -32.5448   YY=            -29.0468   ZZ=            -29.4200
   XY=             -1.9412   XZ=              0.0269   YZ=             -0.0271

  Exact polarizability:  53.064   1.589  39.064  -0.019   0.095  28.541
 Approx polarizability:  89.325   5.880  52.995  -0.121   0.132  39.686

                      1                      2                      3
                      A                      A                      A
 Frequencies --     22.2609               153.2692               219.3967
 Red. masses --      1.1092                 2.0777                 1.2619
 Frc consts  --      0.0003                 0.0288                 0.0358
 IR Inten    --      0.2653                 0.3777                 2.4128

                      4                      5                      6
                      A                      A                      A
 Frequencies --    334.6623               392.3023               404.6753
 Red. masses --      3.9155                 2.5239                 6.9617
 Frc consts  --      0.2584                 0.2289                 0.6717
 IR Inten    --      6.2141                 3.7881                 0.5588

                      7                      8                      9
                      A                      A                      A
 Frequencies --    695.0501               860.1359              1048.9621
 Red. masses --      5.0237                 4.2604                 2.0617
 Frc consts  --      1.4299                 1.8571                 1.3366
 IR Inten    --      5.8821                 7.2588               123.3858

                     10                     11                     12
                      A                      A                      A
 Frequencies --   1063.7084              1121.1319              1162.1816
 Red. masses --      1.5443                 1.2459                 1.3475
 Frc consts  --      1.0295                 0.9227                 1.0723
 IR Inten    --     18.5460                 0.1387                 0.6731

                     13                     14                     15
                      A                      A                      A
 Frequencies --   1325.8445              1350.6658              1440.6526
 Red. masses --      3.3698                 4.0044                 1.1787
 Frc consts  --      3.4901                 4.3041                 1.4413
 IR Inten    --     88.2661                24.8208                 2.8333

                     16                     17                     18
                      A                      A                      A
 Frequencies --   1460.0219              1479.7932              1494.3714
 Red. masses --      1.2307                 1.0465                 1.0445
 Frc consts  --      1.5457                 1.3502                 1.3743
 IR Inten    --      1.9143                 9.6042                 5.8211

                     19                     20                     21
                      A                      A                      A
 Frequencies --   1515.8300              1529.8049              1568.3162
 Red. masses --      1.0917                 1.0782                 8.4912
 Frc consts  --      1.4779                 1.4867                12.3052
 IR Inten    --      5.4021                14.6527               165.1202

                     22                     23                     24
                      A                      A                      A
 Frequencies --   3033.9457              3056.4705              3091.4223
 Red. masses --      1.0356                 1.0337                 1.1056
 Frc consts  --      5.6162                 5.6895                 6.2256
 IR Inten    --     45.3100                15.3004                28.8909

                     25                     26                     27
                      A                      A                      A
 Frequencies --   3118.9420              3160.4617              3167.3440
 Red. masses --      1.1031                 1.0996                 1.1045
 Frc consts  --      6.3225                 6.4710                 6.5286
 IR Inten    --     11.8301                 3.4669                 9.3913

 - Thermochemistry -
 -------------------
 Temperature   298.150 Kelvin.  Pressure   1.00000 Atm.
 Atom     1 has atomic number  6 and mass  12.00000

 Molecular mass:    74.04801 amu.
 Principal axes and moments of inertia in atomic units:
                           1         2         3
     Eigenvalues --   200.08948 393.65786 571.08889
           X            0.99838  -0.05690   0.00029
           Y            0.05690   0.99838  -0.00001
           Z           -0.00029   0.00003   1.00000
 This molecule is an asymmetric top.
 Rotational symmetry number  1.
 Rotational temperatures (Kelvin)      0.43288     0.22002     0.15166
 Rotational constants (GHZ):           9.01967     4.58454     3.16018
 Zero-point vibrational energy     234896.5 (Joules/Mol)
                                   56.14160 (Kcal/Mol)
 Warning -- explicit consideration of   6 degrees of freedom as
           vibrations may cause significant error
 Vibrational temperatures:     32.03   220.52   315.66   481.50   564.43
          (Kelvin)            582.24  1000.02  1237.54  1509.22  1530.44
                             1613.06  1672.12  1907.59  1943.30  2072.78
                             2100.64  2129.09  2150.06  2180.94  2201.05
                             2256.45  4365.17  4397.57  4447.86  4487.46
                             4547.19  4557.10

 Zero-point correction=                           0.089467 (Hartree/Particle)
 Thermal correction to Energy=                    0.095697
 Thermal correction to Enthalpy=                  0.096641
 Thermal correction to Gibbs Free Energy=         0.059017
 Sum of electronic and zero-point Energies=           -264.391833
 Sum of electronic and thermal Energies=              -264.385604
 Sum of electronic and thermal Enthalpies=            -264.384659
 Sum of electronic and thermal Free Energies=         -264.422284

                     E (Thermal)             CV                S
                      KCal/Mol        Cal/Mol-Kelvin    Cal/Mol-Kelvin
 Total                   60.051             19.532             79.187
 Electronic               0.000              0.000              0.000
 Translational            0.889              2.981             38.822
 Rotational               0.889              2.981             25.312
 Vibrational             58.273             13.571             15.052
 Vibration     1          0.593              1.985              6.422
 Vibration     2          0.619              1.899              2.631
 Vibration     3          0.647              1.812              1.964
 Vibration     4          0.716              1.606              1.237
 Vibration     5          0.760              1.487              0.991
 Vibration     6          0.770              1.460              0.946

 Normal termination of Gaussian 09 at Fri Jul 23 17:10:58 2021.
