 Gaussian 09, Revision E.01,
 Gaussian 09:  ES64L-G09RevE.01 30-Nov-2015

 ----------------------------
 #P OPT Freq B3LYP/6-31G(d,p)
 ----------------------------

 --------
 Frag_792
 --------
 Symbolic Z-matrix:
 Charge =  0 Multiplicity = 1

 SCF Done:  E(RB3LYP) =  -324.847957075     A.U. after   13 cycles
 SCF Done:  E(RB3LYP) =  -324.848020751     A.U. after   10 cycles
 SCF Done:  E(RB3LYP) =  -324.848029491     A.U. after    9 cycles
 SCF Done:  E(RB3LYP) =  -324.848032912     A.U. after    8 cycles
 SCF Done:  E(RB3LYP) =  -324.848033167     A.U. after    7 cycles
 Optimization completed.
    -- Stationary point found.
 Normal termination of Gaussian 09 at Thu Sep  8 15:10:40 2022.

 ----------------------------------------------------------------------
 #P Geom=AllCheck Guess=TCheck SCRF=Check GenChk RB3LYP/6-31G(d,p) Freq
 ----------------------------------------------------------------------

 Structure from the checkpoint file:  "B3LYP6-31Gdp.Frag_792.chk"
 --------
 Frag_792
 --------
 Charge =  0 Multiplicity = 1

                         Standard orientation:
 ---------------------------------------------------------------------
 Center     Atomic      Atomic             Coordinates (Angstroms)
 Number     Number       Type             X           Y           Z
 ---------------------------------------------------------------------
      1          6           0       -0.802207    1.344838    0.641575
      2          6           0       -0.628511    0.262808   -0.429098
      3          6           0       -1.732975   -0.793587   -0.390600
      4          7           0        0.683222   -0.436224   -0.374490
      5          8           0        1.664890    0.601395   -0.511157
      6          8           0        0.809522   -0.927871    0.971955
      7          1           0       -1.748005    1.872169    0.481461
      8          1           0       -0.818487    0.902957    1.640776
      9          1           0        0.011075    2.071793    0.595748
     10          1           0       -0.615792    0.732769   -1.418755
     11          1           0       -1.757498   -1.289592    0.583260
     12          1           0       -2.706224   -0.324161   -0.563080
     13          1           0       -1.575232   -1.552461   -1.162951
     14          1           0        2.375024    0.151303   -0.989799
     15          1           0        1.239448   -1.783752    0.837116
 ---------------------------------------------------------------------

 SCF Done:  E(RB3LYP) =  -324.848033167     A.U. after    1 cycles

 The electronic state is 1-A.
 Alpha  occ. eigenvalues --  -19.17062 -19.17034 -14.42225 -10.21282 -10.17159
 Alpha  occ. eigenvalues --  -10.16326  -1.09668  -0.99853  -0.82375  -0.71609
 Alpha  occ. eigenvalues --   -0.67993  -0.57449  -0.52422  -0.49005  -0.46831
 Alpha  occ. eigenvalues --   -0.43227  -0.40316  -0.38898  -0.37992  -0.37493
 Alpha  occ. eigenvalues --   -0.33891  -0.33193  -0.31393  -0.28234  -0.23722
 Alpha virt. eigenvalues --    0.06338   0.09176   0.11329   0.13426   0.14424
 Alpha virt. eigenvalues --    0.15623   0.16251   0.17327   0.18558   0.20343
 Alpha virt. eigenvalues --    0.20639   0.22821   0.24575   0.27940   0.50721

 Mulliken charges:
               1
     1  C   -0.320909
     2  C    0.105449
     3  C   -0.319939
     4  N   -0.069533
     5  O   -0.405161
     6  O   -0.408124
     7  H    0.095603
     8  H    0.124107
     9  H    0.128017
    10  H    0.105205
    11  H    0.119322
    12  H    0.102861
    13  H    0.105748
    14  H    0.317899
    15  H    0.319456
 Sum of Mulliken charges =  -0.00000

 Dipole moment (field-independent basis, Debye):
    X=              0.4232    Y=             -1.3093    Z=             -0.9737  Tot=              1.6857
 Quadrupole moment (field-independent basis, Debye-Ang):
   XX=            -32.2892   YY=            -35.1836   ZZ=            -37.7766
   XY=             -3.7183   XZ=             -1.6886   YZ=             -1.0215

  Exact polarizability:  53.883  -0.723  49.261  -1.443  -2.056  44.294
 Approx polarizability:  68.442  -0.168  67.238  -2.743  -5.863  64.661

                      1                      2                      3
                      A                      A                      A
 Frequencies --    112.0543               209.5835               226.6714
 Red. masses --      3.0923                 1.0891                 1.0777
 Frc consts  --      0.0229                 0.0282                 0.0326
 IR Inten    --      0.7956                 0.3594                25.4678

                      4                      5                      6
                      A                      A                      A
 Frequencies --    242.4872               277.6101               293.0631
 Red. masses --      1.1550                 2.7787                 3.3467
 Frc consts  --      0.0400                 0.1262                 0.1694
 IR Inten    --     12.9426                13.3013                10.2976

                      7                      8                      9
                      A                      A                      A
 Frequencies --    357.6001               397.3928               480.8999
 Red. masses --      2.1709                 1.2394                 3.7313
 Frc consts  --      0.1636                 0.1153                 0.5084
 IR Inten    --     10.2974               106.1513                 5.9474

                     10                     11                     12
                      A                      A                      A
 Frequencies --    552.8319               625.8029               780.7093
 Red. masses --      3.9990                 3.3595                 3.5377
 Frc consts  --      0.7201                 0.7752                 1.2704
 IR Inten    --      8.3595                 4.3722                 7.9214

                     13                     14                     15
                      A                      A                      A
 Frequencies --    859.5443               896.1118               941.1309
 Red. masses --      5.2273                 2.8111                 1.1808
 Frc consts  --      2.2754                 1.3300                 0.6162
 IR Inten    --    124.1603                16.9600                 2.2551

                     16                     17                     18
                      A                      A                      A
 Frequencies --    959.2260              1009.0208              1151.4940
 Red. masses --      1.4950                 3.9295                 2.0498
 Frc consts  --      0.8105                 2.3571                 1.6013
 IR Inten    --      1.7079                39.8611                10.9625

                     19                     20                     21
                      A                      A                      A
 Frequencies --   1168.2448              1209.3968              1326.9767
 Red. masses --      1.9841                 1.8756                 1.1089
 Frc consts  --      1.5954                 1.6164                 1.1505
 IR Inten    --      7.5881                 6.3887                67.9976

                     22                     23                     24
                      A                      A                      A
 Frequencies --   1355.5843              1369.3748              1404.9189
 Red. masses --      1.3464                 1.2472                 1.2560
 Frc consts  --      1.4577                 1.3779                 1.4606
 IR Inten    --     12.2882                 6.2047                22.8175

                     25                     26                     27
                      A                      A                      A
 Frequencies --   1420.6055              1430.1191              1496.0813
 Red. masses --      1.3585                 1.2834                 1.0473
 Frc consts  --      1.6154                 1.5465                 1.3811
 IR Inten    --     23.1026                 4.3892                 1.3592

                     28                     29                     30
                      A                      A                      A
 Frequencies --   1508.2131              1511.5664              1531.5403
 Red. masses --      1.0474                 1.0452                 1.0558
 Frc consts  --      1.4038                 1.4070                 1.4591
 IR Inten    --      2.6370                 4.1917                 4.9918

                     31                     32                     33
                      A                      A                      A
 Frequencies --   3053.0768              3061.4780              3069.0991
 Red. masses --      1.0353                 1.0381                 1.0846
 Frc consts  --      5.6858                 5.7324                 6.0194
 IR Inten    --     20.1915                18.5473                13.5761

                     34                     35                     36
                      A                      A                      A
 Frequencies --   3125.3753              3131.8694              3138.7648
 Red. masses --      1.1024                 1.1005                 1.1018
 Frc consts  --      6.3447                 6.3598                 6.3957
 IR Inten    --     22.8573                13.1690                33.4894

                     37                     38                     39
                      A                      A                      A
 Frequencies --   3155.1975              3795.1647              3799.7483
 Red. masses --      1.1029                 1.0680                 1.0681
 Frc consts  --      6.4690                 9.0636                 9.0860
 IR Inten    --     15.7589                28.5271                30.3062

 - Thermochemistry -
 -------------------
 Temperature   298.150 Kelvin.  Pressure   1.00000 Atm.
 Atom     1 has atomic number  6 and mass  12.00000

 Molecular mass:    91.06333 amu.
 Principal axes and moments of inertia in atomic units:
                           1         2         3
     Eigenvalues --   386.53581 617.87115 724.93820
           X            0.99993  -0.01110  -0.00356
           Y            0.01133   0.99735   0.07186
           Z            0.00275  -0.07189   0.99741
 This molecule is an asymmetric top.
 Rotational symmetry number  1.
 Rotational temperatures (Kelvin)      0.22408     0.14018     0.11948
 Rotational constants (GHZ):           4.66901     2.92090     2.48951
 Zero-point vibrational energy     337560.0 (Joules/Mol)
                                   80.67878 (Kcal/Mol)
 Warning -- explicit consideration of  10 degrees of freedom as
           vibrations may cause significant error
 Vibrational temperatures:    161.22   301.54   326.13   348.88   399.42
          (Kelvin)            421.65   514.51   571.76   691.91   795.40
                              900.39  1123.27  1236.69  1289.30  1354.08
                             1380.11  1451.75  1656.74  1680.84  1740.05
                             1909.22  1950.38  1970.22  2021.36  2043.93
                             2057.62  2152.52  2169.98  2174.80  2203.54
                             4392.69  4404.78  4415.74  4496.71  4506.06
                             4515.98  4539.62  5460.39  5466.98

 Zero-point correction=                           0.128570 (Hartree/Particle)
 Thermal correction to Energy=                    0.136242
 Thermal correction to Enthalpy=                  0.137186
 Thermal correction to Gibbs Free Energy=         0.097764
 Sum of electronic and zero-point Energies=           -324.719463
 Sum of electronic and thermal Energies=              -324.711791
 Sum of electronic and thermal Enthalpies=            -324.710847
 Sum of electronic and thermal Free Energies=         -324.750269

                     E (Thermal)             CV                S
                      KCal/Mol        Cal/Mol-Kelvin    Cal/Mol-Kelvin
 Total                   85.493             27.754             82.970
 Electronic               0.000              0.000              0.000
 Translational            0.889              2.981             39.439
 Rotational               0.889              2.981             26.651
 Vibrational             83.716             21.792             16.880
 Vibration     1          0.607              1.939              3.233
 Vibration     2          0.642              1.826              2.047
 Vibration     3          0.650              1.800              1.905
 Vibration     4          0.659              1.775              1.785
 Vibration     5          0.679              1.715              1.548
 Vibration     6          0.688              1.687              1.456
 Vibration     7          0.733              1.560              1.133
 Vibration     8          0.764              1.476              0.972
 Vibration     9          0.837              1.292              0.708
 Vibration    10          0.908              1.133              0.538

 Normal termination of Gaussian 09 at Thu Sep  8 15:10:53 2022.
