 Gaussian 09, Revision E.01,
 Gaussian 09:  ES64L-G09RevE.01 30-Nov-2015

 --------------------------------
 #P OPT=calcfc Freq B3LYP/6-31G**
 --------------------------------

 --------
 Frag_347
 --------
 Symbolic Z-matrix:
 Charge =  0 Multiplicity = 1

 SCF Done:  E(RB3LYP) =  -248.441296734     A.U. after   14 cycles
 SCF Done:  E(RB3LYP) =  -248.452823745     A.U. after   13 cycles
 SCF Done:  E(RB3LYP) =  -248.455461606     A.U. after   14 cycles
 SCF Done:  E(RB3LYP) =  -248.455811326     A.U. after   14 cycles
 SCF Done:  E(RB3LYP) =  -248.456384335     A.U. after   12 cycles
 SCF Done:  E(RB3LYP) =  -248.456500807     A.U. after   11 cycles
 SCF Done:  E(RB3LYP) =  -248.456584360     A.U. after   11 cycles
 SCF Done:  E(RB3LYP) =  -248.456600313     A.U. after    9 cycles
 SCF Done:  E(RB3LYP) =  -248.456605529     A.U. after   10 cycles
 SCF Done:  E(RB3LYP) =  -248.456606294     A.U. after    9 cycles
 SCF Done:  E(RB3LYP) =  -248.456606498     A.U. after    8 cycles
 SCF Done:  E(RB3LYP) =  -248.456606526     A.U. after    6 cycles
 Optimization completed.
    -- Stationary point found.
 Normal termination of Gaussian 09 at Fri Sep 10 21:02:12 2021.

 ----------------------------------------------------------------------
 #P Geom=AllCheck Guess=TCheck SCRF=Check GenChk RB3LYP/6-31G(d,p) Freq
 ----------------------------------------------------------------------

 Structure from the checkpoint file:  "/public/home/users/caep010/.cache/gau_scr/Gau-29377.chk"
 --------
 Frag_347
 --------
 Charge =  0 Multiplicity = 1

                         Standard orientation:
 ---------------------------------------------------------------------
 Center     Atomic      Atomic             Coordinates (Angstroms)
 Number     Number       Type             X           Y           Z
 ---------------------------------------------------------------------
      1          6           0        0.226043    1.473906   -0.000002
      2          6           0        0.377661   -0.032440    0.000004
      3          6           0        1.761593   -0.621353    0.000003
      4          7           0       -0.597132   -0.868283   -0.000002
      5          8           0       -1.886241   -0.348007   -0.000004
      6          1           0        1.202746    1.960706   -0.000143
      7          1           0       -0.316398    1.826904   -0.887028
      8          1           0       -0.316174    1.826960    0.887140
      9          1           0        2.325535   -0.293709    0.882151
     10          1           0        2.325489   -0.293782   -0.882205
     11          1           0        1.705910   -1.711050    0.000046
     12          1           0       -1.849038    0.625336    0.000053
 ---------------------------------------------------------------------

 SCF Done:  E(RB3LYP) =  -248.456606526     A.U. after    1 cycles

 The electronic state is 1-A.
 Alpha  occ. eigenvalues --  -19.18318 -14.37538 -10.23056 -10.20827 -10.19053
 Alpha  occ. eigenvalues --   -1.07563  -0.86362  -0.74705  -0.70984  -0.58519
 Alpha  occ. eigenvalues --   -0.50147  -0.46081  -0.45793  -0.41288  -0.40886
 Alpha  occ. eigenvalues --   -0.38141  -0.38070  -0.35906  -0.27666  -0.24551
 Alpha virt. eigenvalues --    0.01002   0.06334   0.10349   0.12733   0.14353
 Alpha virt. eigenvalues --    0.15626   0.16807   0.18195   0.18510   0.22022
 Alpha virt. eigenvalues --    0.29551   0.36876   0.50304   0.53247   0.58160

 Mulliken charges:
               1
     1  C   -0.420898
     2  C    0.276028
     3  C   -0.359677
     4  N   -0.159095
     5  O   -0.421157
     6  H    0.129962
     7  H    0.137617
     8  H    0.137623
     9  H    0.118129
    10  H    0.118130
    11  H    0.140730
    12  H    0.302607
 Sum of Mulliken charges =  -0.00000

 Dipole moment (field-independent basis, Debye):
    X=              1.8642    Y=              3.1491    Z=              0.0001  Tot=              3.6596
 Quadrupole moment (field-independent basis, Debye-Ang):
   XX=            -31.4357   YY=            -31.0208   ZZ=            -30.9749
   XY=             -4.0346   XZ=             -0.0002   YZ=              0.0001

  Exact polarizability:  56.101   1.368  44.047  -0.000   0.000  30.111
 Approx polarizability:  83.806   9.507  63.785  -0.000   0.000  42.583

                      1                      2                      3
                      A                      A                      A
 Frequencies --     94.9070               205.3042               298.8013
 Red. masses --      1.0477                 1.1116                 1.5123
 Frc consts  --      0.0056                 0.0276                 0.0796
 IR Inten    --      7.5793                 1.7284                39.5144

                      4                      5                      6
                      A                      A                      A
 Frequencies --    317.5303               317.8795               373.1932
 Red. masses --      3.5242                 1.6459                 2.3223
 Frc consts  --      0.2094                 0.0980                 0.1906
 IR Inten    --      9.4051                37.8318                 4.7990

                      7                      8                      9
                      A                      A                      A
 Frequencies --    510.0610               609.6010               797.0314
 Red. masses --      3.3185                 3.6298                 3.4081
 Frc consts  --      0.5087                 0.7947                 1.2756
 IR Inten    --      6.8917                 0.1453                11.9646

                     10                     11                     12
                      A                      A                      A
 Frequencies --    966.8961               976.0583               979.3417
 Red. masses --      3.7249                 1.2675                 1.4266
 Frc consts  --      2.0517                 0.7115                 0.8061
 IR Inten    --     84.5830                 0.0300                 2.2307

                     13                     14                     15
                      A                      A                      A
 Frequencies --   1100.2399              1106.6972              1284.7137
 Red. masses --      1.6412                 2.0450                 3.2108
 Frc consts  --      1.1705                 1.4757                 3.1223
 IR Inten    --      1.5499                46.4201                 8.9878

                     16                     17                     18
                      A                      A                      A
 Frequencies --   1387.6031              1419.6945              1424.4601
 Red. masses --      1.2372                 1.2076                 1.3744
 Frc consts  --      1.4036                 1.4340                 1.6432
 IR Inten    --     26.7764                12.2380                22.8462

                     19                     20                     21
                      A                      A                      A
 Frequencies --   1491.7837              1494.2618              1504.9132
 Red. masses --      1.0683                 1.0458                 1.0435
 Frc consts  --      1.4008                 1.3758                 1.3923
 IR Inten    --     10.1986                 9.1818                 5.4119

                     22                     23                     24
                      A                      A                      A
 Frequencies --   1509.0187              1706.3457              3024.5625
 Red. masses --      1.0760                 7.7532                 1.0410
 Frc consts  --      1.4436                13.3004                 5.6108
 IR Inten    --      6.2932                 4.9557                 9.4114

                     25                     26                     27
                      A                      A                      A
 Frequencies --   3033.0035              3077.9712              3084.4515
 Red. masses --      1.0392                 1.1008                 1.1007
 Frc consts  --      5.6326                 6.1445                 6.1699
 IR Inten    --     19.9064                13.8267                20.9920

                     28                     29                     30
                      A                      A                      A
 Frequencies --   3144.4898              3156.0151              3674.8040
 Red. masses --      1.0966                 1.0992                 1.0652
 Frc consts  --      6.3883                 6.4508                 8.4753
 IR Inten    --      7.1291                 8.8237                 1.3162

 - Thermochemistry -
 -------------------
 Temperature   298.150 Kelvin.  Pressure   1.00000 Atm.
 Atom     1 has atomic number  6 and mass  12.00000

 Molecular mass:    73.05276 amu.
 Principal axes and moments of inertia in atomic units:
                           1         2         3
     Eigenvalues --   214.36985 440.87222 632.71002
           X            0.99807  -0.06215  -0.00000
           Y            0.06215   0.99807   0.00000
           Z            0.00000  -0.00000   1.00000
 This molecule is an asymmetric top.
 Rotational symmetry number  1.
 Rotational temperatures (Kelvin)      0.40404     0.19646     0.13689
 Rotational constants (GHZ):           8.41882     4.09357     2.85240
 Zero-point vibrational energy     263606.9 (Joules/Mol)
                                   63.00356 (Kcal/Mol)
 Warning -- explicit consideration of   8 degrees of freedom as
           vibrations may cause significant error
 Vibrational temperatures:    136.55   295.39   429.91   456.85   457.36
          (Kelvin)            536.94   733.86   877.08  1146.75  1391.15
                             1404.33  1409.05  1583.00  1592.29  1848.41
                             1996.45  2042.62  2049.48  2146.34  2149.91
                             2165.23  2171.14  2455.05  4351.67  4363.81
                             4428.51  4437.83  4524.21  4540.80  5287.22

 Zero-point correction=                           0.100403 (Hartree/Particle)
 Thermal correction to Energy=                    0.106764
 Thermal correction to Enthalpy=                  0.107708
 Thermal correction to Gibbs Free Energy=         0.071125
 Sum of electronic and zero-point Energies=           -248.356204
 Sum of electronic and thermal Energies=              -248.349842
 Sum of electronic and thermal Enthalpies=            -248.348898
 Sum of electronic and thermal Free Energies=         -248.385482

                     E (Thermal)             CV                S
                      KCal/Mol        Cal/Mol-Kelvin    Cal/Mol-Kelvin
 Total                   66.996             21.697             76.996
 Electronic               0.000              0.000              0.000
 Translational            0.889              2.981             38.782
 Rotational               0.889              2.981             25.595
 Vibrational             65.218             15.735             12.619
 Vibration     1          0.603              1.953              3.556
 Vibration     2          0.640              1.832              2.085
 Vibration     3          0.692              1.676              1.424
 Vibration     4          0.704              1.640              1.323
 Vibration     5          0.704              1.639              1.321
 Vibration     6          0.745              1.527              1.067
 Vibration     7          0.865              1.228              0.633
 Vibration     8          0.969              1.011              0.433

 Optimization completed.
    -- Stationary point found.
 Normal termination of Gaussian 09 at Fri Sep 10 21:02:20 2021.
