 Gaussian 09, Revision E.01,
 Gaussian 09:  ES64L-G09RevE.01 30-Nov-2015

 ----------------------------
 #P OPT Freq B3LYP/6-31G(d,p)
 ----------------------------

 --------
 Frag_795
 --------
 Symbolic Z-matrix:
 Charge =  0 Multiplicity = 1

 SCF Done:  E(RB3LYP) =  -267.939814216     A.U. after   13 cycles
 SCF Done:  E(RB3LYP) =  -267.939859773     A.U. after   11 cycles
 SCF Done:  E(RB3LYP) =  -267.939864031     A.U. after    9 cycles
 SCF Done:  E(RB3LYP) =  -267.939867390     A.U. after   10 cycles
 SCF Done:  E(RB3LYP) =  -267.939868314     A.U. after    8 cycles
 SCF Done:  E(RB3LYP) =  -267.939868478     A.U. after    8 cycles
 Optimization completed.
    -- Stationary point found.
 Normal termination of Gaussian 09 at Thu Sep  8 15:20:11 2022.

 ----------------------------------------------------------------------
 #P Geom=AllCheck Guess=TCheck SCRF=Check GenChk RB3LYP/6-31G(d,p) Freq
 ----------------------------------------------------------------------

 Structure from the checkpoint file:  "B3LYP6-31Gdp.Frag_795.chk"
 --------
 Frag_795
 --------
 Charge =  0 Multiplicity = 1

                         Standard orientation:
 ---------------------------------------------------------------------
 Center     Atomic      Atomic             Coordinates (Angstroms)
 Number     Number       Type             X           Y           Z
 ---------------------------------------------------------------------
      1          6           0       -2.053320   -0.018413   -0.104765
      2          7           0       -0.955001   -0.101589   -0.733802
      3          6           0        0.316624   -0.003393    0.007171
      4          6           0        1.170641   -1.196145   -0.464834
      5          6           0        0.964481    1.325220   -0.414326
      6          7           0        0.132552    0.016494    1.466042
      7          1           0       -2.123532    0.130213    0.977710
      8          1           0       -2.982558   -0.084668   -0.674938
      9          1           0        2.165903   -1.158672   -0.009114
     10          1           0        1.278994   -1.193550   -1.552802
     11          1           0        0.694082   -2.140397   -0.178688
     12          1           0        0.377769    2.164545   -0.030967
     13          1           0        1.985211    1.400156   -0.022726
     14          1           0        1.004285    1.394938   -1.503292
     15          1           0        0.972386    0.369985    1.915698
     16          1           0       -0.005957   -0.930503    1.813958
 ---------------------------------------------------------------------

 SCF Done:  E(RB3LYP) =  -267.939868478     A.U. after    1 cycles

 The electronic state is 1-A.
 Alpha  occ. eigenvalues --  -14.31854 -14.31534 -10.24396 -10.21008 -10.17482
 Alpha  occ. eigenvalues --  -10.17315  -0.92986  -0.85615  -0.75021  -0.68841
 Alpha  occ. eigenvalues --   -0.62095  -0.53897  -0.49650  -0.47064  -0.45496
 Alpha  occ. eigenvalues --   -0.42235  -0.40990  -0.38605  -0.37496  -0.35283
 Alpha  occ. eigenvalues --   -0.34920  -0.29337  -0.24420  -0.24350
 Alpha virt. eigenvalues --    0.00614   0.07435   0.12540   0.13304   0.15139
 Alpha virt. eigenvalues --    0.15342   0.16603   0.17795   0.18965   0.20191
 Alpha virt. eigenvalues --    0.20432   0.22478   0.25530   0.26016   0.27866

 Mulliken charges:
               1
     1  C   -0.031287
     2  N   -0.333897
     3  C    0.241176
     4  C   -0.293399
     5  C   -0.300465
     6  N   -0.598326
     7  H    0.110788
     8  H    0.095092
     9  H    0.089541
    10  H    0.116605
    11  H    0.097822
    12  H    0.117782
    13  H    0.092077
    14  H    0.122309
    15  H    0.238353
    16  H    0.235827
 Sum of Mulliken charges =  -0.00000

 Dipole moment (field-independent basis, Debye):
    X=              1.0437    Y=             -0.4588    Z=              1.3775  Tot=              1.7881
 Quadrupole moment (field-independent basis, Debye-Ang):
   XX=            -35.1072   YY=            -37.7410   ZZ=            -39.1234
   XY=              0.6594   XZ=              0.5568   YZ=             -1.9083

  Exact polarizability:  69.875   0.854  47.887  -1.161   0.203  53.595
 Approx polarizability:  95.476   1.539  63.806  -5.314   1.047  78.693

                      1                      2                      3
                      A                      A                      A
 Frequencies --    116.3254               216.3142               247.6093
 Red. masses --      2.9503                 1.0499                 1.0561
 Frc consts  --      0.0235                 0.0289                 0.0381
 IR Inten    --      5.3266                25.5145                10.8526

                      4                      5                      6
                      A                      A                      A
 Frequencies --    283.0004               328.8111               351.5244
 Red. masses --      1.0300                 2.5040                 2.4541
 Frc consts  --      0.0486                 0.1595                 0.1787
 IR Inten    --      3.2920                 8.4641                 4.7653

                      7                      8                      9
                      A                      A                      A
 Frequencies --    364.8944               431.6477               460.8217
 Red. masses --      2.4695                 2.4622                 2.2482
 Frc consts  --      0.1937                 0.2703                 0.2813
 IR Inten    --      8.5618                 1.7149                10.1339

                     10                     11                     12
                      A                      A                      A
 Frequencies --    578.4787               736.8274               768.7056
 Red. masses --      3.0362                 3.9982                 1.3194
 Frc consts  --      0.5986                 1.2789                 0.4593
 IR Inten    --      1.9219                 1.4596                 3.0786

                     13                     14                     15
                      A                      A                      A
 Frequencies --    825.2926               914.5241               937.6689
 Red. masses --      1.9507                 1.5047                 1.4842
 Frc consts  --      0.7828                 0.7415                 0.7689
 IR Inten    --    105.8126                39.1066                 0.7650

                     16                     17                     18
                      A                      A                      A
 Frequencies --    971.3374              1026.8091              1080.5757
 Red. masses --      1.8135                 1.3321                 1.3428
 Frc consts  --      1.0081                 0.8275                 0.9238
 IR Inten    --      1.9866                 3.6729                18.0995

                     19                     20                     21
                      A                      A                      A
 Frequencies --   1089.1046              1205.3450              1225.1936
 Red. masses --      1.4348                 1.7888                 2.3074
 Frc consts  --      1.0028                 1.5312                 2.0408
 IR Inten    --      1.5487                 5.0263                50.3460

                     22                     23                     24
                      A                      A                      A
 Frequencies --   1262.6413              1335.1778              1404.7398
 Red. masses --      2.4438                 1.9261                 1.2901
 Frc consts  --      2.2955                 2.0231                 1.4999
 IR Inten    --     39.9873                 9.4839                 9.8298

                     25                     26                     27
                      A                      A                      A
 Frequencies --   1423.7737              1483.4962              1491.8296
 Red. masses --      1.2460                 1.1287                 1.0507
 Frc consts  --      1.4882                 1.4635                 1.3778
 IR Inten    --      4.7460                 9.5099                 0.5633

                     28                     29                     30
                      A                      A                      A
 Frequencies --   1499.7085              1509.7855              1521.6071
 Red. masses --      1.0486                 1.0557                 1.0583
 Frc consts  --      1.3895                 1.4178                 1.4436
 IR Inten    --      1.3011                 3.5033                 2.8464

                     31                     32                     33
                      A                      A                      A
 Frequencies --   1659.9036              1737.4112              3039.6799
 Red. masses --      1.0975                 7.0288                 1.0355
 Frc consts  --      1.7816                12.5008                 5.6370
 IR Inten    --     30.6812                22.5324                22.4192

                     34                     35                     36
                      A                      A                      A
 Frequencies --   3048.4396              3060.9154              3111.1613
 Red. masses --      1.0381                 1.0536                 1.1027
 Frc consts  --      5.6839                 5.8161                 6.2885
 IR Inten    --     22.8350                32.1988                30.0472

                     37                     38                     39
                      A                      A                      A
 Frequencies --   3122.7168              3131.0971              3150.2228
 Red. masses --      1.0997                 1.1022                 1.1030
 Frc consts  --      6.3182                 6.3666                 6.4494
 IR Inten    --     22.4716                22.3904                13.1695

                     40                     41                     42
                      A                      A                      A
 Frequencies --   3153.2136              3489.7417              3581.8967
 Red. masses --      1.1166                 1.0506                 1.0916
 Frc consts  --      6.5412                 7.5386                 8.2519
 IR Inten    --     36.7575                 0.4175                 0.2401

 - Thermochemistry -
 -------------------
 Temperature   298.150 Kelvin.  Pressure   1.00000 Atm.
 Atom     1 has atomic number  6 and mass  12.00000

 Molecular mass:    86.08440 amu.
 Principal axes and moments of inertia in atomic units:
                           1         2         3
     Eigenvalues --   396.51060 619.89333 625.13295
           X            0.99956  -0.02347   0.01827
           Y            0.00323   0.69637   0.71767
           Z            0.02956   0.71730  -0.69614
 This molecule is an asymmetric top.
 Rotational symmetry number  1.
 Rotational temperatures (Kelvin)      0.21844     0.13972     0.13855
 Rotational constants (GHZ):           4.55156     2.91137     2.88697
 Zero-point vibrational energy     373115.1 (Joules/Mol)
                                   89.17664 (Kcal/Mol)
 Warning -- explicit consideration of  10 degrees of freedom as
           vibrations may cause significant error
 Vibrational temperatures:    167.37   311.23   356.25   407.17   473.09
          (Kelvin)            505.76   525.00   621.04   663.02   832.30
                             1060.13  1105.99  1187.41  1315.79  1349.09
                             1397.54  1477.35  1554.71  1566.98  1734.22
                             1762.78  1816.66  1921.02  2021.10  2048.49
                             2134.42  2146.41  2157.74  2172.24  2189.25
                             2388.23  2499.74  4373.42  4386.02  4403.97
                             4476.26  4492.89  4504.94  4532.46  4536.77
                             5020.95  5153.54

 Zero-point correction=                           0.142112 (Hartree/Particle)
 Thermal correction to Energy=                    0.149493
 Thermal correction to Enthalpy=                  0.150437
 Thermal correction to Gibbs Free Energy=         0.111787
 Sum of electronic and zero-point Energies=           -267.797756
 Sum of electronic and thermal Energies=              -267.790376
 Sum of electronic and thermal Enthalpies=            -267.789431
 Sum of electronic and thermal Free Energies=         -267.828081

                     E (Thermal)             CV                S
                      KCal/Mol        Cal/Mol-Kelvin    Cal/Mol-Kelvin
 Total                   93.808             27.426             81.346
 Electronic               0.000              0.000              0.000
 Translational            0.889              2.981             39.271
 Rotational               0.889              2.981             26.533
 Vibrational             92.031             21.464             15.542
 Vibration     1          0.608              1.936              3.161
 Vibration     2          0.645              1.816              1.990
 Vibration     3          0.661              1.767              1.748
 Vibration     4          0.682              1.705              1.515
 Vibration     5          0.712              1.618              1.266
 Vibration     6          0.728              1.572              1.159
 Vibration     7          0.738              1.545              1.101
 Vibration     8          0.793              1.401              0.853
 Vibration     9          0.819              1.337              0.764
 Vibration    10          0.935              1.078              0.488

 Normal termination of Gaussian 09 at Thu Sep  8 15:20:24 2022.
