 Gaussian 09, Revision D.01,
 Gaussian 09:  ES64L-G09RevD.01 24-Apr-2013

 -------------------------
 #P OPT Freq B3LYP/6-31G**
 -------------------------

 -------
 Frag_27
 -------
 Symbolic Z-matrix:
 Charge =  0 Multiplicity = 1

 SCF Done:  E(RB3LYP) =  -283.980389052     A.U. after   12 cycles
 SCF Done:  E(RB3LYP) =  -283.980387836     A.U. after    7 cycles
 Optimization completed.
    -- Stationary point found.
 Normal termination of Gaussian 09 at Thu Jul 22 19:18:20 2021.

 ----------------------------------------------------------------------
 #P Geom=AllCheck Guess=TCheck SCRF=Check GenChk RB3LYP/6-31G(d,p) Freq
 ----------------------------------------------------------------------

 Structure from the checkpoint file:  "/vol2/users/liuj201281/HOFBenchmark/IsodesmicSplit/Sample60/Ring26/Running/Gau-435720.chk"
 -------
 Frag_27
 -------
 Charge =  0 Multiplicity = 1

                         Standard orientation:
 ---------------------------------------------------------------------
 Center     Atomic      Atomic             Coordinates (Angstroms)
 Number     Number       Type             X           Y           Z
 ---------------------------------------------------------------------
      1          6           0       -0.151043    1.381018    0.214542
      2          7           0        1.160466    0.850248   -0.175042
      3          6           0        1.271958   -0.559779    0.214640
      4          7           0        0.156343   -1.429750   -0.175376
      5          6           0       -1.120835   -0.821320    0.214765
      6          7           0       -1.316860    0.579486   -0.175189
      7          1           0       -0.159263    1.453991    1.309823
      8          1           0       -0.262019    2.393219   -0.184720
      9          1           0        1.265256    0.927053   -1.186356
     10          1           0        2.203794   -0.969720   -0.185227
     11          1           0        1.339861   -0.589616    1.309893
     12          1           0        0.170196   -1.557777   -1.186853
     13          1           0       -1.180157   -0.864873    1.310084
     14          1           0       -1.941926   -1.423476   -0.184573
     15          1           0       -1.435863    0.631804   -1.186498
 ---------------------------------------------------------------------

 SCF Done:  E(RB3LYP) =  -283.980387836     A.U. after    1 cycles

 The electronic state is 1-A.
 Alpha  occ. eigenvalues --  -14.31623 -14.31622 -14.31619 -10.22977 -10.22976
 Alpha  occ. eigenvalues --  -10.22974  -0.95643  -0.86183  -0.86169  -0.66330
 Alpha  occ. eigenvalues --   -0.66325  -0.60840  -0.50655  -0.48645  -0.48637
 Alpha  occ. eigenvalues --   -0.44614  -0.39349  -0.39335  -0.38773  -0.36027
 Alpha  occ. eigenvalues --   -0.36024  -0.28893  -0.21666  -0.21660
 Alpha virt. eigenvalues --    0.06530   0.11663   0.11783   0.11790   0.15753
 Alpha virt. eigenvalues --    0.15958   0.15966   0.17490   0.17501   0.22543
 Alpha virt. eigenvalues --    0.22556   0.25808   0.28565   0.28566   0.29720

 Mulliken charges:
               1
     1  C    0.029383
     2  N   -0.467789
     3  C    0.029346
     4  N   -0.467830
     5  C    0.029356
     6  N   -0.467821
     7  H    0.117129
     8  H    0.104106
     9  H    0.217226
    10  H    0.104110
    11  H    0.117145
    12  H    0.217163
    13  H    0.117138
    14  H    0.104114
    15  H    0.217224
 Sum of Mulliken charges =   0.00000

 Dipole moment (field-independent basis, Debye):
    X=             -0.0002    Y=              0.0019    Z=             -1.9135  Tot=              1.9135
 Quadrupole moment (field-independent basis, Debye-Ang):
   XX=            -40.7531   YY=            -40.7633   ZZ=            -32.7541
   XY=              0.0009   XZ=              0.0006   YZ=             -0.0041

  Exact polarizability:  50.740   0.001  50.718   0.001  -0.003  48.335
 Approx polarizability:  68.343   0.002  68.307   0.002  -0.005  72.143

                      1                      2                      3
                      A                      A                      A
 Frequencies --    279.3163               283.6861               446.9328
 Red. masses --      1.9508                 1.9585                 1.5574
 Frc consts  --      0.0897                 0.0929                 0.1833
 IR Inten    --      3.4889                 3.1665                12.2515

                      4                      5                      6
                      A                      A                      A
 Frequencies --    510.5273               511.2595               665.2128
 Red. masses --      4.0801                 4.1133                 1.3795
 Frc consts  --      0.6266                 0.6335                 0.3597
 IR Inten    --      4.4793                 4.5934                23.5134

                      7                      8                      9
                      A                      A                      A
 Frequencies --    761.0315               767.2032               815.1934
 Red. masses --      1.4665                 1.4748                 3.9938
 Frc consts  --      0.5004                 0.5114                 1.5637
 IR Inten    --    192.2206               192.4433                17.9488

                     10                     11                     12
                      A                      A                      A
 Frequencies --    913.4845               915.4474              1002.4051
 Red. masses --      2.0317                 2.0032                 1.7057
 Frc consts  --      0.9989                 0.9891                 1.0098
 IR Inten    --     30.0168                28.7354                42.5662

                     13                     14                     15
                      A                      A                      A
 Frequencies --   1004.9591              1025.7575              1040.7273
 Red. masses --      1.6981                 2.9257                 6.6398
 Frc consts  --      1.0104                 1.8137                 4.2372
 IR Inten    --     44.3641                 2.5297                 0.0524

                     16                     17                     18
                      A                      A                      A
 Frequencies --   1124.1664              1125.3723              1197.1131
 Red. masses --      4.0361                 4.0459                 1.0167
 Frc consts  --      3.0052                 3.0190                 0.8584
 IR Inten    --    107.3658               107.3715                 0.0001

                     19                     20                     21
                      A                      A                      A
 Frequencies --   1255.9993              1360.3428              1372.4149
 Red. masses --      2.2256                 1.1738                 1.1980
 Frc consts  --      2.0686                 1.2798                 1.3295
 IR Inten    --      0.7710                 0.0005                 0.2997

                     22                     23                     24
                      A                      A                      A
 Frequencies --   1372.7311              1404.3875              1404.9047
 Red. masses --      1.1976                 1.2413                 1.2418
 Frc consts  --      1.3297                 1.4424                 1.4441
 IR Inten    --      0.2990                13.8757                13.8493

                     25                     26                     27
                      A                      A                      A
 Frequencies --   1464.5591              1481.4387              1482.4619
 Red. masses --      1.0919                 1.0863                 1.0884
 Frc consts  --      1.3799                 1.4046                 1.4093
 IR Inten    --      0.0047                 0.1804                 0.2618

                     28                     29                     30
                      A                      A                      A
 Frequencies --   1501.6903              1502.2993              1505.1224
 Red. masses --      1.2142                 1.2162                 1.1033
 Frc consts  --      1.6133                 1.6172                 1.4726
 IR Inten    --     17.6421                17.7211                 4.2654

                     31                     32                     33
                      A                      A                      A
 Frequencies --   3039.5178              3039.7860              3049.6922
 Red. masses --      1.0636                 1.0635                 1.0656
 Frc consts  --      5.7894                 5.7898                 5.8393
 IR Inten    --     32.5472                32.6368                65.5654

                     34                     35                     36
                      A                      A                      A
 Frequencies --   3105.9199              3106.0160              3107.0303
 Red. masses --      1.1026                 1.1027                 1.1037
 Frc consts  --      6.2667                 6.2675                 6.2776
 IR Inten    --     37.8336                37.7454                23.3629

                     37                     38                     39
                      A                      A                      A
 Frequencies --   3480.6049              3481.1083              3482.6986
 Red. masses --      1.0742                 1.0741                 1.0729
 Frc consts  --      7.6676                 7.6690                 7.6674
 IR Inten    --      0.2225                 0.6146                 7.0784

 - Thermochemistry -
 -------------------
 Temperature   298.150 Kelvin.  Pressure   1.00000 Atm.
 Atom     1 has atomic number  6 and mass  12.00000

 Molecular mass:    87.07965 amu.
 Principal axes and moments of inertia in atomic units:
                           1         2         3
     Eigenvalues --   379.95787 380.19702 670.90645
           X            1.00000  -0.00124   0.00000
           Y            0.00124   1.00000  -0.00002
           Z            0.00000   0.00002   1.00000
 This molecule is an asymmetric top.
 Rotational symmetry number  1.
 Rotational temperatures (Kelvin)      0.22796     0.22781     0.12910
 Rotational constants (GHZ):           4.74985     4.74686     2.69000
 Zero-point vibrational energy     361215.5 (Joules/Mol)
                                   86.33258 (Kcal/Mol)
 Warning -- explicit consideration of   5 degrees of freedom as
           vibrations may cause significant error
 Vibrational temperatures:    401.87   408.16   643.04   734.53   735.59
          (Kelvin)            957.09  1094.95  1103.83  1172.88  1314.30
                             1317.12  1442.24  1445.91  1475.83  1497.37
                             1617.42  1619.16  1722.38  1807.10  1957.23
                             1974.60  1975.05  2020.60  2021.34  2107.17
                             2131.46  2132.93  2160.59  2161.47  2165.53
                             4373.18  4373.57  4387.82  4468.72  4468.86
                             4470.32  5007.81  5008.53  5010.82

 Zero-point correction=                           0.137580 (Hartree/Particle)
 Thermal correction to Energy=                    0.142765
 Thermal correction to Enthalpy=                  0.143709
 Thermal correction to Gibbs Free Energy=         0.109267
 Sum of electronic and zero-point Energies=           -283.842808
 Sum of electronic and thermal Energies=              -283.837623
 Sum of electronic and thermal Enthalpies=            -283.836678
 Sum of electronic and thermal Free Energies=         -283.871121

                     E (Thermal)             CV                S
                      KCal/Mol        Cal/Mol-Kelvin    Cal/Mol-Kelvin
 Total                   89.586             20.462             72.490
 Electronic               0.000              0.000              0.000
 Translational            0.889              2.981             39.306
 Rotational               0.889              2.981             26.075
 Vibrational             87.809             14.500              7.109
 Vibration     1          0.680              1.712              1.538
 Vibration     2          0.682              1.704              1.511
 Vibration     3          0.806              1.368              0.805
 Vibration     4          0.866              1.227              0.632
 Vibration     5          0.866              1.225              0.631

 Optimization completed.
    -- Stationary point found.
 Normal termination of Gaussian 09 at Thu Jul 22 19:18:37 2021.
