 Gaussian 09, Revision E.01,
 Gaussian 09:  ES64L-G09RevE.01 30-Nov-2015

 ----------------------------
 #P OPT Freq B3LYP/6-31G(d,p)
 ----------------------------

 ---------
 Frag_1114
 ---------
 Symbolic Z-matrix:
 Charge =  0 Multiplicity = 1

 SCF Done:  E(RB3LYP) =  -323.649762044     A.U. after   14 cycles
 SCF Done:  E(RB3LYP) =  -323.649848461     A.U. after   10 cycles
 SCF Done:  E(RB3LYP) =  -323.649856938     A.U. after    9 cycles
 SCF Done:  E(RB3LYP) =  -323.649859933     A.U. after    8 cycles
 SCF Done:  E(RB3LYP) =  -323.649861139     A.U. after    8 cycles
 SCF Done:  E(RB3LYP) =  -323.649861810     A.U. after    8 cycles
 SCF Done:  E(RB3LYP) =  -323.649861993     A.U. after    7 cycles
 Optimization completed.
    -- Stationary point found.
 Normal termination of Gaussian 09 at Thu Sep  8 14:53:32 2022.

 ----------------------------------------------------------------------
 #P Geom=AllCheck Guess=TCheck SCRF=Check GenChk RB3LYP/6-31G(d,p) Freq
 ----------------------------------------------------------------------

 Structure from the checkpoint file:  "B3LYP6-31Gdp.Frag_1114.chk"
 ---------
 Frag_1114
 ---------
 Charge =  0 Multiplicity = 1

                         Standard orientation:
 ---------------------------------------------------------------------
 Center     Atomic      Atomic             Coordinates (Angstroms)
 Number     Number       Type             X           Y           Z
 ---------------------------------------------------------------------
      1          6           0        1.531520    1.047463    0.151433
      2          6           0        0.740182   -0.016174   -0.071749
      3          8           0        1.163124   -1.315418   -0.065688
      4          7           0       -0.630781    0.041357   -0.361615
      5          6           0       -1.496719   -0.990212    0.203309
      6          8           0       -1.161533    1.321715   -0.109246
      7          1           0        1.151888    2.053673    0.068400
      8          1           0        2.592171    0.910379    0.328005
      9          1           0        2.126217   -1.313508    0.003704
     10          1           0       -1.121518   -1.969827   -0.090646
     11          1           0       -2.496292   -0.844169   -0.207758
     12          1           0       -1.546906   -0.940954    1.303583
     13          1           0       -0.952720    1.518067    0.827529
 ---------------------------------------------------------------------

 SCF Done:  E(RB3LYP) =  -323.649861993     A.U. after    1 cycles

 The electronic state is 1-A.
 Alpha  occ. eigenvalues --  -19.18699 -19.18455 -14.39626 -10.27603 -10.21346
 Alpha  occ. eigenvalues --  -10.15992  -1.09141  -1.06277  -0.85937  -0.75122
 Alpha  occ. eigenvalues --   -0.67313  -0.61387  -0.53341  -0.50089  -0.48398
 Alpha  occ. eigenvalues --   -0.45654  -0.41700  -0.41064  -0.38917  -0.37784
 Alpha  occ. eigenvalues --   -0.37194  -0.30214  -0.27089  -0.20467
 Alpha virt. eigenvalues --    0.04702   0.06303   0.07832   0.12006   0.13950
 Alpha virt. eigenvalues --    0.14981   0.17053   0.17654   0.18800   0.21362
 Alpha virt. eigenvalues --    0.26832   0.33958   0.37646   0.51494   0.53412

 Mulliken charges:
               1
     1  C   -0.362259
     2  C    0.530894
     3  O   -0.544284
     4  N   -0.209484
     5  C   -0.168247
     6  O   -0.420264
     7  H    0.108551
     8  H    0.073464
     9  H    0.327691
    10  H    0.144350
    11  H    0.132745
    12  H    0.090404
    13  H    0.296439
 Sum of Mulliken charges =  -0.00000

 Dipole moment (field-independent basis, Debye):
    X=              0.9910    Y=             -1.0643    Z=              1.8541  Tot=              2.3564
 Quadrupole moment (field-independent basis, Debye-Ang):
   XX=            -30.6348   YY=            -35.8948   ZZ=            -37.5229
   XY=             -0.4422   XZ=             -1.5594   YZ=              2.0835

  Exact polarizability:  58.396   5.857  53.881   1.077   2.683  30.074
 Approx polarizability:  77.356   9.063  81.284   4.699   5.924  44.587

                      1                      2                      3
                      A                      A                      A
 Frequencies --     95.8063               209.6342               302.7283
 Red. masses --      3.9031                 1.2028                 2.3131
 Frc consts  --      0.0211                 0.0311                 0.1249
 IR Inten    --      5.7267                 3.4425                38.1676

                      4                      5                      6
                      A                      A                      A
 Frequencies --    307.8088               322.8058               395.3300
 Red. masses --      2.8987                 1.0724                 1.4497
 Frc consts  --      0.1618                 0.0658                 0.1335
 IR Inten    --      1.9888               114.9624                22.3277

                      7                      8                      9
                      A                      A                      A
 Frequencies --    448.0136               509.0131               546.7159
 Red. masses --      2.2900                 2.8258                 4.6239
 Frc consts  --      0.2708                 0.4314                 0.8143
 IR Inten    --     28.5866                30.3643                14.2418

                     10                     11                     12
                      A                      A                      A
 Frequencies --    676.2766               694.8449               739.0345
 Red. masses --      3.1175                 1.3062                 1.3281
 Frc consts  --      0.8400                 0.3716                 0.4274
 IR Inten    --      7.9718                32.6141                63.4846

                     13                     14                     15
                      A                      A                      A
 Frequencies --    767.7951               970.1631              1011.5911
 Red. masses --      3.8800                 1.8760                 2.4421
 Frc consts  --      1.3476                 1.0403                 1.4724
 IR Inten    --     18.8856                14.0133                15.9884

                     16                     17                     18
                      A                      A                      A
 Frequencies --   1131.1764              1164.4540              1177.9262
 Red. masses --      1.8707                 1.4918                 3.2728
 Frc consts  --      1.4103                 1.1918                 2.6755
 IR Inten    --     98.4515                88.8176                 7.8005

                     19                     20                     21
                      A                      A                      A
 Frequencies --   1258.7255              1404.3050              1427.5453
 Red. masses --      1.7342                 1.9554                 1.1635
 Frc consts  --      1.6189                 2.2720                 1.3970
 IR Inten    --     23.5452                29.4843                40.6287

                     22                     23                     24
                      A                      A                      A
 Frequencies --   1449.5236              1476.9063              1502.1487
 Red. masses --      1.1914                 1.3986                 1.0651
 Frc consts  --      1.4748                 1.7974                 1.4160
 IR Inten    --     14.4199                13.1722                29.4999

                     25                     26                     27
                      A                      A                      A
 Frequencies --   1522.3645              1719.4687              2984.1105
 Red. masses --      1.1266                 6.1233                 1.0573
 Frc consts  --      1.5383                10.6666                 5.5474
 IR Inten    --     20.5168               258.8852                77.0141

                     28                     29                     30
                      A                      A                      A
 Frequencies --   3127.4971              3181.0227              3191.7332
 Red. masses --      1.0772                 1.1042                 1.0642
 Frc consts  --      6.2076                 6.5829                 6.3874
 IR Inten    --     19.4444                 5.2011                 5.5146

                     31                     32                     33
                      A                      A                      A
 Frequencies --   3302.7384              3576.7077              3840.2211
 Red. masses --      1.1119                 1.0671                 1.0659
 Frc consts  --      7.1457                 8.0427                 9.2613
 IR Inten    --      3.0387                10.4084                44.6909

 - Thermochemistry -
 -------------------
 Temperature   298.150 Kelvin.  Pressure   1.00000 Atm.
 Atom     1 has atomic number  6 and mass  12.00000

 Molecular mass:    89.04768 amu.
 Principal axes and moments of inertia in atomic units:
                           1         2         3
     Eigenvalues --   356.02424 501.13719 818.46185
           X            0.98794   0.15457  -0.00929
           Y           -0.15450   0.98796   0.00823
           Z            0.01045  -0.00669   0.99992
 This molecule is an asymmetric top.
 Rotational symmetry number  1.
 Rotational temperatures (Kelvin)      0.24328     0.17283     0.10583
 Rotational constants (GHZ):           5.06915     3.60129     2.20504
 Zero-point vibrational energy     277749.8 (Joules/Mol)
                                   66.38379 (Kcal/Mol)
 Warning -- explicit consideration of   9 degrees of freedom as
           vibrations may cause significant error
 Vibrational temperatures:    137.84   301.62   435.56   442.87   464.45
          (Kelvin)            568.79   644.59   732.36   786.60   973.01
                              999.73  1063.30  1104.68  1395.85  1455.45
                             1627.51  1675.39  1694.77  1811.02  2020.48
                             2053.92  2085.54  2124.94  2161.25  2190.34
                             2473.93  4293.46  4499.77  4576.78  4592.19
                             4751.90  5146.08  5525.21

 Zero-point correction=                           0.105789 (Hartree/Particle)
 Thermal correction to Energy=                    0.112728
 Thermal correction to Enthalpy=                  0.113673
 Thermal correction to Gibbs Free Energy=         0.075620
 Sum of electronic and zero-point Energies=           -323.544073
 Sum of electronic and thermal Energies=              -323.537134
 Sum of electronic and thermal Enthalpies=            -323.536189
 Sum of electronic and thermal Free Energies=         -323.574242

                     E (Thermal)             CV                S
                      KCal/Mol        Cal/Mol-Kelvin    Cal/Mol-Kelvin
 Total                   70.738             25.294             80.089
 Electronic               0.000              0.000              0.000
 Translational            0.889              2.981             39.372
 Rotational               0.889              2.981             26.482
 Vibrational             68.961             19.332             14.235
 Vibration     1          0.603              1.952              3.538
 Vibration     2          0.642              1.826              2.047
 Vibration     3          0.694              1.669              1.402
 Vibration     4          0.698              1.659              1.374
 Vibration     5          0.708              1.630              1.296
 Vibration     6          0.762              1.480              0.980
 Vibration     7          0.807              1.365              0.802
 Vibration     8          0.864              1.230              0.636
 Vibration     9          0.902              1.147              0.551

 Optimization completed.
    -- Stationary point found.
 Normal termination of Gaussian 09 at Thu Sep  8 14:53:42 2022.
