 Gaussian 09, Revision E.01,
 Gaussian 09:  ES64L-G09RevE.01 30-Nov-2015

 ----------------------------
 #P OPT Freq B3LYP/6-31G(d,p)
 ----------------------------

 --------
 Frag_977
 --------
 Symbolic Z-matrix:
 Charge =  0 Multiplicity = 1

 SCF Done:  E(RB3LYP) =  -248.450729390     A.U. after   15 cycles
 SCF Done:  E(RB3LYP) =  -248.450795092     A.U. after    9 cycles
 SCF Done:  E(RB3LYP) =  -248.450799123     A.U. after    8 cycles
 SCF Done:  E(RB3LYP) =  -248.450799509     A.U. after    8 cycles
 Optimization completed.
    -- Stationary point found.
 Normal termination of Gaussian 09 at Thu Sep  8 15:22:46 2022.

 ----------------------------------------------------------------------
 #P Geom=AllCheck Guess=TCheck SCRF=Check GenChk RB3LYP/6-31G(d,p) Freq
 ----------------------------------------------------------------------

 Structure from the checkpoint file:  "B3LYP6-31Gdp.Frag_977.chk"
 --------
 Frag_977
 --------
 Charge =  0 Multiplicity = 1

                         Standard orientation:
 ---------------------------------------------------------------------
 Center     Atomic      Atomic             Coordinates (Angstroms)
 Number     Number       Type             X           Y           Z
 ---------------------------------------------------------------------
      1          6           0       -0.235772    1.512778   -0.001985
      2          6           0       -0.391379    0.027823   -0.002970
      3          6           0       -1.717021   -0.664516    0.002189
      4          7           0        0.710279   -0.681277   -0.002299
      5          8           0        1.907252   -0.241411    0.002974
      6          1           0        0.443449    1.820514   -0.804836
      7          1           0       -1.199576    2.011925   -0.122409
      8          1           0        0.227853    1.853010    0.932518
      9          1           0       -2.315288   -0.388845   -0.875468
     10          1           0       -1.604355   -1.754470    0.000098
     11          1           0       -2.306909   -0.392453    0.886811
     12          1           0        0.589892   -1.705965   -0.007816
 ---------------------------------------------------------------------

 SCF Done:  E(RB3LYP) =  -248.450799509     A.U. after    1 cycles

 The electronic state is 1-A.
 Alpha  occ. eigenvalues --  -19.10483 -14.45469 -10.23340 -10.20856 -10.18914
 Alpha  occ. eigenvalues --   -1.08100  -0.86085  -0.74316  -0.71676  -0.60318
 Alpha  occ. eigenvalues --   -0.49897  -0.46591  -0.46393  -0.40960  -0.40775
 Alpha  occ. eigenvalues --   -0.40253  -0.38789  -0.37369  -0.23304  -0.20125
 Alpha virt. eigenvalues --   -0.00449   0.06542   0.10906   0.13358   0.14220
 Alpha virt. eigenvalues --    0.14886   0.16448   0.19498   0.22124   0.23303
 Alpha virt. eigenvalues --    0.32029   0.37669   0.49094   0.52467   0.54829

 Mulliken charges:
               1
     1  C   -0.351682
     2  C    0.273062
     3  C   -0.382870
     4  N   -0.047924
     5  O   -0.509618
     6  H    0.147189
     7  H    0.104483
     8  H    0.141852
     9  H    0.132361
    10  H    0.108251
    11  H    0.133028
    12  H    0.251869
 Sum of Mulliken charges =  -0.00000

 Dipole moment (field-independent basis, Debye):
    X=             -3.7685    Y=             -0.9149    Z=              0.0003  Tot=              3.8779
 Quadrupole moment (field-independent basis, Debye-Ang):
   XX=            -36.8912   YY=            -26.2746   ZZ=            -30.8034
   XY=              0.0956   XZ=             -0.0308   YZ=              0.0281

  Exact polarizability:  62.014  -2.547  45.694   0.010   0.166  29.490
 Approx polarizability: 116.843 -10.018  60.930   0.003   0.255  41.450

                      1                      2                      3
                      A                      A                      A
 Frequencies --     40.5143               188.6642               274.7937
 Red. masses --      1.0366                 1.1268                 2.7028
 Frc consts  --      0.0010                 0.0236                 0.1202
 IR Inten    --      0.1824                 0.3181                 1.6409

                      4                      5                      6
                      A                      A                      A
 Frequencies --    282.3152               362.1002               456.1859
 Red. masses --      3.5083                 2.3400                 2.4937
 Frc consts  --      0.1647                 0.1808                 0.3058
 IR Inten    --     13.7827                 2.6326                22.3712

                      7                      8                      9
                      A                      A                      A
 Frequencies --    646.5376               834.3543               891.1335
 Red. masses --      4.7804                 3.1935                 1.4068
 Frc consts  --      1.1773                 1.3098                 0.6582
 IR Inten    --      9.3417                 9.1032                29.9051

                     10                     11                     12
                      A                      A                      A
 Frequencies --    993.6112              1004.4065              1051.1888
 Red. masses --      1.3655                 1.2418                 1.6780
 Frc consts  --      0.7943                 0.7381                 1.0924
 IR Inten    --      3.5816                 4.0685                 0.6684

                     13                     14                     15
                      A                      A                      A
 Frequencies --   1090.9223              1294.7601              1334.6652
 Red. masses --      1.5354                 3.0517                 3.8314
 Frc consts  --      1.0766                 3.0142                 4.0212
 IR Inten    --      1.7725                13.3270               165.3559

                     16                     17                     18
                      A                      A                      A
 Frequencies --   1424.5755              1439.6005              1477.7493
 Red. masses --      1.2817                 1.2969                 1.0678
 Frc consts  --      1.5326                 1.5836                 1.3738
 IR Inten    --     13.9879                 1.1525                 6.0608

                     19                     20                     21
                      A                      A                      A
 Frequencies --   1478.7243              1482.7162              1492.4880
 Red. masses --      1.0583                 1.1808                 1.1322
 Frc consts  --      1.3634                 1.5294                 1.4859
 IR Inten    --     12.8947                16.5675                 4.1221

                     22                     23                     24
                      A                      A                      A
 Frequencies --   1535.8943              1696.2778              3021.5235
 Red. masses --      1.2315                 4.4383                 1.0360
 Frc consts  --      1.7116                 7.5242                 5.5728
 IR Inten    --     15.5028                58.4589                30.0074

                     25                     26                     27
                      A                      A                      A
 Frequencies --   3038.5202              3073.1932              3090.7643
 Red. masses --      1.0383                 1.1012                 1.0979
 Frc consts  --      5.6481                 6.1276                 6.1795
 IR Inten    --     12.7626                18.5725                 8.8088

                     28                     29                     30
                      A                      A                      A
 Frequencies --   3102.4096              3143.7390              3295.9458
 Red. masses --      1.1012                 1.1025                 1.0760
 Frc consts  --      6.2450                 6.4199                 6.8872
 IR Inten    --     21.7275                12.6045                20.1980

 - Thermochemistry -
 -------------------
 Temperature   298.150 Kelvin.  Pressure   1.00000 Atm.
 Atom     1 has atomic number  6 and mass  12.00000

 Molecular mass:    73.05276 amu.
 Principal axes and moments of inertia in atomic units:
                           1         2         3
     Eigenvalues --   215.76477 432.91222 626.46619
           X            0.99929   0.03769  -0.00018
           Y           -0.03769   0.99929   0.00040
           Z            0.00020  -0.00039   1.00000
 This molecule is an asymmetric top.
 Rotational symmetry number  1.
 Rotational temperatures (Kelvin)      0.40143     0.20007     0.13826
 Rotational constants (GHZ):           8.36439     4.16884     2.88083
 Zero-point vibrational energy     266410.0 (Joules/Mol)
                                   63.67352 (Kcal/Mol)
 Warning -- explicit consideration of   6 degrees of freedom as
           vibrations may cause significant error
 Vibrational temperatures:     58.29   271.45   395.37   406.19   520.98
          (Kelvin)            656.35   930.22  1200.45  1282.14  1429.58
                             1445.12  1512.42  1569.59  1862.87  1920.28
                             2049.64  2071.26  2126.15  2127.55  2133.30
                             2147.35  2209.81  2440.56  4347.29  4371.75
                             4421.63  4446.91  4463.67  4523.13  4742.12

 Zero-point correction=                           0.101470 (Hartree/Particle)
 Thermal correction to Energy=                    0.107691
 Thermal correction to Enthalpy=                  0.108635
 Thermal correction to Gibbs Free Energy=         0.071582
 Sum of electronic and zero-point Energies=           -248.349329
 Sum of electronic and thermal Energies=              -248.343108
 Sum of electronic and thermal Enthalpies=            -248.342164
 Sum of electronic and thermal Free Energies=         -248.379218

                     E (Thermal)             CV                S
                      KCal/Mol        Cal/Mol-Kelvin    Cal/Mol-Kelvin
 Total                   67.577             20.428             77.985
 Electronic               0.000              0.000              0.000
 Translational            0.889              2.981             38.782
 Rotational               0.889              2.981             25.573
 Vibrational             65.800             14.467             13.630
 Vibration     1          0.594              1.981              5.234
 Vibration     2          0.633              1.855              2.241
 Vibration     3          0.677              1.720              1.566
 Vibration     4          0.681              1.706              1.520
 Vibration     5          0.736              1.550              1.113
 Vibration     6          0.814              1.347              0.777

 Normal termination of Gaussian 09 at Thu Sep  8 15:22:55 2022.
