 Gaussian 09, Revision E.01,
 Gaussian 09:  ES64L-G09RevE.01 30-Nov-2015

 ----------------------------
 #P OPT Freq B3LYP/6-31G(d,p)
 ----------------------------

 --------
 Frag_764
 --------
 Symbolic Z-matrix:
 Charge =  0 Multiplicity = 1

 SCF Done:  E(RB3LYP) =  -170.836139045     A.U. after   14 cycles
 SCF Done:  E(RB3LYP) =  -170.836241340     A.U. after    9 cycles
 SCF Done:  E(RB3LYP) =  -170.836242464     A.U. after    8 cycles
 Optimization completed.
    -- Stationary point found.
 Normal termination of Gaussian 09 at Thu Sep  8 14:55:31 2022.

 ----------------------------------------------------------------------
 #P Geom=AllCheck Guess=TCheck SCRF=Check GenChk RB3LYP/6-31G(d,p) Freq
 ----------------------------------------------------------------------

 Structure from the checkpoint file:  "B3LYP6-31Gdp.Frag_764.chk"
 --------
 Frag_764
 --------
 Charge =  0 Multiplicity = 1

                         Standard orientation:
 ---------------------------------------------------------------------
 Center     Atomic      Atomic             Coordinates (Angstroms)
 Number     Number       Type             X           Y           Z
 ---------------------------------------------------------------------
      1          6           0       -1.609620   -0.357521   -0.000000
      2          6           0       -0.586581    0.504787   -0.000000
      3          6           0        0.782712    0.089552    0.000000
      4          7           0        1.903179   -0.224053    0.000000
      5          1           0       -1.452837   -1.430911   -0.000000
      6          1           0       -2.633660   -0.000311    0.000000
      7          1           0       -0.754818    1.578687    0.000000
 ---------------------------------------------------------------------

 SCF Done:  E(RB3LYP) =  -170.836242464     A.U. after    1 cycles

 The electronic state is 1-A.
 Alpha  occ. eigenvalues --  -14.34117 -10.24709 -10.23458 -10.23147  -0.90835
 Alpha  occ. eigenvalues --   -0.81661  -0.65865  -0.53843  -0.48142  -0.41714
 Alpha  occ. eigenvalues --   -0.37875  -0.36299  -0.33512  -0.28957
 Alpha virt. eigenvalues --   -0.05701   0.02494   0.11194   0.11523   0.11847
 Alpha virt. eigenvalues --    0.14539   0.24527   0.31366   0.32503   0.50108
 Alpha virt. eigenvalues --    0.51501   0.54904   0.58388   0.60767   0.63437

 Mulliken charges:
               1
     1  C   -0.191021
     2  C   -0.066619
     3  C    0.305436
     4  N   -0.461080
     5  H    0.136815
     6  H    0.130173
     7  H    0.146296
 Sum of Mulliken charges =  -0.00000

 Dipole moment (field-independent basis, Debye):
    X=             -3.8123    Y=              0.7064    Z=              0.0000  Tot=              3.8772
 Quadrupole moment (field-independent basis, Debye-Ang):
   XX=            -26.5868   YY=            -20.7378   ZZ=            -24.1525
   XY=              1.1953   XZ=             -0.0000   YZ=              0.0000

  Exact polarizability:  56.311   1.946  29.291  -0.000   0.000  14.816
 Approx polarizability:  99.497   3.738  43.082  -0.000  -0.000  20.496

                      1                      2                      3
                      A                      A                      A
 Frequencies --    236.4150               354.5963               576.4564
 Red. masses --      4.0951                 2.5980                 4.0533
 Frc consts  --      0.1349                 0.1925                 0.7936
 IR Inten    --      2.8323                 0.7371                 0.0258

                      4                      5                      6
                      A                      A                      A
 Frequencies --    712.9651               888.3286               982.2198
 Red. masses --      2.2658                 2.7181                 1.3567
 Frc consts  --      0.6786                 1.2638                 0.7712
 IR Inten    --     10.9282                 1.2775                29.6914

                      7                      8                      9
                      A                      A                      A
 Frequencies --   1007.7739              1112.5649              1323.3147
 Red. masses --      1.0762                 1.6622                 1.2914
 Frc consts  --      0.6440                 1.2122                 1.3324
 IR Inten    --     20.5353                 3.3981                 0.3714

                     10                     11                     12
                      A                      A                      A
 Frequencies --   1453.6748              1693.4652              2349.1339
 Red. masses --      1.2141                 4.1852                12.6244
 Frc consts  --      1.5116                 7.0716                41.0467
 IR Inten    --      5.5907                 0.5147                 7.2633

                     13                     14                     15
                      A                      A                      A
 Frequencies --   3175.2689              3190.0495              3271.0033
 Red. masses --      1.0582                 1.0924                 1.1183
 Frc consts  --      6.2862                 6.5498                 7.0495
 IR Inten    --      0.5502                 1.3044                 2.5993

 - Thermochemistry -
 -------------------
 Temperature   298.150 Kelvin.  Pressure   1.00000 Atm.
 Atom     1 has atomic number  6 and mass  12.00000

 Molecular mass:    53.02655 amu.
 Principal axes and moments of inertia in atomic units:
                           1         2         3
     Eigenvalues --    35.55877 366.23191 401.79068
           X            0.99996   0.00939  -0.00000
           Y           -0.00939   0.99996   0.00000
           Z            0.00000  -0.00000   1.00000
 This molecule is an asymmetric top.
 Rotational symmetry number  1.
 Rotational temperatures (Kelvin)      2.43579     0.23650     0.21557
 Rotational constants (GHZ):          50.75375     4.92786     4.49174
 Zero-point vibrational energy     133546.5 (Joules/Mol)
                                   31.91838 (Kcal/Mol)
 Warning -- explicit consideration of   3 degrees of freedom as
           vibrations may cause significant error
 Vibrational temperatures:    340.15   510.18   829.39  1025.80  1278.11
          (Kelvin)           1413.19  1449.96  1600.73  1903.95  2091.51
                             2436.52  3379.88  4568.50  4589.76  4706.24

 Zero-point correction=                           0.050865 (Hartree/Particle)
 Thermal correction to Energy=                    0.055015
 Thermal correction to Enthalpy=                  0.055959
 Thermal correction to Gibbs Free Energy=         0.024980
 Sum of electronic and zero-point Energies=           -170.785377
 Sum of electronic and thermal Energies=              -170.781228
 Sum of electronic and thermal Enthalpies=            -170.780284
 Sum of electronic and thermal Free Energies=         -170.811263

                     E (Thermal)             CV                S
                      KCal/Mol        Cal/Mol-Kelvin    Cal/Mol-Kelvin
 Total                   34.522             13.017             65.201
 Electronic               0.000              0.000              0.000
 Translational            0.889              2.981             37.827
 Rotational               0.889              2.981             23.174
 Vibrational             32.745              7.055              4.200
 Vibration     1          0.655              1.785              1.830
 Vibration     2          0.730              1.566              1.146
 Vibration     3          0.933              1.082              0.492

 Normal termination of Gaussian 09 at Thu Sep  8 14:55:37 2022.
