 Gaussian 09, Revision E.01,
 Gaussian 09:  ES64L-G09RevE.01 30-Nov-2015

 --------------------------------
 #P OPT=calcfc Freq B3LYP/6-31G**
 --------------------------------

 --------
 Frag_332
 --------
 Symbolic Z-matrix:
 Charge =  0 Multiplicity = 1

 SCF Done:  E(RB3LYP) =  -247.187211334     A.U. after   16 cycles
 SCF Done:  E(RB3LYP) =  -247.198456305     A.U. after   14 cycles
 SCF Done:  E(RB3LYP) =  -247.199097479     A.U. after   12 cycles
 SCF Done:  E(RB3LYP) =  -247.199160707     A.U. after   11 cycles
 SCF Done:  E(RB3LYP) =  -247.199161788     A.U. after    9 cycles
 Optimization completed.
    -- Stationary point found.
 Normal termination of Gaussian 09 at Fri Sep 10 17:37:40 2021.

 ----------------------------------------------------------------------
 #P Geom=AllCheck Guess=TCheck SCRF=Check GenChk RB3LYP/6-31G(d,p) Freq
 ----------------------------------------------------------------------

 Structure from the checkpoint file:  "/public/home/users/caep010/.cache/gau_scr/Gau-98792.chk"
 --------
 Frag_332
 --------
 Charge =  0 Multiplicity = 1

                         Standard orientation:
 ---------------------------------------------------------------------
 Center     Atomic      Atomic             Coordinates (Angstroms)
 Number     Number       Type             X           Y           Z
 ---------------------------------------------------------------------
      1          6           0        1.894135   -0.029255    0.000000
      2          6           0        0.737488   -0.678004    0.000000
      3          7           0       -0.514715    0.061774   -0.000000
      4          6           0       -1.632820   -0.627100    0.000000
      5          8           0       -0.449106    1.328357   -0.000000
      6          1           0        2.831301   -0.572532   -0.000000
      7          1           0        1.897251    1.054296    0.000000
      8          1           0        0.626410   -1.755568   -0.000000
      9          1           0       -1.592464   -1.705833   -0.000000
     10          1           0       -2.559463   -0.073486   -0.000000
 ---------------------------------------------------------------------

 SCF Done:  E(RB3LYP) =  -247.199161788     A.U. after    1 cycles

 The electronic state is 1-A.
 Alpha  occ. eigenvalues --  -19.11913 -14.48519 -10.23995 -10.22588 -10.20478
 Alpha  occ. eigenvalues --   -1.10668  -0.86650  -0.79021  -0.65973  -0.56918
 Alpha  occ. eigenvalues --   -0.53072  -0.49115  -0.46102  -0.44692  -0.41985
 Alpha  occ. eigenvalues --   -0.39393  -0.28769  -0.24734  -0.22341
 Alpha virt. eigenvalues --   -0.05108   0.03715   0.08673   0.12853   0.14217
 Alpha virt. eigenvalues --    0.15666   0.16428   0.22453   0.29334   0.31396
 Alpha virt. eigenvalues --    0.33804   0.47070   0.50518   0.55412   0.56426

 Mulliken charges:
               1
     1  C   -0.234281
     2  C    0.097031
     3  N    0.103862
     4  C   -0.105146
     5  O   -0.504295
     6  H    0.118338
     7  H    0.156386
     8  H    0.112404
     9  H    0.117332
    10  H    0.138369
 Sum of Mulliken charges =  -0.00000

 Dipole moment (field-independent basis, Debye):
    X=              0.5598    Y=             -3.2429    Z=             -0.0000  Tot=              3.2908
 Quadrupole moment (field-independent basis, Debye-Ang):
   XX=            -24.0259   YY=            -30.2536   ZZ=            -31.4025
   XY=              1.7070   XZ=              0.0000   YZ=              0.0000

  Exact polarizability:  68.657  10.397  47.355  -0.000   0.000  17.169
 Approx polarizability: 110.162  35.164  91.853  -0.000  -0.000  24.694

                      1                      2                      3
                      A                      A                      A
 Frequencies --    147.3059               330.4325               492.9943
 Red. masses --      2.4191                 3.0229                 1.4699
 Frc consts  --      0.0309                 0.1945                 0.2105
 IR Inten    --      0.8854                 5.1094                 0.3086

                      4                      5                      6
                      A                      A                      A
 Frequencies --    513.6305               612.4477               668.9530
 Red. masses --      2.8582                 3.1145                 1.1671
 Frc consts  --      0.4443                 0.6883                 0.3077
 IR Inten    --     10.0196                 5.7191                19.0706

                      7                      8                      9
                      A                      A                      A
 Frequencies --    754.1325               783.6798               820.4973
 Red. masses --      1.3771                 2.7906                 2.7545
 Frc consts  --      0.4614                 1.0098                 1.0926
 IR Inten    --     13.5425                45.0158                 2.1496

                     10                     11                     12
                      A                      A                      A
 Frequencies --    948.9376               984.3414              1059.6525
 Red. masses --      1.2973                 1.0959                 1.5095
 Frc consts  --      0.6883                 0.6256                 0.9987
 IR Inten    --      3.9588                49.5055                 3.0525

                     13                     14                     15
                      A                      A                      A
 Frequencies --   1111.4984              1314.2396              1352.8936
 Red. masses --      2.2371                 1.2435                 2.2210
 Frc consts  --      1.6284                 1.2655                 2.3951
 IR Inten    --     42.0744                12.0372                21.6932

                     16                     17                     18
                      A                      A                      A
 Frequencies --   1405.9551              1479.2535              1617.0565
 Red. masses --      1.3132                 1.4538                 5.4007
 Frc consts  --      1.5294                 1.8743                 8.3205
 IR Inten    --      6.4000                14.2101               112.4947

                     19                     20                     21
                      A                      A                      A
 Frequencies --   1727.9499              3187.5524              3208.3708
 Red. masses --      4.8560                 1.0568                 1.0535
 Frc consts  --      8.5426                 6.3267                 6.3896
 IR Inten    --      3.7832                 1.9718                 2.8633

                     22                     23                     24
                      A                      A                      A
 Frequencies --   3231.0145              3291.7592              3339.4384
 Red. masses --      1.0957                 1.1183                 1.1256
 Frc consts  --      6.7396                 7.1392                 7.3959
 IR Inten    --      5.5050                 0.7335                 0.6415

 - Thermochemistry -
 -------------------
 Temperature   298.150 Kelvin.  Pressure   1.00000 Atm.
 Atom     1 has atomic number  6 and mass  12.00000

 Molecular mass:    71.03711 amu.
 Principal axes and moments of inertia in atomic units:
                           1         2         3
     Eigenvalues --   163.62221 392.16984 555.79205
           X            0.99945   0.03304   0.00000
           Y           -0.03304   0.99945   0.00000
           Z            0.00000  -0.00000   1.00000
 This molecule is an asymmetric top.
 Rotational symmetry number  1.
 Rotational temperatures (Kelvin)      0.52935     0.22086     0.15584
 Rotational constants (GHZ):          11.02993     4.60194     3.24715
 Zero-point vibrational energy     205661.9 (Joules/Mol)
                                   49.15438 (Kcal/Mol)
 Warning -- explicit consideration of   5 degrees of freedom as
           vibrations may cause significant error
 Vibrational temperatures:    211.94   475.42   709.31   739.00   881.17
          (Kelvin)            962.47  1085.03  1127.54  1180.51  1365.31
                             1416.25  1524.60  1599.20  1890.90  1946.51
                             2022.85  2128.31  2326.58  2486.13  4586.17
                             4616.12  4648.70  4736.10  4804.70

 Zero-point correction=                           0.078332 (Hartree/Particle)
 Thermal correction to Energy=                    0.083342
 Thermal correction to Enthalpy=                  0.084286
 Thermal correction to Gibbs Free Energy=         0.050591
 Sum of electronic and zero-point Energies=           -247.120829
 Sum of electronic and thermal Energies=              -247.115820
 Sum of electronic and thermal Enthalpies=            -247.114876
 Sum of electronic and thermal Free Energies=         -247.148571

                     E (Thermal)             CV                S
                      KCal/Mol        Cal/Mol-Kelvin    Cal/Mol-Kelvin
 Total                   52.298             17.838             70.917
 Electronic               0.000              0.000              0.000
 Translational            0.889              2.981             38.699
 Rotational               0.889              2.981             25.081
 Vibrational             50.520             11.876              7.137
 Vibration     1          0.617              1.906              2.707
 Vibration     2          0.713              1.615              1.258
 Vibration     3          0.849              1.266              0.676
 Vibration     4          0.869              1.220              0.625
 Vibration     5          0.972              1.006              0.429

 Optimization completed.
    -- Stationary point found.
 Normal termination of Gaussian 09 at Fri Sep 10 17:37:47 2021.
