 Gaussian 09, Revision E.01,
 Gaussian 09:  ES64L-G09RevE.01 30-Nov-2015

 ----------------------------
 #P OPT Freq B3LYP/6-31G(d,p)
 ----------------------------

 --------
 Frag_881
 --------
 Symbolic Z-matrix:
 Charge =  0 Multiplicity = 1

 SCF Done:  E(RB3LYP) =  -221.335372359     A.U. after   12 cycles
 SCF Done:  E(RB3LYP) =  -221.335416874     A.U. after    9 cycles
 SCF Done:  E(RB3LYP) =  -221.335418966     A.U. after    9 cycles
 SCF Done:  E(RB3LYP) =  -221.335421850     A.U. after    9 cycles
 SCF Done:  E(RB3LYP) =  -221.335422126     A.U. after    8 cycles
 Optimization completed.
    -- Stationary point found.
 Normal termination of Gaussian 09 at Thu Sep  8 14:56:09 2022.

 ----------------------------------------------------------------------
 #P Geom=AllCheck Guess=TCheck SCRF=Check GenChk RB3LYP/6-31G(d,p) Freq
 ----------------------------------------------------------------------

 Structure from the checkpoint file:  "B3LYP6-31Gdp.Frag_881.chk"
 --------
 Frag_881
 --------
 Charge =  0 Multiplicity = 1

                         Standard orientation:
 ---------------------------------------------------------------------
 Center     Atomic      Atomic             Coordinates (Angstroms)
 Number     Number       Type             X           Y           Z
 ---------------------------------------------------------------------
      1          7           0        1.716253   -0.067697   -0.107397
      2          7           0        0.434728    0.448184   -0.011899
      3          7           0       -0.434724   -0.448171    0.011269
      4          7           0       -1.716200    0.067648    0.107823
      5          1           0        1.769963   -1.031388    0.223731
      6          1           0        2.347980    0.542996    0.397529
      7          1           0       -1.770115    1.031478   -0.222850
      8          1           0       -2.348222   -0.542835   -0.396983
 ---------------------------------------------------------------------

 SCF Done:  E(RB3LYP) =  -221.335422126     A.U. after    1 cycles

 The electronic state is 1-A.
 Alpha  occ. eigenvalues --  -14.39252 -14.39202 -14.36076 -14.36074  -1.07208
 Alpha  occ. eigenvalues --   -0.93817  -0.81605  -0.62347  -0.54040  -0.53240
 Alpha  occ. eigenvalues --   -0.46335  -0.43226  -0.38515  -0.31665  -0.25325
 Alpha  occ. eigenvalues --   -0.21744
 Alpha virt. eigenvalues --   -0.00528   0.07913   0.10365   0.14095   0.16031
 Alpha virt. eigenvalues --    0.21132   0.24402   0.36494   0.62645   0.63274
 Alpha virt. eigenvalues --    0.65302   0.65475   0.67994   0.69625   0.74342

 Mulliken charges:
               1
     1  N   -0.410638
     2  N   -0.108294
     3  N   -0.108307
     4  N   -0.410604
     5  H    0.249615
     6  H    0.269317
     7  H    0.249607
     8  H    0.269304
 Sum of Mulliken charges =  -0.00000

 Dipole moment (field-independent basis, Debye):
    X=             -0.0009    Y=              0.0006    Z=              0.0011  Tot=              0.0016
 Quadrupole moment (field-independent basis, Debye-Ang):
   XX=            -16.5624   YY=            -23.1088   ZZ=            -25.1389
   XY=             -0.7719   XZ=              5.9686   YZ=             -0.0404

  Exact polarizability:  55.114   0.687  25.984   1.673  -0.120  14.775
 Approx polarizability:  84.630   7.557  39.730  -1.516  -0.697  20.963

                      1                      2                      3
                      A                      A                      A
 Frequencies --    292.8110               368.1508               432.2752
 Red. masses --      1.7517                 2.4672                 1.4698
 Frc consts  --      0.0885                 0.1970                 0.1618
 IR Inten    --     53.2442               129.2943                 0.0497

                      4                      5                      6
                      A                      A                      A
 Frequencies --    434.1700               654.0165               752.8305
 Red. masses --      1.7628                 4.5113                 1.7496
 Frc consts  --      0.1958                 1.1369                 0.5842
 IR Inten    --     22.6646                 0.0001               611.2416

                      7                      8                      9
                      A                      A                      A
 Frequencies --    827.7772              1100.2798              1151.4178
 Red. masses --      1.3719                 2.0509                 3.1194
 Frc consts  --      0.5539                 1.4629                 2.4366
 IR Inten    --      0.0003                 0.0000                51.9600

                     10                     11                     12
                      A                      A                      A
 Frequencies --   1328.5953              1338.3176              1617.6277
 Red. masses --      1.2890                 2.0820                 1.9505
 Frc consts  --      1.3406                 2.1971                 3.0071
 IR Inten    --      2.0743                 0.0000                 0.0000

                     13                     14                     15
                      A                      A                      A
 Frequencies --   1640.6402              1650.9673              3454.1179
 Red. masses --      1.1066                 1.8584                 1.0501
 Frc consts  --      1.7550                 2.9844                 7.3815
 IR Inten    --     57.2743                 0.0005                 0.0043

                     16                     17                     18
                      A                      A                      A
 Frequencies --   3454.4496              3619.0036              3619.2324
 Red. masses --      1.0493                 1.0937                 1.0942
 Frc consts  --      7.3777                 8.4396                 8.4444
 IR Inten    --      2.6154                22.0363                 0.1430

 - Thermochemistry -
 -------------------
 Temperature   298.150 Kelvin.  Pressure   1.00000 Atm.
 Atom     1 has atomic number  7 and mass  14.00307

 Molecular mass:    60.04360 amu.
 Principal axes and moments of inertia in atomic units:
                           1         2         3
     Eigenvalues --    32.71088 378.42641 406.28238
           X            0.99962  -0.01110   0.02529
           Y            0.01129   0.99991  -0.00726
           Z           -0.02521   0.00754   0.99965
 This molecule is an asymmetric top.
 Rotational symmetry number  1.
 Rotational temperatures (Kelvin)      2.64786     0.22888     0.21319
 Rotational constants (GHZ):          55.17251     4.76907     4.44209
 Zero-point vibrational energy     165902.2 (Joules/Mol)
                                   39.65158 (Kcal/Mol)
 Warning -- explicit consideration of   4 degrees of freedom as
           vibrations may cause significant error
 Vibrational temperatures:    421.29   529.69   621.95   624.67   940.98
          (Kelvin)           1083.15  1190.99  1583.06  1656.63  1911.55
                             1925.54  2327.40  2360.51  2375.37  4969.70
                             4970.18  5206.93  5207.26

 Zero-point correction=                           0.063189 (Hartree/Particle)
 Thermal correction to Energy=                    0.067719
 Thermal correction to Enthalpy=                  0.068663
 Thermal correction to Gibbs Free Energy=         0.037041
 Sum of electronic and zero-point Energies=           -221.272233
 Sum of electronic and thermal Energies=              -221.267703
 Sum of electronic and thermal Enthalpies=            -221.266759
 Sum of electronic and thermal Free Energies=         -221.298382

                     E (Thermal)             CV                S
                      KCal/Mol        Cal/Mol-Kelvin    Cal/Mol-Kelvin
 Total                   42.494             15.162             66.555
 Electronic               0.000              0.000              0.000
 Translational            0.889              2.981             38.198
 Rotational               0.889              2.981             23.135
 Vibrational             40.717              9.200              5.222
 Vibration     1          0.688              1.687              1.458
 Vibration     2          0.741              1.538              1.087
 Vibration     3          0.793              1.400              0.851
 Vibration     4          0.795              1.396              0.845

 Optimization completed.
    -- Stationary point found.
 Normal termination of Gaussian 09 at Thu Sep  8 14:56:15 2022.
