 Gaussian 09, Revision E.01,
 Gaussian 09:  ES64L-G09RevE.01 30-Nov-2015

 ----------------------------
 #P OPT Freq B3LYP/6-31G(d,p)
 ----------------------------

 --------
 Frag_850
 --------
 Symbolic Z-matrix:
 Charge =  0 Multiplicity = 1

 SCF Done:  E(RB3LYP) =  -269.050275095     A.U. after   14 cycles
 SCF Done:  E(RB3LYP) =  -269.050321925     A.U. after    9 cycles
 SCF Done:  E(RB3LYP) =  -269.050325387     A.U. after    8 cycles
 SCF Done:  E(RB3LYP) =  -269.050327314     A.U. after    8 cycles
 SCF Done:  E(RB3LYP) =  -269.050328296     A.U. after    8 cycles
 SCF Done:  E(RB3LYP) =  -269.050328523     A.U. after    7 cycles
 Optimization completed.
    -- Stationary point found.
 Normal termination of Gaussian 09 at Thu Sep  8 15:12:48 2022.

 ----------------------------------------------------------------------
 #P Geom=AllCheck Guess=TCheck SCRF=Check GenChk RB3LYP/6-31G(d,p) Freq
 ----------------------------------------------------------------------

 Structure from the checkpoint file:  "B3LYP6-31Gdp.Frag_850.chk"
 --------
 Frag_850
 --------
 Charge =  0 Multiplicity = 1

                         Standard orientation:
 ---------------------------------------------------------------------
 Center     Atomic      Atomic             Coordinates (Angstroms)
 Number     Number       Type             X           Y           Z
 ---------------------------------------------------------------------
      1          6           0       -2.034521   -0.000022   -0.119235
      2          7           0       -0.816808   -0.000452   -0.893101
      3          7           0        0.359360   -0.000003   -0.017185
      4          6           0        1.496425   -0.000053   -0.981960
      5          6           0        0.469370   -1.227946    0.848822
      6          6           0        0.469072    1.228321    0.848298
      7          1           0       -2.229915   -0.886871    0.528342
      8          1           0       -2.229957    0.887597    0.527251
      9          1           0       -2.839059   -0.000509   -0.863394
     10          1           0        1.384234    0.884779   -1.606054
     11          1           0        2.451932   -0.000134   -0.450307
     12          1           0        1.384065   -0.884861   -1.606058
     13          1           0        1.416487   -1.241994    1.396314
     14          1           0        0.385388   -2.087759    0.185384
     15          1           0       -0.361971   -1.232377    1.552619
     16          1           0        1.416476    1.243093    1.395258
     17          1           0       -0.361887    1.232582    1.552542
     18          1           0        0.384273    2.087833    0.184565
 ---------------------------------------------------------------------

 SCF Done:  E(RB3LYP) =  -269.050328523     A.U. after    1 cycles

 The electronic state is 1-A.
 Alpha  occ. eigenvalues --  -14.44463 -14.23949 -10.22358 -10.22357 -10.22065
 Alpha  occ. eigenvalues --  -10.15874  -0.99666  -0.77448  -0.73270  -0.73261
 Alpha  occ. eigenvalues --   -0.64707  -0.57283  -0.49848  -0.49521  -0.48057
 Alpha  occ. eigenvalues --   -0.43152  -0.42890  -0.39646  -0.39246  -0.38497
 Alpha  occ. eigenvalues --   -0.37952  -0.35746  -0.33670  -0.21114  -0.13133
 Alpha virt. eigenvalues --    0.06402   0.10857   0.11250   0.12574   0.12742
 Alpha virt. eigenvalues --    0.14057   0.14106   0.17397   0.17580   0.18909
 Alpha virt. eigenvalues --    0.19290   0.19343   0.19972   0.20601   0.22170

 Mulliken charges:
               1
     1  C   -0.155723
     2  N   -0.470115
     3  N   -0.262474
     4  C   -0.130339
     5  C   -0.156039
     6  C   -0.156062
     7  H    0.033328
     8  H    0.033342
     9  H    0.101750
    10  H    0.144764
    11  H    0.098358
    12  H    0.144797
    13  H    0.106330
    14  H    0.143600
    15  H    0.137258
    16  H    0.106353
    17  H    0.137257
    18  H    0.143617
 Sum of Mulliken charges =  -0.00000

 Dipole moment (field-independent basis, Debye):
    X=              3.4598    Y=              0.0015    Z=              2.6740  Tot=              4.3727
 Quadrupole moment (field-independent basis, Debye-Ang):
   XX=            -39.6793   YY=            -38.1776   ZZ=            -41.3610
   XY=             -0.0009   XZ=             -2.3142   YZ=             -0.0013

  Exact polarizability:  71.817  -0.001  56.379   1.849  -0.000  57.400
 Approx polarizability:  95.353  -0.000  76.987   5.125   0.002  85.593

                      1                      2                      3
                      A                      A                      A
 Frequencies --     79.3719               212.7726               273.2118
 Red. masses --      1.8264                 1.0541                 1.0245
 Frc consts  --      0.0068                 0.0281                 0.0451
 IR Inten    --      5.8856                 0.0371                 0.0990

                      4                      5                      6
                      A                      A                      A
 Frequencies --    275.6856               304.1383               319.9113
 Red. masses --      1.0324                 2.4904                 1.3094
 Frc consts  --      0.0462                 0.1357                 0.0790
 IR Inten    --      0.9126                 0.5287                 1.0938

                      7                      8                      9
                      A                      A                      A
 Frequencies --    364.6729               404.9239               443.7814
 Red. masses --      2.5742                 2.4486                 2.4802
 Frc consts  --      0.2017                 0.2365                 0.2878
 IR Inten    --     14.5440                 1.2029                 8.0731

                     10                     11                     12
                      A                      A                      A
 Frequencies --    475.7813               531.1803               683.7832
 Red. masses --      2.7452                 2.7800                 4.9334
 Frc consts  --      0.3661                 0.4622                 1.3590
 IR Inten    --     14.3434                 6.5100                 6.7733

                     13                     14                     15
                      A                      A                      A
 Frequencies --    740.0570               901.8474               967.3090
 Red. masses --      4.0730                 2.2317                 2.0613
 Frc consts  --      1.3143                 1.0694                 1.1364
 IR Inten    --      0.2347                 0.0703                14.9403

                     16                     17                     18
                      A                      A                      A
 Frequencies --   1060.2652              1068.5228              1108.2272
 Red. masses --      1.1885                 3.8162                 1.3341
 Frc consts  --      0.7872                 2.5672                 0.9654
 IR Inten    --      0.0284                52.4815                 4.7824

                     19                     20                     21
                      A                      A                      A
 Frequencies --   1112.5940              1138.3006              1167.4870
 Red. masses --      1.3687                 1.3356                 1.6670
 Frc consts  --      0.9982                 1.0196                 1.3387
 IR Inten    --      2.4668                 1.1234                 1.0956

                     22                     23                     24
                      A                      A                      A
 Frequencies --   1232.9252              1270.2121              1301.3525
 Red. masses --      1.6473                 2.0037                 2.5641
 Frc consts  --      1.4753                 1.9048                 2.5584
 IR Inten    --     13.3755                 0.4024                 1.5497

                     25                     26                     27
                      A                      A                      A
 Frequencies --   1413.9872              1417.9532              1450.3286
 Red. masses --      1.1575                 1.1632                 1.1605
 Frc consts  --      1.3636                 1.3779                 1.4382
 IR Inten    --      2.3452                 3.1733                 2.1739

                     28                     29                     30
                      A                      A                      A
 Frequencies --   1462.0841              1464.3555              1480.5807
 Red. masses --      1.0523                 1.1620                 1.0504
 Frc consts  --      1.3253                 1.4681                 1.3567
 IR Inten    --      0.2559                 8.5056                 7.1278

                     31                     32                     33
                      A                      A                      A
 Frequencies --   1488.4047              1499.3784              1509.0379
 Red. masses --      1.0476                 1.0454                 1.0703
 Frc consts  --      1.3674                 1.3847                 1.4360
 IR Inten    --      0.0454                 1.5397                12.1744

                     34                     35                     36
                      A                      A                      A
 Frequencies --   1510.5162              1525.4283              1538.2180
 Red. masses --      1.0520                 1.0493                 1.0575
 Frc consts  --      1.4142                 1.4386                 1.4742
 IR Inten    --      4.5293                13.7052                39.2751

                     37                     38                     39
                      A                      A                      A
 Frequencies --   2817.1953              2827.6723              3056.5573
 Red. masses --      1.0984                 1.0428                 1.0385
 Frc consts  --      5.1362                 4.9124                 5.7166
 IR Inten    --    193.9816               185.3783                16.1527

                     40                     41                     42
                      A                      A                      A
 Frequencies --   3062.6217              3074.1661              3081.3084
 Red. masses --      1.0379                 1.0369                 1.0847
 Frc consts  --      5.7360                 5.7735                 6.0677
 IR Inten    --     19.3146                54.4711                30.2659

                     43                     44                     45
                      A                      A                      A
 Frequencies --   3155.9265              3160.8820              3174.4871
 Red. masses --      1.0965                 1.0976                 1.0998
 Frc consts  --      6.4346                 6.4609                 6.5303
 IR Inten    --      2.3095                17.0256                13.1660

                     46                     47                     48
                      A                      A                      A
 Frequencies --   3189.8467              3192.4446              3198.8096
 Red. masses --      1.1068                 1.1061                 1.1059
 Frc consts  --      6.6354                 6.6422                 6.6674
 IR Inten    --      0.8556                11.2495                 5.6477

 - Thermochemistry -
 -------------------
 Temperature   298.150 Kelvin.  Pressure   1.00000 Atm.
 Atom     1 has atomic number  6 and mass  12.00000

 Molecular mass:    88.10005 amu.
 Principal axes and moments of inertia in atomic units:
                           1         2         3
     Eigenvalues --   392.52740 642.98182 647.51986
           X            0.99939  -0.03478   0.00001
           Y            0.00002   0.00087   1.00000
           Z            0.03478   0.99939  -0.00087
 This molecule is an asymmetric top.
 Rotational symmetry number  1.
 Rotational temperatures (Kelvin)      0.22066     0.13471     0.13376
 Rotational constants (GHZ):           4.59775     2.80683     2.78716
 Zero-point vibrational energy     431795.1 (Joules/Mol)
                                  103.20151 (Kcal/Mol)
 Warning -- explicit consideration of  11 degrees of freedom as
           vibrations may cause significant error
 Vibrational temperatures:    114.20   306.13   393.09   396.65   437.59
          (Kelvin)            460.28   524.68   582.59   638.50   684.54
                              764.25   983.81  1064.78  1297.56  1391.74
                             1525.48  1537.36  1594.49  1600.77  1637.76
                             1679.75  1773.90  1827.55  1872.35  2034.41
                             2040.12  2086.70  2103.61  2106.88  2130.22
                             2141.48  2157.27  2171.17  2173.29  2194.75
                             2213.15  4053.31  4068.38  4397.70  4406.42
                             4423.03  4433.31  4540.67  4547.80  4567.37
                             4589.47  4593.21  4602.37

 Zero-point correction=                           0.164462 (Hartree/Particle)
 Thermal correction to Energy=                    0.172253
 Thermal correction to Enthalpy=                  0.173197
 Thermal correction to Gibbs Free Energy=         0.133611
 Sum of electronic and zero-point Energies=           -268.885866
 Sum of electronic and thermal Energies=              -268.878076
 Sum of electronic and thermal Enthalpies=            -268.877132
 Sum of electronic and thermal Free Energies=         -268.916718

                     E (Thermal)             CV                S
                      KCal/Mol        Cal/Mol-Kelvin    Cal/Mol-Kelvin
 Total                  108.090             28.990             83.316
 Electronic               0.000              0.000              0.000
 Translational            0.889              2.981             39.340
 Rotational               0.889              2.981             26.594
 Vibrational            106.313             23.029             17.382
 Vibration     1          0.600              1.963              3.906
 Vibration     2          0.644              1.821              2.020
 Vibration     3          0.676              1.723              1.576
 Vibration     4          0.677              1.718              1.560
 Vibration     5          0.695              1.666              1.394
 Vibration     6          0.706              1.635              1.311
 Vibration     7          0.738              1.545              1.102
 Vibration     8          0.770              1.460              0.945
 Vibration     9          0.803              1.375              0.815
 Vibration    10          0.832              1.304              0.722
 Vibration    11          0.886              1.181              0.585

 Optimization completed.
    -- Stationary point found.
 Normal termination of Gaussian 09 at Thu Sep  8 15:13:04 2022.
