 Gaussian 09, Revision E.01,
 Gaussian 09:  ES64L-G09RevE.01 30-Nov-2015

 ----------------------------
 #P OPT Freq B3LYP/6-31G(d,p)
 ----------------------------

 --------
 Frag_816
 --------
 Symbolic Z-matrix:
 Charge =  0 Multiplicity = 1

 SCF Done:  E(RB3LYP) =  -264.474856955     A.U. after   14 cycles
 SCF Done:  E(RB3LYP) =  -264.474944404     A.U. after    9 cycles
 SCF Done:  E(RB3LYP) =  -264.474948391     A.U. after    8 cycles
 SCF Done:  E(RB3LYP) =  -264.474949507     A.U. after    8 cycles
 SCF Done:  E(RB3LYP) =  -264.474949481     A.U. after    8 cycles
 Optimization completed.
    -- Stationary point found.
 Normal termination of Gaussian 09 at Thu Sep  8 15:14:47 2022.

 ----------------------------------------------------------------------
 #P Geom=AllCheck Guess=TCheck SCRF=Check GenChk RB3LYP/6-31G(d,p) Freq
 ----------------------------------------------------------------------

 Structure from the checkpoint file:  "B3LYP6-31Gdp.Frag_816.chk"
 --------
 Frag_816
 --------
 Charge =  0 Multiplicity = 1

                         Standard orientation:
 ---------------------------------------------------------------------
 Center     Atomic      Atomic             Coordinates (Angstroms)
 Number     Number       Type             X           Y           Z
 ---------------------------------------------------------------------
      1          6           0        1.866340   -0.144847   -0.000134
      2          7           0        0.559425   -0.787165    0.000044
      3          7           0       -0.384336    0.064991    0.000609
      4          6           0       -1.760974   -0.482999   -0.000206
      5          8           0       -0.277396    1.315701   -0.000117
      6          1           0        1.989743    0.500167   -0.879385
      7          1           0        2.621709   -0.930754   -0.000732
      8          1           0        1.990332    0.499405    0.879597
      9          1           0       -1.712600   -1.569232   -0.000882
     10          1           0       -2.263664   -0.100870   -0.889426
     11          1           0       -2.264168   -0.102032    0.889228
 ---------------------------------------------------------------------

 SCF Done:  E(RB3LYP) =  -264.474949481     A.U. after    1 cycles

 The electronic state is 1-A.
 Alpha  occ. eigenvalues --  -19.14597 -14.51411 -14.36467 -10.23764 -10.20823
 Alpha  occ. eigenvalues --   -1.15149  -0.95300  -0.80948  -0.70913  -0.57594
 Alpha  occ. eigenvalues --   -0.51569  -0.50791  -0.49975  -0.43392  -0.43081
 Alpha  occ. eigenvalues --   -0.40271  -0.38399  -0.29926  -0.26399  -0.25506
 Alpha virt. eigenvalues --   -0.03573   0.10575   0.12642   0.12923   0.14778
 Alpha virt. eigenvalues --    0.15526   0.17410   0.18117   0.19750   0.27218
 Alpha virt. eigenvalues --    0.38535   0.48852   0.51675   0.53092   0.56150

 Mulliken charges:
               1
     1  C   -0.185294
     2  N   -0.260000
     3  N    0.229159
     4  C   -0.169376
     5  O   -0.459194
     6  H    0.133411
     7  H    0.118596
     8  H    0.133404
     9  H    0.150108
    10  H    0.154623
    11  H    0.154561
 Sum of Mulliken charges =  -0.00000

 Dipole moment (field-independent basis, Debye):
    X=             -0.9167    Y=             -1.2907    Z=              0.0001  Tot=              1.5832
 Quadrupole moment (field-independent basis, Debye-Ang):
   XX=            -23.4511   YY=            -35.1250   ZZ=            -29.2576
   XY=              2.0120   XZ=              0.0004   YZ=              0.0007

  Exact polarizability:  53.105  -3.977  41.523  -0.002  -0.001  28.294
 Approx polarizability:  68.711 -17.324  82.985  -0.006  -0.002  39.163

                      1                      2                      3
                      A                      A                      A
 Frequencies --    135.5976               195.5673               255.3334
 Red. masses --      1.1172                 1.0708                 2.4628
 Frc consts  --      0.0121                 0.0241                 0.0946
 IR Inten    --      1.7759                 0.5039                 7.1798

                      4                      5                      6
                      A                      A                      A
 Frequencies --    321.3552               462.8506               642.8759
 Red. masses --      3.0658                 3.3716                 4.1126
 Frc consts  --      0.1865                 0.4256                 1.0014
 IR Inten    --     16.3424                 5.5591                 5.3377

                      7                      8                      9
                      A                      A                      A
 Frequencies --    656.7532               934.6232              1030.4357
 Red. masses --      4.1571                 3.1009                 3.1738
 Frc consts  --      1.0564                 1.5959                 1.9855
 IR Inten    --     14.1147                 4.9077                11.0097

                     10                     11                     12
                      A                      A                      A
 Frequencies --   1093.4430              1131.9368              1152.1930
 Red. masses --      1.3945                 1.8520                 1.4200
 Frc consts  --      0.9823                 1.3981                 1.1107
 IR Inten    --      1.4981                 4.1912                 0.2215

                     13                     14                     15
                      A                      A                      A
 Frequencies --   1194.6316              1392.8484              1429.4783
 Red. masses --      1.8501                 6.4649                 1.2700
 Frc consts  --      1.5557                 7.3896                 1.5291
 IR Inten    --      2.2328                39.7114                12.3993

                     16                     17                     18
                      A                      A                      A
 Frequencies --   1433.3059              1477.5650              1489.0020
 Red. masses --      1.2533                 1.1062                 1.0469
 Frc consts  --      1.5171                 1.4230                 1.3676
 IR Inten    --     23.9137                12.1269                 0.2652

                     19                     20                     21
                      A                      A                      A
 Frequencies --   1489.5107              1490.0790              1618.8664
 Red. masses --      1.0428                 1.0659                 5.0759
 Frc consts  --      1.3631                 1.3944                 7.8377
 IR Inten    --     17.0469                19.8940               142.5401

                     22                     23                     24
                      A                      A                      A
 Frequencies --   3027.3120              3081.0808              3089.1599
 Red. masses --      1.0360                 1.1010                 1.0304
 Frc consts  --      5.5943                 6.1581                 5.7933
 IR Inten    --     16.2086                17.9555                 7.5602

                     25                     26                     27
                      A                      A                      A
 Frequencies --   3160.3162              3175.7217              3211.6568
 Red. masses --      1.1015                 1.1057                 1.1086
 Frc consts  --      6.4820                 6.5699                 6.7371
 IR Inten    --     19.4284                 4.0466                 2.0653

 - Thermochemistry -
 -------------------
 Temperature   298.150 Kelvin.  Pressure   1.00000 Atm.
 Atom     1 has atomic number  6 and mass  12.00000

 Molecular mass:    74.04801 amu.
 Principal axes and moments of inertia in atomic units:
                           1         2         3
     Eigenvalues --   165.59169 421.88495 564.95533
           X            0.99931   0.03718   0.00000
           Y           -0.03718   0.99931   0.00001
           Z           -0.00000  -0.00001   1.00000
 This molecule is an asymmetric top.
 Rotational symmetry number  1.
 Rotational temperatures (Kelvin)      0.52306     0.20530     0.15331
 Rotational constants (GHZ):          10.89874     4.27780     3.19448
 Zero-point vibrational energy     237898.4 (Joules/Mol)
                                   56.85907 (Kcal/Mol)
 Warning -- explicit consideration of   5 degrees of freedom as
           vibrations may cause significant error
 Vibrational temperatures:    195.09   281.38   367.37   462.36   665.94
          (Kelvin)            924.95   944.92  1344.71  1482.57  1573.22
                             1628.60  1657.75  1718.81  2004.00  2056.70
                             2062.20  2125.88  2142.34  2143.07  2143.89
                             2329.18  4355.62  4432.98  4444.61  4546.98
                             4569.15  4620.85

 Zero-point correction=                           0.090611 (Hartree/Particle)
 Thermal correction to Energy=                    0.096285
 Thermal correction to Enthalpy=                  0.097229
 Thermal correction to Gibbs Free Energy=         0.062038
 Sum of electronic and zero-point Energies=           -264.384339
 Sum of electronic and thermal Energies=              -264.378665
 Sum of electronic and thermal Enthalpies=            -264.377721
 Sum of electronic and thermal Free Energies=         -264.412911

                     E (Thermal)             CV                S
                      KCal/Mol        Cal/Mol-Kelvin    Cal/Mol-Kelvin
 Total                   60.420             18.749             74.064
 Electronic               0.000              0.000              0.000
 Translational            0.889              2.981             38.822
 Rotational               0.889              2.981             25.182
 Vibrational             58.642             12.787             10.060
 Vibration     1          0.613              1.918              2.865
 Vibration     2          0.636              1.846              2.174
 Vibration     3          0.666              1.754              1.693
 Vibration     4          0.707              1.633              1.303
 Vibration     5          0.820              1.332              0.758

 Optimization completed.
    -- Stationary point found.
 Normal termination of Gaussian 09 at Thu Sep  8 15:14:55 2022.
