 Gaussian 09, Revision E.01,
 Gaussian 09:  ES64L-G09RevE.01 30-Nov-2015

 ----------------------------
 #P OPT Freq B3LYP/6-31G(d,p)
 ----------------------------

 --------
 Frag_554
 --------
 Symbolic Z-matrix:
 Charge =  0 Multiplicity = 1

 SCF Done:  E(RB3LYP) =  -232.454819973     A.U. after   13 cycles
 SCF Done:  E(RB3LYP) =  -232.454870027     A.U. after    9 cycles
 SCF Done:  E(RB3LYP) =  -232.454871847     A.U. after    8 cycles
 Optimization completed.
    -- Stationary point found.
 Normal termination of Gaussian 09 at Thu Sep  8 14:56:53 2022.

 ----------------------------------------------------------------------
 #P Geom=AllCheck Guess=TCheck SCRF=Check GenChk RB3LYP/6-31G(d,p) Freq
 ----------------------------------------------------------------------

 Structure from the checkpoint file:  "B3LYP6-31Gdp.Frag_554.chk"
 --------
 Frag_554
 --------
 Charge =  0 Multiplicity = 1

                         Standard orientation:
 ---------------------------------------------------------------------
 Center     Atomic      Atomic             Coordinates (Angstroms)
 Number     Number       Type             X           Y           Z
 ---------------------------------------------------------------------
      1          6           0       -0.515372    1.474976   -0.000065
      2          6           0       -0.419198   -0.027465   -0.000057
      3          6           0       -1.708969   -0.804266    0.000036
      4          6           0        0.754820   -0.667900   -0.000040
      5          8           0        1.961620   -0.005021    0.000288
      6          1           0       -1.066110    1.833619   -0.880045
      7          1           0       -1.065255    1.833717    0.880411
      8          1           0        0.471060    1.942029   -0.000550
      9          1           0       -1.538969   -1.885640   -0.000057
     10          1           0       -2.320534   -0.562386    0.880006
     11          1           0       -2.320729   -0.562241   -0.879756
     12          1           0        0.807903   -1.755573   -0.000035
     13          1           0        2.671984   -0.655432   -0.001526
 ---------------------------------------------------------------------

 SCF Done:  E(RB3LYP) =  -232.454871847     A.U. after    1 cycles

 The electronic state is 1-A.
 Alpha  occ. eigenvalues --  -19.16550 -10.22300 -10.17490 -10.17293 -10.16742
 Alpha  occ. eigenvalues --   -1.04057  -0.79069  -0.68216  -0.66803  -0.53669
 Alpha  occ. eigenvalues --   -0.51952  -0.44584  -0.42116  -0.39082  -0.37469
 Alpha  occ. eigenvalues --   -0.36631  -0.36279  -0.35176  -0.32986  -0.20172
 Alpha virt. eigenvalues --    0.05187   0.06750   0.11059   0.14177   0.16412
 Alpha virt. eigenvalues --    0.16673   0.18479   0.19446   0.21808   0.23428
 Alpha virt. eigenvalues --    0.24765   0.32877   0.43358   0.50538   0.52470

 Mulliken charges:
               1
     1  C   -0.365010
     2  C    0.103492
     3  C   -0.361712
     4  C    0.091145
     5  O   -0.516855
     6  H    0.105555
     7  H    0.105582
     8  H    0.129296
     9  H    0.098741
    10  H    0.107167
    11  H    0.107156
    12  H    0.076575
    13  H    0.318867
 Sum of Mulliken charges =  -0.00000

 Dipole moment (field-independent basis, Debye):
    X=              0.5723    Y=             -1.4384    Z=             -0.0030  Tot=              1.5481
 Quadrupole moment (field-independent basis, Debye-Ang):
   XX=            -26.9649   YY=            -29.5653   ZZ=            -32.7908
   XY=             -4.0209   XZ=             -0.0096   YZ=              0.0023

  Exact polarizability:  62.856  -6.110  48.822  -0.005   0.003  31.189
 Approx polarizability:  91.249 -12.413  64.723  -0.004   0.006  43.837

                      1                      2                      3
                      A                      A                      A
 Frequencies --     79.5015               168.2213               215.9252
 Red. masses --      1.2789                 1.0834                 1.0362
 Frc consts  --      0.0048                 0.0181                 0.0285
 IR Inten    --     64.2993                28.8687                24.4895

                      4                      5                      6
                      A                      A                      A
 Frequencies --    263.5578               304.7679               358.8673
 Red. masses --      3.4139                 2.1588                 2.2431
 Frc consts  --      0.1397                 0.1181                 0.1702
 IR Inten    --      1.9265                11.7275                 0.6307

                      7                      8                      9
                      A                      A                      A
 Frequencies --    451.9458               582.5284               818.9584
 Red. masses --      2.1973                 4.4522                 3.2532
 Frc consts  --      0.2644                 0.8901                 1.2855
 IR Inten    --      2.4363                13.3554                 2.0175

                     10                     11                     12
                      A                      A                      A
 Frequencies --    853.8352               979.5273              1019.6975
 Red. masses --      1.3986                 1.3526                 1.2394
 Frc consts  --      0.6008                 0.7646                 0.7593
 IR Inten    --     12.4587                 3.0260                 1.7867

                     13                     14                     15
                      A                      A                      A
 Frequencies --   1053.1878              1107.0822              1186.1599
 Red. masses --      1.6039                 1.5836                 4.2928
 Frc consts  --      1.0482                 1.1435                 3.5586
 IR Inten    --      0.3861                 0.1252               225.3239

                     16                     17                     18
                      A                      A                      A
 Frequencies --   1203.1719              1316.8908              1397.9781
 Red. masses --      1.5498                 1.7598                 1.2156
 Frc consts  --      1.3219                 1.7981                 1.3997
 IR Inten    --     22.1021                68.3362                 0.9221

                     19                     20                     21
                      A                      A                      A
 Frequencies --   1429.1981              1439.7867              1486.9060
 Red. masses --      1.4471                 1.2817                 1.0451
 Frc consts  --      1.7415                 1.5654                 1.3614
 IR Inten    --      5.4702                 0.0730                 1.3540

                     22                     23                     24
                      A                      A                      A
 Frequencies --   1501.1964              1507.3647              1516.9525
 Red. masses --      1.0470                 1.0431                 1.0670
 Frc consts  --      1.3901                 1.3964                 1.4466
 IR Inten    --      5.6337                12.1340                 0.5836

                     25                     26                     27
                      A                      A                      A
 Frequencies --   1785.8213              3013.4506              3021.6585
 Red. masses --      5.6666                 1.0383                 1.0406
 Frc consts  --     10.6474                 5.5550                 5.5978
 IR Inten    --     43.1241                34.9136                55.2645

                     28                     29                     30
                      A                      A                      A
 Frequencies --   3058.5694              3063.4707              3106.6816
 Red. masses --      1.1004                 1.0999                 1.0993
 Frc consts  --      6.0650                 6.0817                 6.2513
 IR Inten    --     25.9794                40.8063                28.9568

                     31                     32                     33
                      A                      A                      A
 Frequencies --   3146.1898              3155.1494              3866.3575
 Red. masses --      1.0966                 1.0919                 1.0670
 Frc consts  --      6.3952                 6.4043                 9.3979
 IR Inten    --     11.0480                27.5049                67.9063

 - Thermochemistry -
 -------------------
 Temperature   298.150 Kelvin.  Pressure   1.00000 Atm.
 Atom     1 has atomic number  6 and mass  12.00000

 Molecular mass:    72.05751 amu.
 Principal axes and moments of inertia in atomic units:
                           1         2         3
     Eigenvalues --   216.71174 482.82569 677.23807
           X            0.99996  -0.00882  -0.00003
           Y            0.00882   0.99996   0.00001
           Z            0.00003  -0.00001   1.00000
 This molecule is an asymmetric top.
 Rotational symmetry number  1.
 Rotational temperatures (Kelvin)      0.39967     0.17939     0.12789
 Rotational constants (GHZ):           8.32784     3.73787     2.66485
 Zero-point vibrational energy     295839.8 (Joules/Mol)
                                   70.70742 (Kcal/Mol)
 Warning -- explicit consideration of   8 degrees of freedom as
           vibrations may cause significant error
 Vibrational temperatures:    114.38   242.03   310.67   379.20   438.49
          (Kelvin)            516.33   650.25   838.13  1178.30  1228.48
                             1409.32  1467.12  1515.30  1592.84  1706.62
                             1731.09  1894.71  2011.38  2056.29  2071.53
                             2139.32  2159.88  2168.76  2182.55  2569.40
                             4335.68  4347.49  4400.59  4407.65  4469.82
                             4526.66  4539.55  5562.82

 Zero-point correction=                           0.112679 (Hartree/Particle)
 Thermal correction to Energy=                    0.119452
 Thermal correction to Enthalpy=                  0.120396
 Thermal correction to Gibbs Free Energy=         0.082777
 Sum of electronic and zero-point Energies=           -232.342192
 Sum of electronic and thermal Energies=              -232.335420
 Sum of electronic and thermal Enthalpies=            -232.334475
 Sum of electronic and thermal Free Energies=         -232.372094

                     E (Thermal)             CV                S
                      KCal/Mol        Cal/Mol-Kelvin    Cal/Mol-Kelvin
 Total                   74.957             22.725             79.176
 Electronic               0.000              0.000              0.000
 Translational            0.889              2.981             38.741
 Rotational               0.889              2.981             25.764
 Vibrational             73.180             16.763             14.671
 Vibration     1          0.600              1.963              3.903
 Vibration     2          0.625              1.882              2.455
 Vibration     3          0.645              1.817              1.993
 Vibration     4          0.670              1.740              1.638
 Vibration     5          0.696              1.665              1.391
 Vibration     6          0.734              1.557              1.127
 Vibration     7          0.811              1.357              0.790
 Vibration     8          0.939              1.069              0.481

 Optimization completed.
    -- Stationary point found.
 Normal termination of Gaussian 09 at Thu Sep  8 14:57:02 2022.
