 Gaussian 09, Revision E.01,
 Gaussian 09:  ES64L-G09RevE.01 30-Nov-2015

 -------------------------
 #P OPT Freq B3LYP/6-31G**
 -------------------------

 --------
 Frag_228
 --------
 Symbolic Z-matrix:
 Charge =  0 Multiplicity = 1

 SCF Done:  E(RB3LYP) =  -210.387744531     A.U. after   12 cycles
 SCF Done:  E(RB3LYP) =  -210.392002979     A.U. after   11 cycles
 SCF Done:  E(RB3LYP) =  -210.392409113     A.U. after   10 cycles
 SCF Done:  E(RB3LYP) =  -210.392633212     A.U. after   10 cycles
 SCF Done:  E(RB3LYP) =  -210.392677418     A.U. after    9 cycles
 SCF Done:  E(RB3LYP) =  -210.392704179     A.U. after   10 cycles
 SCF Done:  E(RB3LYP) =  -210.392714115     A.U. after    8 cycles
 SCF Done:  E(RB3LYP) =  -210.392721355     A.U. after    9 cycles
 SCF Done:  E(RB3LYP) =  -210.392723502     A.U. after    8 cycles
 SCF Done:  E(RB3LYP) =  -210.392723680     A.U. after    7 cycles
 Optimization completed.
    -- Stationary point found.
 Normal termination of Gaussian 09 at Sat Aug 21 01:35:08 2021.

 ----------------------------------------------------------------------
 #P Geom=AllCheck Guess=TCheck SCRF=Check GenChk RB3LYP/6-31G(d,p) Freq
 ----------------------------------------------------------------------

 Structure from the checkpoint file:  "/public/home/users/caep010/.cache/gau_scr/Gau-1675.chk"
 --------
 Frag_228
 --------
 Charge =  0 Multiplicity = 1

                         Standard orientation:
 ---------------------------------------------------------------------
 Center     Atomic      Atomic             Coordinates (Angstroms)
 Number     Number       Type             X           Y           Z
 ---------------------------------------------------------------------
      1          7           0       -1.445120   -0.534587   -0.250950
      2          6           0       -0.688230    0.603328    0.273682
      3          6           0        0.726757    0.572829   -0.279096
      4          8           0        1.358777   -0.600331    0.234839
      5          1           0       -0.950849   -1.384085    0.013110
      6          1           0       -2.359041   -0.579593    0.192528
      7          1           0       -1.168791    1.534136   -0.052195
      8          1           0       -0.621152    0.639688    1.375459
      9          1           0        1.267446    1.481873    0.027840
     10          1           0        0.679907    0.549516   -1.377251
     11          1           0        2.166938   -0.753721   -0.269069
 ---------------------------------------------------------------------

 SCF Done:  E(RB3LYP) =  -210.392723680     A.U. after    1 cycles

 The electronic state is 1-A.
 Alpha  occ. eigenvalues --  -19.14305 -14.30125 -10.22614 -10.20133  -1.01389
 Alpha  occ. eigenvalues --   -0.86812  -0.71690  -0.59151  -0.51826  -0.48052
 Alpha  occ. eigenvalues --   -0.45194  -0.39679  -0.39286  -0.36319  -0.32767
 Alpha  occ. eigenvalues --   -0.26806  -0.22628
 Alpha virt. eigenvalues --    0.07250   0.10755   0.12845   0.16783   0.16958
 Alpha virt. eigenvalues --    0.17418   0.19525   0.21922   0.23908   0.25530
 Alpha virt. eigenvalues --    0.53953   0.55042   0.57836   0.58880   0.63846

 Mulliken charges:
               1
     1  N   -0.607753
     2  C   -0.049922
     3  C    0.053864
     4  O   -0.544979
     5  H    0.250639
     6  H    0.233240
     7  H    0.097118
     8  H    0.085925
     9  H    0.078097
    10  H    0.094983
    11  H    0.308788
 Sum of Mulliken charges =  -0.00000

 Dipole moment (field-independent basis, Debye):
    X=              0.7225    Y=              0.4758    Z=              0.1361  Tot=              0.8758
 Quadrupole moment (field-independent basis, Debye-Ang):
   XX=            -20.9162   YY=            -24.2321   ZZ=            -27.3124
   XY=             -0.0788   XZ=             -4.7859   YZ=             -0.1634

  Exact polarizability:  37.503  -0.046  34.157  -1.469   0.391  28.934
 Approx polarizability:  45.676  -1.093  45.429  -0.978   0.037  39.612

                      1                      2                      3
                      A                      A                      A
 Frequencies --    179.0924               245.4549               279.8200
 Red. masses --      2.8431                 1.1107                 1.1789
 Frc consts  --      0.0537                 0.0394                 0.0544
 IR Inten    --      2.5270               123.7212                54.6876

                      4                      5                      6
                      A                      A                      A
 Frequencies --    360.5155               505.3529               865.2191
 Red. masses --      2.0039                 2.2287                 1.6665
 Frc consts  --      0.1535                 0.3353                 0.7350
 IR Inten    --     10.6610                12.0731                61.8847

                      7                      8                      9
                      A                      A                      A
 Frequencies --    888.4366               908.8100              1049.2468
 Red. masses --      1.6186                 1.6740                 2.2901
 Frc consts  --      0.7528                 0.8146                 1.4855
 IR Inten    --     86.8821                26.8195                61.3870

                     10                     11                     12
                      A                      A                      A
 Frequencies --   1103.1057              1114.7799              1181.6005
 Red. masses --      1.7181                 2.2273                 1.2753
 Frc consts  --      1.2318                 1.6308                 1.0491
 IR Inten    --     33.9776                13.0934                 0.9741

                     13                     14                     15
                      A                      A                      A
 Frequencies --   1260.5585              1289.5728              1350.0924
 Red. masses --      1.1780                 1.2561                 1.1510
 Frc consts  --      1.1029                 1.2308                 1.2361
 IR Inten    --      3.3056                48.0207                 5.9060

                     16                     17                     18
                      A                      A                      A
 Frequencies --   1423.6366              1469.5234              1516.6761
 Red. masses --      1.3388                 1.5873                 1.0884
 Frc consts  --      1.5987                 2.0196                 1.4752
 IR Inten    --     10.4559                 4.0855                 5.1484

                     19                     20                     21
                      A                      A                      A
 Frequencies --   1525.5027              1659.7171              2959.5521
 Red. masses --      1.0898                 1.0891                 1.0722
 Frc consts  --      1.4943                 1.7676                 5.5333
 IR Inten    --      5.8334                34.7498                64.0093

                     22                     23                     24
                      A                      A                      A
 Frequencies --   2990.8840              3039.2280              3062.8154
 Red. masses --      1.0593                 1.1042                 1.0903
 Frc consts  --      5.5830                 6.0092                 6.0259
 IR Inten    --     63.3973                73.2563                47.2176

                     25                     26                     27
                      A                      A                      A
 Frequencies --   3494.2207              3579.6587              3836.3458
 Red. masses --      1.0494                 1.0924                 1.0667
 Frc consts  --      7.5489                 8.2475                 9.2499
 IR Inten    --      2.6722                 0.5597                18.6315

 - Thermochemistry -
 -------------------
 Temperature   298.150 Kelvin.  Pressure   1.00000 Atm.
 Atom     1 has atomic number  7 and mass  14.00307

 Molecular mass:    61.05276 amu.
 Principal axes and moments of inertia in atomic units:
                           1         2         3
     Eigenvalues --   119.97360 333.65362 400.52763
           X            0.99924   0.01821  -0.03458
           Y           -0.01801   0.99982   0.00617
           Z            0.03468  -0.00554   0.99938
 This molecule is an asymmetric top.
 Rotational symmetry number  1.
 Rotational temperatures (Kelvin)      0.72194     0.25959     0.21625
 Rotational constants (GHZ):          15.04282     5.40903     4.50591
 Zero-point vibrational energy     258031.0 (Joules/Mol)
                                   61.67089 (Kcal/Mol)
 Warning -- explicit consideration of   5 degrees of freedom as
           vibrations may cause significant error
 Vibrational temperatures:    257.67   353.15   402.60   518.70   727.09
          (Kelvin)           1244.86  1278.26  1307.57  1509.63  1587.12
                             1603.92  1700.06  1813.66  1855.41  1942.48
                             2048.29  2114.31  2182.16  2194.86  2387.96
                             4258.13  4303.21  4372.77  4406.70  5027.40
                             5150.32  5519.64

 Zero-point correction=                           0.098279 (Hartree/Particle)
 Thermal correction to Energy=                    0.103539
 Thermal correction to Enthalpy=                  0.104483
 Thermal correction to Gibbs Free Energy=         0.070864
 Sum of electronic and zero-point Energies=           -210.294445
 Sum of electronic and thermal Energies=              -210.289185
 Sum of electronic and thermal Enthalpies=            -210.288240
 Sum of electronic and thermal Free Energies=         -210.321860

                     E (Thermal)             CV                S
                      KCal/Mol        Cal/Mol-Kelvin    Cal/Mol-Kelvin
 Total                   64.972             17.555             70.757
 Electronic               0.000              0.000              0.000
 Translational            0.889              2.981             38.247
 Rotational               0.889              2.981             24.287
 Vibrational             63.194             11.593              8.223
 Vibration     1          0.629              1.868              2.338
 Vibration     2          0.660              1.770              1.763
 Vibration     3          0.680              1.711              1.535
 Vibration     4          0.735              1.554              1.120
 Vibration     5          0.861              1.238              0.645

 Optimization completed.
    -- Stationary point found.
 Normal termination of Gaussian 09 at Sat Aug 21 01:35:16 2021.
