 Gaussian 09, Revision E.01,
 Gaussian 09:  ES64L-G09RevE.01 30-Nov-2015

 ----------------------------
 #P OPT Freq B3LYP/6-31G(d,p)
 ----------------------------

 --------
 Frag_467
 --------
 Symbolic Z-matrix:
 Charge =  0 Multiplicity = 1

 SCF Done:  E(RB3LYP) =  -186.976386178     A.U. after   14 cycles
 SCF Done:  E(RB3LYP) =  -186.976449786     A.U. after   12 cycles
 SCF Done:  E(RB3LYP) =  -186.976448326     A.U. after   11 cycles
 SCF Done:  E(RB3LYP) =  -186.976479679     A.U. after   10 cycles
 SCF Done:  E(RB3LYP) =  -186.976481036     A.U. after   10 cycles
 SCF Done:  E(RB3LYP) =  -186.976484424     A.U. after    9 cycles
 SCF Done:  E(RB3LYP) =  -186.976484974     A.U. after    8 cycles
 Optimization completed.
    -- Stationary point found.
 Normal termination of Gaussian 09 at Thu Sep  8 15:08:12 2022.

 ----------------------------------------------------------------------
 #P Geom=AllCheck Guess=TCheck SCRF=Check GenChk RB3LYP/6-31G(d,p) Freq
 ----------------------------------------------------------------------

 Structure from the checkpoint file:  "B3LYP6-31Gdp.Frag_467.chk"
 --------
 Frag_467
 --------
 Charge =  0 Multiplicity = 1

                         Standard orientation:
 ---------------------------------------------------------------------
 Center     Atomic      Atomic             Coordinates (Angstroms)
 Number     Number       Type             X           Y           Z
 ---------------------------------------------------------------------
      1          7           0       -1.078192   -0.187986    0.008775
      2          7           0        0.115589    0.712545    0.017656
      3          8           0        1.171537   -0.263316   -0.117694
      4          1           0       -1.891646    0.425527   -0.063696
      5          1           0       -1.069595   -0.825312   -0.802764
      6          1           0       -1.205773   -0.796552    0.844217
      7          1           0        1.532932   -0.369050    0.778781
 ---------------------------------------------------------------------

 SCF Done:  E(RB3LYP) =  -186.976484974     A.U. after    1 cycles

 The electronic state is 1-A.
 Alpha  occ. eigenvalues --  -19.12662 -14.44496 -14.29904  -1.01873  -0.94470
 Alpha  occ. eigenvalues --   -0.67815  -0.56400  -0.54875  -0.45771  -0.38624
 Alpha  occ. eigenvalues --   -0.30527  -0.22967  -0.13934
 Alpha virt. eigenvalues --    0.03149   0.09895   0.10612   0.11664   0.15810
 Alpha virt. eigenvalues --    0.21474   0.60470   0.64500   0.65145   0.74444
 Alpha virt. eigenvalues --    0.76425   0.78780   0.79537   0.81183   0.82009

 Mulliken charges:
               1
     1  N   -0.371177
     2  N   -0.302700
     3  O   -0.474740
     4  H    0.305340
     5  H    0.291371
     6  H    0.257412
     7  H    0.294495
 Sum of Mulliken charges =   0.00000

 Dipole moment (field-independent basis, Debye):
    X=             -4.0948    Y=             -2.7493    Z=              1.3090  Tot=              5.1029
 Quadrupole moment (field-independent basis, Debye-Ang):
   XX=            -12.6596   YY=            -19.8414   ZZ=            -17.2775
   XY=              0.2380   XZ=              2.5737   YZ=             -0.5873

  Exact polarizability:  30.637   1.782  21.547   0.924  -1.309  18.398
 Approx polarizability:  41.720   2.863  32.177  -0.042  -1.862  24.586

                      1                      2                      3
                      A                      A                      A
 Frequencies --    222.5943               385.5323               457.7936
 Red. masses --      1.1370                 3.3751                 1.1806
 Frc consts  --      0.0332                 0.2956                 0.1458
 IR Inten    --     12.5948                19.8463                80.6578

                      4                      5                      6
                      A                      A                      A
 Frequencies --    605.2043               855.3344              1019.7598
 Red. masses --      3.8354                 6.2525                 1.2260
 Frc consts  --      0.8277                 2.6951                 0.7512
 IR Inten    --     19.5250                78.9310                24.6922

                      7                      8                      9
                      A                      A                      A
 Frequencies --   1116.0818              1286.6366              1419.2553
 Red. masses --      1.7744                 1.1319                 1.1321
 Frc consts  --      1.3023                 1.1040                 1.3436
 IR Inten    --     19.3786                21.6001                 9.8649

                     10                     11                     12
                      A                      A                      A
 Frequencies --   1595.8869              1673.9078              3100.4060
 Red. masses --      1.0634                 1.0531                 1.0641
 Frc consts  --      1.5958                 1.7386                 6.0264
 IR Inten    --     25.9526                36.4609               148.6806

                     13                     14                     15
                      A                      A                      A
 Frequencies --   3268.8808              3518.2731              3656.1276
 Red. masses --      1.0601                 1.0828                 1.0691
 Frc consts  --      6.6742                 7.8973                 8.4202
 IR Inten    --     24.5578                26.3231                 6.0716

 - Thermochemistry -
 -------------------
 Temperature   298.150 Kelvin.  Pressure   1.00000 Atm.
 Atom     1 has atomic number  7 and mass  14.00307

 Molecular mass:    48.03236 amu.
 Principal axes and moments of inertia in atomic units:
                           1         2         3
     Eigenvalues --    44.53592 175.20937 204.33599
           X            0.99958   0.01627   0.02417
           Y           -0.01528   0.99905  -0.04078
           Z           -0.02482   0.04039   0.99888
 This molecule is an asymmetric top.
 Rotational symmetry number  1.
 Rotational temperatures (Kelvin)      1.94481     0.49434     0.42388
 Rotational constants (GHZ):          40.52327    10.30048     8.83222
 Zero-point vibrational energy     144638.5 (Joules/Mol)
                                   34.56944 (Kcal/Mol)
 Warning -- explicit consideration of   4 degrees of freedom as
           vibrations may cause significant error
 Vibrational temperatures:    320.26   554.69   658.66   870.75  1230.63
          (Kelvin)           1467.21  1605.79  1851.18  2041.99  2296.12
                             2408.38  4460.79  4703.18  5062.00  5260.35

 Zero-point correction=                           0.055090 (Hartree/Particle)
 Thermal correction to Energy=                    0.059332
 Thermal correction to Enthalpy=                  0.060277
 Thermal correction to Gibbs Free Energy=         0.029837
 Sum of electronic and zero-point Energies=           -186.921395
 Sum of electronic and thermal Energies=              -186.917153
 Sum of electronic and thermal Enthalpies=            -186.916208
 Sum of electronic and thermal Free Energies=         -186.946648

                     E (Thermal)             CV                S
                      KCal/Mol        Cal/Mol-Kelvin    Cal/Mol-Kelvin
 Total                   37.232             13.168             64.065
 Electronic               0.000              0.000              0.000
 Translational            0.889              2.981             37.532
 Rotational               0.889              2.981             21.994
 Vibrational             35.454              7.206              4.539
 Vibration     1          0.648              1.807              1.938
 Vibration     2          0.754              1.501              1.017
 Vibration     3          0.816              1.344              0.773
 Vibration     4          0.964              1.021              0.441

 Normal termination of Gaussian 09 at Thu Sep  8 15:08:18 2022.
