 Gaussian 09, Revision D.01,
 Gaussian 09:  ES64L-G09RevD.01 24-Apr-2013

 -------------------------
 #P OPT Freq B3LYP/6-31G**
 -------------------------

 --------
 Frag_100
 --------
 Symbolic Z-matrix:
 Charge =  0 Multiplicity = 1

 SCF Done:  E(RB3LYP) =  -213.811220028     A.U. after   12 cycles
 Optimization completed.
    -- Stationary point found.
 Normal termination of Gaussian 09 at Fri Jul 23 17:59:49 2021.

 ----------------------------------------------------------------------
 #P Geom=AllCheck Guess=TCheck SCRF=Check GenChk RB3LYP/6-31G(d,p) Freq
 ----------------------------------------------------------------------

 Structure from the checkpoint file:  "/vol2/users/liuj201281/HOFBenchmark/IsodesmicSplit/Sample60/Ring26/Running/Gau-384671.chk"
 --------
 Frag_100
 --------
 Charge =  0 Multiplicity = 1

                         Standard orientation:
 ---------------------------------------------------------------------
 Center     Atomic      Atomic             Coordinates (Angstroms)
 Number     Number       Type             X           Y           Z
 ---------------------------------------------------------------------
      1          6           0       -2.024717   -0.085289   -0.110593
      2          7           0       -0.737822   -0.653599    0.270907
      3          6           0        0.442283   -0.010708   -0.320093
      4          6           0        1.672577   -0.870717   -0.014893
      5          6           0        0.667494    1.449890    0.114207
      6          1           0       -2.826122   -0.656283    0.368807
      7          1           0       -2.155318   -0.184888   -1.194493
      8          1           0       -2.174009    0.978612    0.143307
      9          1           0       -0.647022   -0.647000    1.285207
     10          1           0        0.279083   -0.021107   -1.407693
     11          1           0        2.567280   -0.469924   -0.501993
     12          1           0        1.514969   -1.897916   -0.353493
     13          1           0        1.868677   -0.896819    1.064707
     14          1           0        1.535598    1.883584   -0.394193
     15          1           0        0.852395    1.506189    1.194407
     16          1           0       -0.196601    2.081697   -0.112693
 ---------------------------------------------------------------------

 SCF Done:  E(RB3LYP) =  -213.811220028     A.U. after    1 cycles

 The electronic state is 1-A.
 Alpha  occ. eigenvalues --  -14.30871 -10.20797 -10.19636 -10.16967 -10.16779
 Alpha  occ. eigenvalues --   -0.89352  -0.75797  -0.68065  -0.65161  -0.57599
 Alpha  occ. eigenvalues --   -0.46796  -0.45612  -0.42599  -0.42239  -0.38467
 Alpha  occ. eigenvalues --   -0.38180  -0.37009  -0.34698  -0.33370  -0.32705
 Alpha  occ. eigenvalues --   -0.21092
 Alpha virt. eigenvalues --    0.08329   0.11761   0.12875   0.13788   0.15460
 Alpha virt. eigenvalues --    0.16882   0.17077   0.18000   0.19290   0.19603
 Alpha virt. eigenvalues --    0.22175   0.23657   0.24706   0.25765   0.28581

 Mulliken charges:
               1
     1  C   -0.167478
     2  N   -0.486206
     3  C    0.068827
     4  C   -0.307292
     5  C   -0.314241
     6  H    0.104148
     7  H    0.108662
     8  H    0.080354
     9  H    0.226122
    10  H    0.089626
    11  H    0.096487
    12  H    0.114484
    13  H    0.092334
    14  H    0.099454
    15  H    0.092639
    16  H    0.102081
 Sum of Mulliken charges =   0.00000

 Dipole moment (field-independent basis, Debye):
    X=             -0.0022    Y=              0.8070    Z=              0.3824  Tot=              0.8930
 Quadrupole moment (field-independent basis, Debye-Ang):
   XX=            -33.0326   YY=            -36.2913   ZZ=            -32.1128
   XY=             -0.4947   XZ=             -0.4921   YZ=             -0.5445

  Exact polarizability:  58.686   0.001  49.440  -0.387  -0.718  47.488
 Approx polarizability:  71.205   0.589  65.314  -0.582  -1.805  69.004

                      1                      2                      3
                      A                      A                      A
 Frequencies --    103.7873               221.1507               229.7289
 Red. masses --      1.7719                 1.0761                 1.1057
 Frc consts  --      0.0112                 0.0310                 0.0344
 IR Inten    --      1.6193                 0.4641                 0.5787

                      4                      5                      6
                      A                      A                      A
 Frequencies --    255.3439               283.2090               363.6912
 Red. masses --      1.2481                 1.9946                 2.1227
 Frc consts  --      0.0479                 0.0943                 0.1654
 IR Inten    --      0.3554                 2.8293                 0.1979

                      7                      8                      9
                      A                      A                      A
 Frequencies --    442.9221               482.7282               731.4538
 Red. masses --      2.1311                 2.4686                 1.8223
 Frc consts  --      0.2463                 0.3389                 0.5744
 IR Inten    --      2.0883                 3.6937                84.2211

                     10                     11                     12
                      A                      A                      A
 Frequencies --    839.1474               926.1020               928.7223
 Red. masses --      1.6182                 1.6553                 1.3704
 Frc consts  --      0.6714                 0.8365                 0.6964
 IR Inten    --     27.0594                 1.0339                 1.3224

                     13                     14                     15
                      A                      A                      A
 Frequencies --    948.9811              1064.5807              1116.1077
 Red. masses --      1.4362                 1.2456                 2.4210
 Frc consts  --      0.7620                 0.8318                 1.7769
 IR Inten    --      0.2654                 7.7463                 8.4847

                     16                     17                     18
                      A                      A                      A
 Frequencies --   1144.7822              1170.6227              1199.8084
 Red. masses --      2.3409                 1.4963                 2.0258
 Frc consts  --      1.8075                 1.2081                 1.7182
 IR Inten    --     23.0718                 6.4383                34.3593

                     19                     20                     21
                      A                      A                      A
 Frequencies --   1252.7922              1357.5343              1368.8506
 Red. masses --      2.1105                 1.3835                 1.2516
 Frc consts  --      1.9516                 1.5022                 1.3817
 IR Inten    --      6.7494                 6.9507                 8.9423

                     22                     23                     24
                      A                      A                      A
 Frequencies --   1409.0745              1427.0987              1470.0987
 Red. masses --      1.2816                 1.2552                 1.1534
 Frc consts  --      1.4992                 1.5062                 1.4686
 IR Inten    --      8.4632                 7.5100                 1.0890

                     25                     26                     27
                      A                      A                      A
 Frequencies --   1485.6909              1497.0577              1499.8624
 Red. masses --      1.1570                 1.0471                 1.0541
 Frc consts  --      1.5046                 1.3826                 1.3972
 IR Inten    --     12.2240                 2.9638                 0.5359

                     28                     29                     30
                      A                      A                      A
 Frequencies --   1509.3199              1521.6191              1525.2566
 Red. masses --      1.0583                 1.0940                 1.0601
 Frc consts  --      1.4204                 1.4924                 1.4531
 IR Inten    --      7.3907                 0.8393                11.5845

                     31                     32                     33
                      A                      A                      A
 Frequencies --   1535.2937              2961.5366              3017.1624
 Red. masses --      1.0514                 1.0579                 1.0835
 Frc consts  --      1.4602                 5.4666                 5.8114
 IR Inten    --      9.3584                84.2067                14.9449

                     34                     35                     36
                      A                      A                      A
 Frequencies --   3031.4095              3037.8847              3062.1404
 Red. masses --      1.0382                 1.0398                 1.0759
 Frc consts  --      5.6210                 5.6536                 5.9439
 IR Inten    --     20.1505                32.5181                47.1798

                     37                     38                     39
                      A                      A                      A
 Frequencies --   3097.5625              3106.2381              3107.6998
 Red. masses --      1.0998                 1.0984                 1.1017
 Frc consts  --      6.2171                 6.2445                 6.2687
 IR Inten    --      4.4462                45.3486                60.0913

                     40                     41                     42
                      A                      A                      A
 Frequencies --   3117.5112              3134.3988              3498.0549
 Red. masses --      1.1008                 1.1025                 1.0736
 Frc consts  --      6.3034                 6.3814                 7.7402
 IR Inten    --     34.4585                26.8301                 1.3604

 - Thermochemistry -
 -------------------
 Temperature   298.150 Kelvin.  Pressure   1.00000 Atm.
 Atom     1 has atomic number  6 and mass  12.00000

 Molecular mass:    73.08915 amu.
 Principal axes and moments of inertia in atomic units:
                           1         2         3
     Eigenvalues --   242.92307 509.48572 674.22348
           X            0.99980  -0.01915   0.00490
           Y            0.01914   0.99982   0.00186
           Z           -0.00494  -0.00176   0.99999
 This molecule is an asymmetric top.
 Rotational symmetry number  1.
 Rotational temperatures (Kelvin)      0.35655     0.17000     0.12846
 Rotational constants (GHZ):           7.42927     3.54228     2.67677
 Zero-point vibrational energy     391681.4 (Joules/Mol)
                                   93.61410 (Kcal/Mol)
 Warning -- explicit consideration of   8 degrees of freedom as
           vibrations may cause significant error
 Vibrational temperatures:    149.33   318.19   330.53   367.38   407.47
          (Kelvin)            523.27   637.27   694.54  1052.40  1207.34
                             1332.45  1336.22  1365.37  1531.69  1605.83
                             1647.08  1684.26  1726.25  1802.49  1953.19
                             1969.47  2027.34  2053.27  2115.14  2137.58
                             2153.93  2157.96  2171.57  2189.27  2194.50
                             2208.94  4260.99  4341.02  4361.52  4370.83
                             4405.73  4456.70  4469.18  4471.28  4485.40
                             4509.70  5032.91

 Zero-point correction=                           0.149184 (Hartree/Particle)
 Thermal correction to Energy=                    0.156064
 Thermal correction to Enthalpy=                  0.157008
 Thermal correction to Gibbs Free Energy=         0.119453
 Sum of electronic and zero-point Energies=           -213.662036
 Sum of electronic and thermal Energies=              -213.655156
 Sum of electronic and thermal Enthalpies=            -213.654212
 Sum of electronic and thermal Free Energies=         -213.691767

                     E (Thermal)             CV                S
                      KCal/Mol        Cal/Mol-Kelvin    Cal/Mol-Kelvin
 Total                   97.932             24.360             79.041
 Electronic               0.000              0.000              0.000
 Translational            0.889              2.981             38.784
 Rotational               0.889              2.981             25.926
 Vibrational             96.154             18.398             14.332
 Vibration     1          0.605              1.946              3.382
 Vibration     2          0.648              1.809              1.950
 Vibration     3          0.652              1.796              1.881
 Vibration     4          0.666              1.754              1.693
 Vibration     5          0.682              1.705              1.514
 Vibration     6          0.737              1.547              1.106
 Vibration     7          0.803              1.377              0.817
 Vibration     8          0.839              1.288              0.703

 Normal termination of Gaussian 09 at Fri Jul 23 18:00:03 2021.
