 Gaussian 09, Revision E.01,
 Gaussian 09:  ES64L-G09RevE.01 30-Nov-2015

 ----------------------------
 #P OPT Freq B3LYP/6-31G(d,p)
 ----------------------------

 ---------
 Frag_1058
 ---------
 Symbolic Z-matrix:
 Charge =  0 Multiplicity = 1

 SCF Done:  E(RB3LYP) =  -379.519176720     A.U. after   14 cycles
 SCF Done:  E(RB3LYP) =  -379.519233279     A.U. after   12 cycles
 SCF Done:  E(RB3LYP) =  -379.519114324     A.U. after   11 cycles
 SCF Done:  E(RB3LYP) =  -379.519297995     A.U. after    8 cycles
 SCF Done:  E(RB3LYP) =  -379.519323952     A.U. after    9 cycles
 SCF Done:  E(RB3LYP) =  -379.519328269     A.U. after    8 cycles
 SCF Done:  E(RB3LYP) =  -379.519328315     A.U. after   10 cycles
 SCF Done:  E(RB3LYP) =  -379.519331905     A.U. after    9 cycles
 SCF Done:  E(RB3LYP) =  -379.519332270     A.U. after    7 cycles
 Optimization completed.
    -- Stationary point found.
 Normal termination of Gaussian 09 at Thu Sep  8 14:46:34 2022.

 ----------------------------------------------------------------------
 #P Geom=AllCheck Guess=TCheck SCRF=Check GenChk RB3LYP/6-31G(d,p) Freq
 ----------------------------------------------------------------------

 Structure from the checkpoint file:  "B3LYP6-31Gdp.Frag_1058.chk"
 ---------
 Frag_1058
 ---------
 Charge =  0 Multiplicity = 1

                         Standard orientation:
 ---------------------------------------------------------------------
 Center     Atomic      Atomic             Coordinates (Angstroms)
 Number     Number       Type             X           Y           Z
 ---------------------------------------------------------------------
      1          8           0        1.319445    1.210159   -0.109856
      2          6           0        0.803532    0.127785    0.056594
      3          8           0        1.464387   -1.030821   -0.025646
      4          6           0       -0.697006   -0.009277    0.398460
      5          8           0       -1.385265    1.092350   -0.093511
      6          8           0       -1.205542   -1.221206   -0.130902
      7          1           0        0.792370   -1.738637    0.007213
      8          1           0       -0.803711   -0.106836    1.489907
      9          1           0       -0.705314    1.758033   -0.303098
     10          1           0       -1.466701   -1.027461   -1.045032
 ---------------------------------------------------------------------

 SCF Done:  E(RB3LYP) =  -379.519332270     A.U. after    1 cycles

 The electronic state is 1-A.
 Alpha  occ. eigenvalues --  -19.21459 -19.19043 -19.17628 -19.16122 -10.33562
 Alpha  occ. eigenvalues --  -10.31838  -1.12984  -1.08688  -1.04901  -1.02043
 Alpha  occ. eigenvalues --   -0.72419  -0.62859  -0.59243  -0.55658  -0.51322
 Alpha  occ. eigenvalues --   -0.46650  -0.44512  -0.44307  -0.40328  -0.36827
 Alpha  occ. eigenvalues --   -0.35621  -0.33545  -0.32114  -0.27716
 Alpha virt. eigenvalues --   -0.01665   0.05661   0.09727   0.10850   0.13384
 Alpha virt. eigenvalues --    0.17132   0.22123   0.23800   0.32007   0.38289
 Alpha virt. eigenvalues --    0.50692   0.52600   0.53448   0.58608   0.64421

 Mulliken charges:
               1
     1  O   -0.455666
     2  C    0.548748
     3  O   -0.468576
     4  C    0.317762
     5  O   -0.532486
     6  O   -0.536407
     7  H    0.340487
     8  H    0.133328
     9  H    0.332465
    10  H    0.320344
 Sum of Mulliken charges =  -0.00000

 Dipole moment (field-independent basis, Debye):
    X=             -1.1909    Y=             -1.5147    Z=             -0.4276  Tot=              1.9737
 Quadrupole moment (field-independent basis, Debye-Ang):
   XX=            -41.8408   YY=            -33.1966   ZZ=            -30.1672
   XY=             -1.4795   XZ=              2.2732   YZ=              0.9020

  Exact polarizability:  32.631   0.967  40.176   0.552  -1.049  25.452
 Approx polarizability:  44.379   3.388  64.687   0.820  -3.181  35.763

                      1                      2                      3
                      A                      A                      A
 Frequencies --     84.6203               271.7952               326.9326
 Red. masses --      8.0305                 5.6892                 3.4960
 Frc consts  --      0.0339                 0.2476                 0.2202
 IR Inten    --      4.8189                25.4200                26.2650

                      4                      5                      6
                      A                      A                      A
 Frequencies --    376.7494               445.6746               486.3006
 Red. masses --      1.2585                 1.8988                 2.2744
 Frc consts  --      0.1052                 0.2222                 0.3169
 IR Inten    --     70.8576               108.2309                 4.4297

                      7                      8                      9
                      A                      A                      A
 Frequencies --    542.0686               588.7841               710.4289
 Red. masses --      6.1451                 3.1335                 1.1369
 Frc consts  --      1.0639                 0.6400                 0.3381
 IR Inten    --      2.0979                47.7739                80.2901

                     10                     11                     12
                      A                      A                      A
 Frequencies --    759.9337               906.1019              1041.8342
 Red. masses --      5.7068                 5.3818                 3.7048
 Frc consts  --      1.9418                 2.6033                 2.3693
 IR Inten    --     16.6594                 6.5357               122.7557

                     13                     14                     15
                      A                      A                      A
 Frequencies --   1138.7926              1226.9500              1278.7118
 Red. masses --      3.3751                 2.1382                 1.3630
 Frc consts  --      2.5788                 1.8965                 1.3130
 IR Inten    --    181.4484                15.2742                23.5285

                     16                     17                     18
                      A                      A                      A
 Frequencies --   1306.7651              1372.9897              1425.3104
 Red. masses --      1.2569                 1.5501                 1.3284
 Frc consts  --      1.2646                 1.7217                 1.5900
 IR Inten    --      3.1541               538.2523                29.5736

                     19                     20                     21
                      A                      A                      A
 Frequencies --   1462.0169              1867.8152              3015.0355
 Red. masses --      1.7608                 9.8939                 1.0836
 Frc consts  --      2.2175                20.3369                 5.8036
 IR Inten    --     32.2813               216.0601                39.0367

                     22                     23                     24
                      A                      A                      A
 Frequencies --   3670.5207              3695.7581              3776.1924
 Red. masses --      1.0645                 1.0652                 1.0652
 Frc consts  --      8.4501                 8.5725                 8.9492
 IR Inten    --    106.7812                94.7399                42.0399

 - Thermochemistry -
 -------------------
 Temperature   298.150 Kelvin.  Pressure   1.00000 Atm.
 Atom     1 has atomic number  8 and mass  15.99491

 Molecular mass:    92.01096 amu.
 Principal axes and moments of inertia in atomic units:
                           1         2         3
     Eigenvalues --   345.48789 498.44377 801.16789
           X            0.99972  -0.02319   0.00426
           Y            0.02317   0.99972   0.00425
           Z           -0.00436  -0.00415   0.99998
 This molecule is an asymmetric top.
 Rotational symmetry number  1.
 Rotational temperatures (Kelvin)      0.25070     0.17377     0.10811
 Rotational constants (GHZ):           5.22375     3.62075     2.25264
 Zero-point vibrational energy     190075.1 (Joules/Mol)
                                   45.42905 (Kcal/Mol)
 Warning -- explicit consideration of   8 degrees of freedom as
           vibrations may cause significant error
 Vibrational temperatures:    121.75   391.05   470.38   542.06   641.23
          (Kelvin)            699.68   779.91   847.13  1022.15  1093.37
                             1303.68  1498.97  1638.47  1765.31  1839.78
                             1880.14  1975.42  2050.70  2103.51  2687.37
                             4337.96  5281.05  5317.36  5433.09

 Zero-point correction=                           0.072396 (Hartree/Particle)
 Thermal correction to Energy=                    0.078397
 Thermal correction to Enthalpy=                  0.079342
 Thermal correction to Gibbs Free Energy=         0.042722
 Sum of electronic and zero-point Energies=           -379.446936
 Sum of electronic and thermal Energies=              -379.440935
 Sum of electronic and thermal Enthalpies=            -379.439991
 Sum of electronic and thermal Free Energies=         -379.476610

                     E (Thermal)             CV                S
                      KCal/Mol        Cal/Mol-Kelvin    Cal/Mol-Kelvin
 Total                   49.195             21.064             77.072
 Electronic               0.000              0.000              0.000
 Translational            0.889              2.981             39.470
 Rotational               0.889              2.981             26.426
 Vibrational             47.418             15.102             11.176
 Vibration     1          0.601              1.960              3.781
 Vibration     2          0.675              1.725              1.585
 Vibration     3          0.711              1.622              1.275
 Vibration     4          0.747              1.520              1.052
 Vibration     5          0.805              1.370              0.809
 Vibration     6          0.842              1.280              0.693
 Vibration     7          0.897              1.157              0.561
 Vibration     8          0.946              1.056              0.469

 Normal termination of Gaussian 09 at Thu Sep  8 14:46:43 2022.
