 Gaussian 09, Revision D.01,
 Gaussian 09:  ES64L-G09RevD.01 24-Apr-2013

 -------------------------
 #P OPT Freq B3LYP/6-31G**
 -------------------------

 -------
 Frag_32
 -------
 Symbolic Z-matrix:
 Charge =  0 Multiplicity = 1

 SCF Done:  E(RB3LYP) =  -323.655449417     A.U. after   15 cycles
 Optimization completed.
    -- Stationary point found.
 Normal termination of Gaussian 09 at Fri Jul 23 01:55:54 2021.

 ----------------------------------------------------------------------
 #P Geom=AllCheck Guess=TCheck SCRF=Check GenChk RB3LYP/6-31G(d,p) Freq
 ----------------------------------------------------------------------

 Structure from the checkpoint file:  "/vol2/users/liuj201281/HOFBenchmark/IsodesmicSplit/Sample60/Ring26/Running/Gau-164495.chk"
 -------
 Frag_32
 -------
 Charge =  0 Multiplicity = 1

                         Standard orientation:
 ---------------------------------------------------------------------
 Center     Atomic      Atomic             Coordinates (Angstroms)
 Number     Number       Type             X           Y           Z
 ---------------------------------------------------------------------
      1          6           0       -1.271709    1.276993    0.023998
      2          6           0       -0.596502    0.000597   -0.472002
      3          6           0       -1.272295   -1.276607    0.021198
      4          7           0        0.847898   -0.000195    0.015198
      5          8           0        1.732598    0.001410   -0.835302
      6          8           0        1.028898   -0.002294    1.230398
      7          1           0       -0.749215    2.167996   -0.335502
      8          1           0       -2.299210    1.309787   -0.349002
      9          1           0       -1.292710    1.296893    1.116098
     10          1           0       -0.499502    0.001797   -1.558702
     11          1           0       -2.299895   -1.308013   -0.351902
     12          1           0       -1.293295   -1.298907    1.113098
     13          1           0       -0.750390   -2.167004   -0.340402
 ---------------------------------------------------------------------

 SCF Done:  E(RB3LYP) =  -323.655449417     A.U. after    1 cycles

 The electronic state is 1-A.
 Alpha  occ. eigenvalues --  -19.18233 -19.18132 -14.56342 -10.25652 -10.20375
 Alpha  occ. eigenvalues --  -10.20373  -1.22117  -1.05083  -0.84634  -0.71663
 Alpha  occ. eigenvalues --   -0.69923  -0.58202  -0.53453  -0.52854  -0.50809
 Alpha  occ. eigenvalues --   -0.47188  -0.42418  -0.42331  -0.40914  -0.37421
 Alpha  occ. eigenvalues --   -0.37316  -0.30911  -0.29612  -0.28918
 Alpha virt. eigenvalues --   -0.06262   0.08068   0.10278   0.12585   0.13526
 Alpha virt. eigenvalues --    0.15570   0.16176   0.17179   0.17339   0.18560
 Alpha virt. eigenvalues --    0.23796   0.28360   0.37126   0.47383   0.49354

 Mulliken charges:
               1
     1  C   -0.320904
     2  C    0.021379
     3  C   -0.320902
     4  N    0.453181
     5  O   -0.376958
     6  O   -0.377542
     7  H    0.128742
     8  H    0.121534
     9  H    0.142218
    10  H    0.136770
    11  H    0.121492
    12  H    0.142254
    13  H    0.128735
 Sum of Mulliken charges =   0.00000

 Dipole moment (field-independent basis, Debye):
    X=             -3.6084    Y=              0.0016    Z=             -0.9086  Tot=              3.7210
 Quadrupole moment (field-independent basis, Debye-Ang):
   XX=            -38.9789   YY=            -33.5723   ZZ=            -38.2969
   XY=             -0.0009   XZ=              0.4859   YZ=              0.0082

  Exact polarizability:  49.410   0.006  40.891  -2.428  -0.015  47.518
 Approx polarizability:  68.426   0.020  52.093 -10.341  -0.071  91.463

                      1                      2                      3
                      A                      A                      A
 Frequencies --     28.7563               216.6084               250.4798
 Red. masses --      5.4497                 1.0684                 1.0695
 Frc consts  --      0.0027                 0.0295                 0.0395
 IR Inten    --      0.0295                 0.3285                 0.4390

                      4                      5                      6
                      A                      A                      A
 Frequencies --    267.3491               305.5383               340.1050
 Red. masses --      2.9769                 3.1850                 2.8259
 Frc consts  --      0.1254                 0.1752                 0.1926
 IR Inten    --      5.8560                 2.6420                 0.1016

                      7                      8                      9
                      A                      A                      A
 Frequencies --    529.9890               636.2497               745.1123
 Red. masses --      4.1529                 2.8341                 6.5575
 Frc consts  --      0.6873                 0.6760                 2.1450
 IR Inten    --      6.1795                 5.0803                 1.6023

                     10                     11                     12
                      A                      A                      A
 Frequencies --    857.4190               912.6254               951.0153
 Red. masses --      4.8908                 3.0574                 1.1555
 Frc consts  --      2.1184                 1.5003                 0.6157
 IR Inten    --     21.4840                 5.8646                 1.9801

                     13                     14                     15
                      A                      A                      A
 Frequencies --    966.5613              1127.2743              1151.2594
 Red. masses --      1.5086                 1.5606                 2.2299
 Frc consts  --      0.8304                 1.1684                 1.7413
 IR Inten    --      0.0498                15.9475                 2.0805

                     16                     17                     18
                      A                      A                      A
 Frequencies --   1207.9528              1329.0335              1368.7577
 Red. masses --      1.9003                 1.3368                 1.3719
 Frc consts  --      1.6337                 1.3912                 1.5143
 IR Inten    --      2.0556                19.5618                 1.8218

                     19                     20                     21
                      A                      A                      A
 Frequencies --   1408.8363              1411.7456              1451.9953
 Red. masses --      2.1140                 1.2766                 2.3555
 Frc consts  --      2.4722                 1.4991                 2.9259
 IR Inten    --     33.0455                 6.9066                64.5696

                     22                     23                     24
                      A                      A                      A
 Frequencies --   1495.1966              1503.8072              1509.8682
 Red. masses --      1.0431                 1.0456                 1.0502
 Frc consts  --      1.3739                 1.3931                 1.4106
 IR Inten    --      1.7562                 0.3574                14.2554

                     25                     26                     27
                      A                      A                      A
 Frequencies --   1527.6634              1668.1746              3059.6114
 Red. masses --      1.0556                 9.6637                 1.0345
 Frc consts  --      1.4514                15.8445                 5.7060
 IR Inten    --     14.7811               217.5665                15.0126

                     28                     29                     30
                      A                      A                      A
 Frequencies --   3062.5582              3123.9523              3134.1423
 Red. masses --      1.0354                 1.0893                 1.1033
 Frc consts  --      5.7215                 6.2632                 6.3852
 IR Inten    --      6.7529                 0.7504                 9.8248

                     31                     32                     33
                      A                      A                      A
 Frequencies --   3136.3378              3149.6981              3157.6260
 Red. masses --      1.1031                 1.1040                 1.1009
 Frc consts  --      6.3933                 6.4529                 6.4674
 IR Inten    --     19.1158                 2.8562                18.4103

 - Thermochemistry -
 -------------------
 Temperature   298.150 Kelvin.  Pressure   1.00000 Atm.
 Atom     1 has atomic number  6 and mass  12.00000

 Molecular mass:    89.04768 amu.
 Principal axes and moments of inertia in atomic units:
                           1         2         3
     Eigenvalues --   353.29276 628.82162 671.51509
           X            1.00000   0.00001   0.00098
           Y           -0.00001   1.00000   0.00100
           Z           -0.00098  -0.00100   1.00000
 This molecule is an asymmetric top.
 Rotational symmetry number  1.
 Rotational temperatures (Kelvin)      0.24516     0.13774     0.12898
 Rotational constants (GHZ):           5.10834     2.87004     2.68757
 Zero-point vibrational energy     281082.4 (Joules/Mol)
                                   67.18029 (Kcal/Mol)
 Warning -- explicit consideration of   7 degrees of freedom as
           vibrations may cause significant error
 Vibrational temperatures:     41.37   311.65   360.38   384.66   439.60
          (Kelvin)            489.33   762.54   915.42  1072.05  1233.63
                             1313.06  1368.30  1390.66  1621.89  1656.40
                             1737.97  1912.18  1969.33  2027.00  2031.18
                             2089.09  2151.25  2163.64  2172.36  2197.96
                             2400.13  4402.09  4406.33  4494.66  4509.33
                             4512.48  4531.71  4543.11

 Zero-point correction=                           0.107059 (Hartree/Particle)
 Thermal correction to Energy=                    0.113801
 Thermal correction to Enthalpy=                  0.114745
 Thermal correction to Gibbs Free Energy=         0.075898
 Sum of electronic and zero-point Energies=           -323.548391
 Sum of electronic and thermal Energies=              -323.541649
 Sum of electronic and thermal Enthalpies=            -323.540705
 Sum of electronic and thermal Free Energies=         -323.579552

                     E (Thermal)             CV                S
                      KCal/Mol        Cal/Mol-Kelvin    Cal/Mol-Kelvin
 Total                   71.411             22.867             81.760
 Electronic               0.000              0.000              0.000
 Translational            0.889              2.981             39.372
 Rotational               0.889              2.981             26.503
 Vibrational             69.633             16.905             15.885
 Vibration     1          0.593              1.984              5.913
 Vibration     2          0.645              1.816              1.987
 Vibration     3          0.663              1.762              1.727
 Vibration     4          0.672              1.733              1.613
 Vibration     5          0.696              1.663              1.386
 Vibration     6          0.720              1.595              1.212
 Vibration     7          0.885              1.184              0.587

 Optimization completed.
    -- Stationary point found.
 Normal termination of Gaussian 09 at Fri Jul 23 01:56:07 2021.
