 Gaussian 09, Revision D.01,
 Gaussian 09:  ES64L-G09RevD.01 24-Apr-2013

 -------------------------
 #P OPT Freq B3LYP/6-31G**
 -------------------------

 -------
 Frag_97
 -------
 Symbolic Z-matrix:
 Charge =  0 Multiplicity = 1

 SCF Done:  E(RB3LYP) =  -269.581791403     A.U. after   12 cycles
 Optimization completed.
    -- Stationary point found.

 1\1\GINC-FN12\FOpt\RB3LYP\6-31G(d,p)\C3H8O2\LIUJ201281\23-Jul-2021\0\\
 #P OPT Freq B3LYP/6-31G**\\Frag_97\\0,1\C,1.9265,-0.1431,0.0613\O,0.64
 34,-0.6269,-0.311\C,-0.4212,0.04,0.3287\C,-1.6922,-0.7169,-0.022\O,-0.
 4876,1.4055,-0.033\H,2.0396,0.9216,-0.1716\H,2.6602,-0.7208,-0.5048\H,
 2.1114,-0.2874,1.1365\H,-0.2579,0.0587,1.4171\H,-1.635,-1.7508,0.3277\
 H,-2.557,-0.2298,0.4346\H,-1.8263,-0.7347,-1.1094\H,-0.6597,1.4341,-0.
 9859\\Version=ES64L-G09RevD.01\State=1-A\HF=-269.5817914\RMSD=6.416e-0
 9\RMSF=2.812e-05\Dipole=-0.0000243,-0.0927573,-0.1290629\Quadrupole=1.

 Normal termination of Gaussian 09 at Fri Jul 23 05:56:07 2021.

 ----------------------------------------------------------------------
 #P Geom=AllCheck Guess=TCheck SCRF=Check GenChk RB3LYP/6-31G(d,p) Freq
 ----------------------------------------------------------------------

 Structure from the checkpoint file:  "/vol2/users/liuj201281/HOFBenchmark/IsodesmicSplit/Sample60/Ring26/Running/Gau-44862.chk"
 -------
 Frag_97
 -------
 Charge =  0 Multiplicity = 1

                         Standard orientation:
 ---------------------------------------------------------------------
 Center     Atomic      Atomic             Coordinates (Angstroms)
 Number     Number       Type             X           Y           Z
 ---------------------------------------------------------------------
      1          6           0        1.926492   -0.143111    0.061295
      2          8           0        0.643387   -0.626899   -0.311005
      3          6           0       -0.421207    0.040011    0.328695
      4          6           0       -1.692214   -0.716877   -0.022005
      5          8           0       -0.487594    1.405512   -0.033005
      6          1           0        2.039602    0.921588   -0.171605
      7          1           0        2.660186   -0.720818   -0.504805
      8          1           0        2.111390   -0.287413    1.136495
      9          1           0       -0.257907    0.058710    1.417095
     10          1           0       -1.635024   -1.750777    0.327695
     11          1           0       -2.557009   -0.229769    0.434595
     12          1           0       -1.826314   -0.734676   -1.109405
     13          1           0       -0.659694    1.434113   -0.985905
 ---------------------------------------------------------------------

 SCF Done:  E(RB3LYP) =  -269.581791403     A.U. after    1 cycles

 The electronic state is 1-A.
 Alpha  occ. eigenvalues --  -19.14777 -19.14734 -10.27937 -10.22297 -10.17796
 Alpha  occ. eigenvalues --   -1.05886  -0.99374  -0.75295  -0.67554  -0.61518
 Alpha  occ. eigenvalues --   -0.51544  -0.48287  -0.46277  -0.42449  -0.42184
 Alpha  occ. eigenvalues --   -0.38191  -0.37341  -0.36728  -0.30672  -0.28770
 Alpha  occ. eigenvalues --   -0.26392
 Alpha virt. eigenvalues --    0.08347   0.11006   0.12869   0.14773   0.15730
 Alpha virt. eigenvalues --    0.16501   0.17837   0.18275   0.18813   0.23751
 Alpha virt. eigenvalues --    0.26414   0.27221   0.50663   0.52273   0.54641

 Mulliken charges:
               1
     1  C   -0.070922
     2  O   -0.479752
     3  C    0.371222
     4  C   -0.333608
     5  O   -0.527473
     6  H    0.110955
     7  H    0.111807
     8  H    0.091708
     9  H    0.084596
    10  H    0.118532
    11  H    0.115991
    12  H    0.106534
    13  H    0.300409
 Sum of Mulliken charges =   0.00000

 Dipole moment (field-independent basis, Debye):
    X=             -0.0001    Y=             -0.2358    Z=             -0.3280  Tot=              0.4040
 Quadrupole moment (field-independent basis, Debye-Ang):
   XX=            -28.0263   YY=            -34.2994   ZZ=            -29.4328
   XY=              0.7262   XZ=              1.1502   YZ=             -2.7924

  Exact polarizability:  46.452  -0.114  38.013   0.411  -1.213  38.195
 Approx polarizability:  53.299  -1.448  52.676   0.467  -0.332  53.769

                      1                      2                      3
                      A                      A                      A
 Frequencies --    126.1626               186.6269               238.4041
 Red. masses --      1.7082                 1.4344                 1.0952
 Frc consts  --      0.0160                 0.0294                 0.0367
 IR Inten    --      3.8133                 3.2813                 0.5134

                      4                      5                      6
                      A                      A                      A
 Frequencies --    284.8102               357.2557               397.0722
 Red. masses --      2.5640                 1.2966                 2.1356
 Frc consts  --      0.1225                 0.0975                 0.1984
 IR Inten    --      2.1807                63.9066                50.3541

                      7                      8                      9
                      A                      A                      A
 Frequencies --    537.3896               570.8481               847.3537
 Red. masses --      2.5258                 3.8916                 2.3415
 Frc consts  --      0.4298                 0.7472                 0.9905
 IR Inten    --     12.7098                33.2470                 8.8877

                     10                     11                     12
                      A                      A                      A
 Frequencies --    922.8420              1060.1595              1081.1511
 Red. masses --      2.2935                 1.7754                 2.7052
 Frc consts  --      1.1508                 1.1757                 1.8631
 IR Inten    --     49.6608                79.1568                21.2767

                     13                     14                     15
                      A                      A                      A
 Frequencies --   1132.6436              1158.3434              1181.4203
 Red. masses --      1.9609                 3.9591                 1.2898
 Frc consts  --      1.4821                 3.1299                 1.0606
 IR Inten    --    125.0948               155.4214                 0.9502

                     16                     17                     18
                      A                      A                      A
 Frequencies --   1225.1247              1318.1612              1386.4042
 Red. masses --      1.5966                 1.4999                 1.2396
 Frc consts  --      1.4119                 1.5355                 1.4038
 IR Inten    --     31.0731                10.1881                24.2230

                     19                     20                     21
                      A                      A                      A
 Frequencies --   1422.1778              1444.1928              1483.7306
 Red. masses --      1.2231                 1.3491                 1.1448
 Frc consts  --      1.4576                 1.6579                 1.4848
 IR Inten    --     25.6678                62.1029                 3.5511

                     22                     23                     24
                      A                      A                      A
 Frequencies --   1497.3986              1499.2681              1510.0867
 Red. masses --      1.0505                 1.0504                 1.0659
 Frc consts  --      1.3877                 1.3911                 1.4321
 IR Inten    --      0.8904                 4.0925                 6.1810

                     25                     26                     27
                      A                      A                      A
 Frequencies --   1527.5191              3002.1704              3015.1067
 Red. masses --      1.0549                 1.0465                 1.0820
 Frc consts  --      1.4503                 5.5574                 5.7952
 IR Inten    --      5.6794                39.9996                67.3403

                     28                     29                     30
                      A                      A                      A
 Frequencies --   3052.3867              3079.5217              3128.0788
 Red. masses --      1.0376                 1.0931                 1.0995
 Frc consts  --      5.6960                 6.1074                 6.3387
 IR Inten    --     12.3429                43.3766                27.3796

                     31                     32                     33
                      A                      A                      A
 Frequencies --   3138.5387              3148.9574              3782.1687
 Red. masses --      1.1021                 1.1041                 1.0653
 Frc consts  --      6.3963                 6.4504                 8.9785
 IR Inten    --     27.0430                18.8875                12.5386

 - Thermochemistry -
 -------------------
 Temperature   298.150 Kelvin.  Pressure   1.00000 Atm.
 Atom     1 has atomic number  6 and mass  12.00000

 Molecular mass:    76.05243 amu.
 Principal axes and moments of inertia in atomic units:
                           1         2         3
     Eigenvalues --   215.67512 462.69203 614.20002
           X            0.99886   0.04626   0.01134
           Y           -0.04591   0.99850  -0.02987
           Z           -0.01270   0.02932   0.99949
 This molecule is an asymmetric top.
 Rotational symmetry number  1.
 Rotational temperatures (Kelvin)      0.40159     0.18720     0.14102
 Rotational constants (GHZ):           8.36787     3.90052     2.93836
 Zero-point vibrational energy     297532.1 (Joules/Mol)
                                   71.11187 (Kcal/Mol)
 Warning -- explicit consideration of   8 degrees of freedom as
           vibrations may cause significant error
 Vibrational temperatures:    181.52   268.51   343.01   409.78   514.01
          (Kelvin)            571.30   773.18   821.32  1219.15  1327.76
                             1525.33  1555.53  1629.62  1666.60  1699.80
                             1762.68  1896.54  1994.72  2046.19  2077.87
                             2134.75  2154.42  2157.11  2172.68  2197.76
                             4319.45  4338.06  4391.70  4430.74  4500.60
                             4515.65  4530.64  5441.69

 Zero-point correction=                           0.113324 (Hartree/Particle)
 Thermal correction to Energy=                    0.119709
 Thermal correction to Enthalpy=                  0.120653
 Thermal correction to Gibbs Free Energy=         0.084046
 Sum of electronic and zero-point Energies=           -269.468467
 Sum of electronic and thermal Energies=              -269.462083
 Sum of electronic and thermal Enthalpies=            -269.461139
 Sum of electronic and thermal Free Energies=         -269.497746

                     E (Thermal)             CV                S
                      KCal/Mol        Cal/Mol-Kelvin    Cal/Mol-Kelvin
 Total                   75.118             21.891             77.046
 Electronic               0.000              0.000              0.000
 Translational            0.889              2.981             38.902
 Rotational               0.889              2.981             25.619
 Vibrational             73.341             15.929             12.525
 Vibration     1          0.611              1.927              3.004
 Vibration     2          0.632              1.858              2.261
 Vibration     3          0.656              1.782              1.815
 Vibration     4          0.683              1.702              1.505
 Vibration     5          0.732              1.560              1.134
 Vibration     6          0.764              1.476              0.973
 Vibration     7          0.892              1.167              0.571
 Vibration     8          0.927              1.094              0.503

 1\1\GINC-FN12\Freq\RB3LYP\6-31G(d,p)\C3H8O2\LIUJ201281\23-Jul-2021\0\\
 #P Geom=AllCheck Guess=TCheck SCRF=Check GenChk RB3LYP/6-31G(d,p) Freq
 \\Frag_97\\0,1\C,1.9265,-0.1431,0.0613\O,0.6434,-0.6269,-0.311\C,-0.42
 12,0.04,0.3287\C,-1.6922,-0.7169,-0.022\O,-0.4876,1.4055,-0.033\H,2.03
 96,0.9216,-0.1716\H,2.6602,-0.7208,-0.5048\H,2.1114,-0.2874,1.1365\H,-
 0.2579,0.0587,1.4171\H,-1.635,-1.7508,0.3277\H,-2.557,-0.2298,0.4346\H
 ,-1.8263,-0.7347,-1.1094\H,-0.6597,1.4341,-0.9859\\Version=ES64L-G09Re
 vD.01\State=1-A\HF=-269.5817914\RMSD=5.384e-09\RMSF=2.812e-05\ZeroPoin

 Normal termination of Gaussian 09 at Fri Jul 23 05:56:18 2021.
