 Gaussian 09, Revision E.01,
 Gaussian 09:  ES64L-G09RevE.01 30-Nov-2015

 --------------------------------
 #P OPT=calcfc Freq B3LYP/6-31G**
 --------------------------------

 --------
 Frag_212
 --------
 Symbolic Z-matrix:
 Charge =  0 Multiplicity = 1

 SCF Done:  E(RB3LYP) =  -225.211555967     A.U. after   14 cycles
 SCF Done:  E(RB3LYP) =  -225.230942224     A.U. after   13 cycles
 SCF Done:  E(RB3LYP) =  -225.230589275     A.U. after   12 cycles
 SCF Done:  E(RB3LYP) =  -225.231149956     A.U. after   11 cycles
 SCF Done:  E(RB3LYP) =  -225.233392544     A.U. after   13 cycles
 SCF Done:  E(RB3LYP) =  -225.233290446     A.U. after   13 cycles
 SCF Done:  E(RB3LYP) =  -225.233679978     A.U. after   10 cycles
 SCF Done:  E(RB3LYP) =  -225.224107603     A.U. after   14 cycles
 SCF Done:  E(RB3LYP) =  -225.234325409     A.U. after   11 cycles
 SCF Done:  E(RB3LYP) =  -225.234627556     A.U. after   11 cycles
 SCF Done:  E(RB3LYP) =  -225.234133535     A.U. after   12 cycles
 SCF Done:  E(RB3LYP) =  -225.234857977     A.U. after   10 cycles
 SCF Done:  E(RB3LYP) =  -225.235046086     A.U. after   11 cycles
 SCF Done:  E(RB3LYP) =  -225.235066677     A.U. after    9 cycles
 SCF Done:  E(RB3LYP) =  -225.235069524     A.U. after    9 cycles
 SCF Done:  E(RB3LYP) =  -225.235069940     A.U. after    8 cycles
 Optimization completed.
    -- Stationary point found.
 Normal termination of Gaussian 09 at Sat Aug 21 02:21:34 2021.

 ----------------------------------------------------------------------
 #P Geom=AllCheck Guess=TCheck SCRF=Check GenChk RB3LYP/6-31G(d,p) Freq
 ----------------------------------------------------------------------

 Structure from the checkpoint file:  "/public/home/users/caep010/.cache/gau_scr/Gau-58708.chk"
 --------
 Frag_212
 --------
 Charge =  0 Multiplicity = 1

                         Standard orientation:
 ---------------------------------------------------------------------
 Center     Atomic      Atomic             Coordinates (Angstroms)
 Number     Number       Type             X           Y           Z
 ---------------------------------------------------------------------
      1          7           0        1.347188   -0.423252    0.004089
      2          6           0        0.128477   -0.067029   -0.001274
      3          7           0       -0.420083    1.222970    0.077933
      4          8           0       -0.834450   -1.030659   -0.045001
      5          1           0        1.960564    0.388091   -0.071454
      6          1           0       -1.186221    1.385805   -0.566432
      7          1           0        0.264403    1.966564    0.031677
      8          1           0       -1.623737   -0.691043    0.399704
 ---------------------------------------------------------------------

 SCF Done:  E(RB3LYP) =  -225.235069940     A.U. after    1 cycles

 The electronic state is 1-A.
 Alpha  occ. eigenvalues --  -19.17857 -14.36177 -14.29226 -10.30553  -1.07555
 Alpha  occ. eigenvalues --   -0.92580  -0.85768  -0.61769  -0.55655  -0.52877
 Alpha  occ. eigenvalues --   -0.46574  -0.42628  -0.36977  -0.31096  -0.26634
 Alpha  occ. eigenvalues --   -0.24770
 Alpha virt. eigenvalues --    0.04457   0.05024   0.10442   0.11220   0.16023
 Alpha virt. eigenvalues --    0.24094   0.31087   0.46487   0.56014   0.58167
 Alpha virt. eigenvalues --    0.60791   0.62211   0.67201   0.70935   0.75567

 Mulliken charges:
               1
     1  N   -0.533072
     2  C    0.592174
     3  N   -0.625277
     4  O   -0.489246
     5  H    0.210167
     6  H    0.264217
     7  H    0.262250
     8  H    0.318788
 Sum of Mulliken charges =  -0.00000

 Dipole moment (field-independent basis, Debye):
    X=             -2.1323    Y=              3.8504    Z=             -0.4546  Tot=              4.4248
 Quadrupole moment (field-independent basis, Debye-Ang):
   XX=            -20.3738   YY=            -23.5622   ZZ=            -24.2652
   XY=              3.4813   XZ=             -0.1789   YZ=             -2.2750

  Exact polarizability:  38.186  -1.115  28.904   0.026  -0.352  14.549
 Approx polarizability:  59.128  -4.056  40.369   0.101   0.536  20.113

                      1                      2                      3
                      A                      A                      A
 Frequencies --    350.8516               430.3974               503.9366
 Red. masses --      1.1094                 1.1392                 2.4835
 Frc consts  --      0.0805                 0.1243                 0.3716
 IR Inten    --     36.0456               121.5688                10.1082

                      4                      5                      6
                      A                      A                      A
 Frequencies --    571.6992               617.6627               722.7171
 Red. masses --      4.0856                 1.5549                 2.4697
 Frc consts  --      0.7868                 0.3495                 0.7600
 IR Inten    --     10.8911               117.1085                82.6317

                      7                      8                      9
                      A                      A                      A
 Frequencies --    825.0417               952.3435              1108.1016
 Red. masses --      1.2305                 6.0522                 1.6332
 Frc consts  --      0.4935                 3.2341                 1.1816
 IR Inten    --    151.5702                33.3204               127.7039

                     10                     11                     12
                      A                      A                      A
 Frequencies --   1128.0860              1254.5760              1423.3531
 Red. masses --      1.2903                 1.3123                 2.8455
 Frc consts  --      0.9674                 1.2169                 3.3965
 IR Inten    --     14.1123               119.3029               217.7291

                     13                     14                     15
                      A                      A                      A
 Frequencies --   1647.4106              1790.9913              3509.7839
 Red. masses --      1.1525                 6.2185                 1.0758
 Frc consts  --      1.8429                11.7522                 7.8084
 IR Inten    --     61.5710               284.0461                 4.7948

                     16                     17                     18
                      A                      A                      A
 Frequencies --   3541.3987              3654.4729              3806.0165
 Red. masses --      1.0495                 1.0963                 1.0653
 Frc consts  --      7.7550                 8.6263                 9.0923
 IR Inten    --      8.4565                11.1260                36.1614

 - Thermochemistry -
 -------------------
 Temperature   298.150 Kelvin.  Pressure   1.00000 Atm.
 Atom     1 has atomic number  7 and mass  14.00307

 Molecular mass:    60.03236 amu.
 Principal axes and moments of inertia in atomic units:
                           1         2         3
     Eigenvalues --   167.35167 172.74965 335.92821
           X            0.79535   0.60615  -0.00261
           Y           -0.60605   0.79512  -0.02229
           Z           -0.01144   0.01932   0.99975
 This molecule is an asymmetric top.
 Rotational symmetry number  1.
 Rotational temperatures (Kelvin)      0.51756     0.50138     0.25783
 Rotational constants (GHZ):          10.78412    10.44715     5.37240
 Zero-point vibrational energy     166513.2 (Joules/Mol)
                                   39.79762 (Kcal/Mol)
 Warning -- explicit consideration of   5 degrees of freedom as
           vibrations may cause significant error
 Vibrational temperatures:    504.80   619.25   725.05   822.55   888.68
          (Kelvin)           1039.83  1187.05  1370.21  1594.31  1623.06
                             1805.05  2047.89  2370.25  2576.83  5049.79
                             5095.28  5257.96  5476.00

 Zero-point correction=                           0.063422 (Hartree/Particle)
 Thermal correction to Energy=                    0.067734
 Thermal correction to Enthalpy=                  0.068678
 Thermal correction to Gibbs Free Energy=         0.037162
 Sum of electronic and zero-point Energies=           -225.171648
 Sum of electronic and thermal Energies=              -225.167336
 Sum of electronic and thermal Enthalpies=            -225.166392
 Sum of electronic and thermal Free Energies=         -225.197908

                     E (Thermal)             CV                S
                      KCal/Mol        Cal/Mol-Kelvin    Cal/Mol-Kelvin
 Total                   42.504             14.967             66.331
 Electronic               0.000              0.000              0.000
 Translational            0.889              2.981             38.197
 Rotational               0.889              2.981             23.789
 Vibrational             40.726              9.005              4.346
 Vibration     1          0.728              1.574              1.162
 Vibration     2          0.792              1.404              0.857
 Vibration     3          0.859              1.241              0.648
 Vibration     4          0.928              1.092              0.501
 Vibration     5          0.977              0.995              0.420

 Optimization completed.
    -- Stationary point found.
 Normal termination of Gaussian 09 at Sat Aug 21 02:21:40 2021.
