 Gaussian 09, Revision D.01,
 Gaussian 09:  ES64L-G09RevD.01 24-Apr-2013

 -------------------------
 #P OPT Freq B3LYP/6-31G**
 -------------------------

 -------
 Frag_19
 -------
 Symbolic Z-matrix:
 Charge =  0 Multiplicity = 1

 SCF Done:  E(RB3LYP) =  -117.904156427     A.U. after   10 cycles
 Optimization completed.
    -- Stationary point found.
 Normal termination of Gaussian 09 at Thu Jul 22 14:20:49 2021.

 ----------------------------------------------------------------------
 #P Geom=AllCheck Guess=TCheck SCRF=Check GenChk RB3LYP/6-31G(d,p) Freq
 ----------------------------------------------------------------------

 Structure from the checkpoint file:  "/vol2/users/liuj201281/HOFBenchmark/IsodesmicSplit/Sample60/Ring26/Running/Gau-317696.chk"
 -------
 Frag_19
 -------
 Charge =  0 Multiplicity = 1

                         Standard orientation:
 ---------------------------------------------------------------------
 Center     Atomic      Atomic             Coordinates (Angstroms)
 Number     Number       Type             X           Y           Z
 ---------------------------------------------------------------------
      1          6           0        0.754313   -0.435501    0.000000
      2          6           0        0.000000    0.870992    0.000000
      3          6           0       -0.754387   -0.435516    0.000000
      4          1           0        1.266215   -0.730796    0.910900
      5          1           0        1.266215   -0.730796   -0.910900
      6          1           0        0.000094    1.461892    0.910900
      7          1           0        0.000094    1.461892   -0.910900
      8          1           0       -1.266085   -0.731020    0.910900
      9          1           0       -1.266085   -0.731020   -0.910900
 ---------------------------------------------------------------------

 SCF Done:  E(RB3LYP) =  -117.904156427     A.U. after    1 cycles

 The electronic state is 1-A'.
 Alpha  occ. eigenvalues --  -10.18235 -10.18198 -10.18197  -0.84197  -0.59137
 Alpha  occ. eigenvalues --   -0.59134  -0.48655  -0.45994  -0.35803  -0.35800
 Alpha  occ. eigenvalues --   -0.28803  -0.28802
 Alpha virt. eigenvalues --    0.10544   0.11040   0.15414   0.15639   0.15642
 Alpha virt. eigenvalues --    0.23237   0.23239   0.26183   0.26185   0.46916
 Alpha virt. eigenvalues --    0.54283   0.56007   0.56011   0.63176   0.63181

 Mulliken charges:
               1
     1  C   -0.218707
     2  C   -0.218599
     3  C   -0.218700
     4  H    0.109333
     5  H    0.109333
     6  H    0.109323
     7  H    0.109323
     8  H    0.109347
     9  H    0.109347
 Sum of Mulliken charges =   0.00000

 Dipole moment (field-independent basis, Debye):
    X=              0.0002    Y=              0.0002    Z=              0.0000  Tot=              0.0003
 Quadrupole moment (field-independent basis, Debye-Ang):
   XX=            -20.2940   YY=            -20.2952   ZZ=            -18.2284
   XY=              0.0008   XZ=              0.0000   YZ=              0.0000

  Exact polarizability:  30.283   0.001  30.280   0.000   0.000  29.475
 Approx polarizability:  40.041   0.001  40.036   0.000   0.000  39.535

                      1                      2                      3
                     A"                     A"                     A"
 Frequencies --    738.7272               738.9152               862.8081
 Red. masses --      1.0230                 1.0225                 1.0448
 Frc consts  --      0.3289                 0.3289                 0.4582
 IR Inten    --      0.0000                 0.0000                 0.5053

                      4                      5                      6
                     A'                     A'                     A'
 Frequencies --    891.6432               891.8544              1062.5706
 Red. masses --      3.3936                 3.4013                 1.3089
 Frc consts  --      1.5896                 1.5940                 0.8707
 IR Inten    --     16.4064                16.3684                 8.2110

                      7                      8                      9
                     A'                     A'                     A"
 Frequencies --   1064.5031              1086.7979              1156.0500
 Red. masses --      1.3096                 1.4275                 1.0079
 Frc consts  --      0.8744                 0.9934                 0.7936
 IR Inten    --      8.2378                 0.0296                 0.0000

                     10                     11                     12
                     A"                     A"                     A'
 Frequencies --   1217.4750              1217.8873              1222.6067
 Red. masses --      1.4473                 1.4481                 2.6424
 Frc consts  --      1.2639                 1.2655                 2.3271
 IR Inten    --      0.0000                 0.0000                 0.0000

                     13                     14                     15
                     A'                     A'                     A'
 Frequencies --   1485.1085              1486.6580              1535.2744
 Red. masses --      1.0880                 1.0878                 1.3352
 Frc consts  --      1.4138                 1.4165                 1.8542
 IR Inten    --      0.3266                 0.3253                 0.0001

                     16                     17                     18
                     A'                     A'                     A'
 Frequencies --   3139.8285              3140.3975              3147.6392
 Red. masses --      1.0506                 1.0506                 1.0633
 Frc consts  --      6.1022                 6.1046                 6.2070
 IR Inten    --     27.5175                27.5378                 0.0486

                     19                     20                     21
                     A"                     A"                     A"
 Frequencies --   3217.4230              3217.8727              3237.5451
 Red. masses --      1.1197                 1.1196                 1.1153
 Frc consts  --      6.8291                 6.8306                 6.8878
 IR Inten    --      0.0009                 0.0042                37.9743

 - Thermochemistry -
 -------------------
 Temperature   298.150 Kelvin.  Pressure   1.00000 Atm.
 Atom     1 has atomic number  6 and mass  12.00000

 Molecular mass:    42.04695 amu.
 Principal axes and moments of inertia in atomic units:
                           1         2         3
     Eigenvalues --    89.75457  89.76794 143.68767
           X            0.94243  -0.33441   0.00000
           Y            0.33441   0.94243   0.00000
           Z            0.00000   0.00000   1.00000
 This molecule is an asymmetric top.
 Rotational symmetry number  1.
 Rotational temperatures (Kelvin)      0.96501     0.96486     0.60279
 Rotational constants (GHZ):          20.10751    20.10452    12.56017
 Zero-point vibrational energy     213889.8 (Joules/Mol)
                                   51.12089 (Kcal/Mol)
 Vibrational temperatures:   1062.86  1063.13  1241.39  1282.87  1283.18
          (Kelvin)           1528.80  1531.58  1563.66  1663.30  1751.67
                             1752.27  1759.06  2136.74  2138.97  2208.91
                             4517.51  4518.33  4528.75  4629.15  4629.80
                             4658.10

 Zero-point correction=                           0.081466 (Hartree/Particle)
 Thermal correction to Energy=                    0.084833
 Thermal correction to Enthalpy=                  0.085778
 Thermal correction to Gibbs Free Energy=         0.057176
 Sum of electronic and zero-point Energies=           -117.822690
 Sum of electronic and thermal Energies=              -117.819323
 Sum of electronic and thermal Enthalpies=            -117.818379
 Sum of electronic and thermal Free Energies=         -117.846981

                     E (Thermal)             CV                S
                      KCal/Mol        Cal/Mol-Kelvin    Cal/Mol-Kelvin
 Total                   53.234             11.005             60.198
 Electronic               0.000              0.000              0.000
 Translational            0.889              2.981             37.136
 Rotational               0.889              2.981             21.676
 Vibrational             51.456              5.043              1.387

 Optimization completed.
    -- Stationary point found.
 Normal termination of Gaussian 09 at Thu Jul 22 14:21:00 2021.
