 Gaussian 09, Revision E.01,
 Gaussian 09:  ES64L-G09RevE.01 30-Nov-2015

 ----------------------------
 #P OPT Freq B3LYP/6-31G(d,p)
 ----------------------------

 --------
 Frag_612
 --------
 Symbolic Z-matrix:
 Charge =  0 Multiplicity = 1

 SCF Done:  E(RB3LYP) =  -347.799235768     A.U. after   12 cycles
 SCF Done:  E(RB3LYP) =  -347.799266644     A.U. after    9 cycles
 SCF Done:  E(RB3LYP) =  -347.799257804     A.U. after    9 cycles
 SCF Done:  E(RB3LYP) =  -347.799275547     A.U. after    8 cycles
 SCF Done:  E(RB3LYP) =  -347.799276052     A.U. after    7 cycles
 SCF Done:  E(RB3LYP) =  -347.799276142     A.U. after    6 cycles
 Optimization completed.
    -- Stationary point found.
 Normal termination of Gaussian 09 at Thu Sep  8 14:59:22 2022.

 ----------------------------------------------------------------------
 #P Geom=AllCheck Guess=TCheck SCRF=Check GenChk RB3LYP/6-31G(d,p) Freq
 ----------------------------------------------------------------------

 Structure from the checkpoint file:  "B3LYP6-31Gdp.Frag_612.chk"
 --------
 Frag_612
 --------
 Charge =  0 Multiplicity = 1

                         Standard orientation:
 ---------------------------------------------------------------------
 Center     Atomic      Atomic             Coordinates (Angstroms)
 Number     Number       Type             X           Y           Z
 ---------------------------------------------------------------------
      1          6           0        1.409680    1.388431   -0.040147
      2          6           0        0.806641   -0.032487   -0.019579
      3          6           0        1.388119   -0.789064    1.186323
      4          7           0        1.299674   -0.696938   -1.239474
      5          6           0       -0.784796    0.027420    0.012735
      6          6           0       -1.400143   -1.381475   -0.058631
      7          6           0       -1.332746    0.734441    1.271706
      8          7           0       -1.203252    0.727593   -1.225615
      9          1           0        1.096153    1.942776   -0.930183
     10          1           0        1.143689    1.972685    0.845908
     11          1           0        2.498425    1.306296   -0.082551
     12          1           0        2.475581   -0.841156    1.082143
     13          1           0        1.013827   -1.816203    1.247459
     14          1           0        1.161651   -0.290539    2.132604
     15          1           0        1.117027   -1.696894   -1.187279
     16          1           0        0.743931   -0.346422   -2.019887
     17          1           0       -1.150061   -1.981413    0.819886
     18          1           0       -1.070711   -1.914699   -0.953644
     19          1           0       -2.493368   -1.309741   -0.099108
     20          1           0       -1.049727    0.221506    2.196328
     21          1           0       -2.428083    0.760241    1.235021
     22          1           0       -0.983256    1.768966    1.341910
     23          1           0       -1.068030    1.730547   -1.119612
     24          1           0       -2.202532    0.595874   -1.367815
 ---------------------------------------------------------------------

 SCF Done:  E(RB3LYP) =  -347.799276142     A.U. after    1 cycles

 The electronic state is 1-A.
 Alpha  occ. eigenvalues --  -14.31184 -14.29030 -10.21729 -10.21081 -10.17376
 Alpha  occ. eigenvalues --  -10.17299 -10.16696 -10.16235  -0.89987  -0.85607
 Alpha  occ. eigenvalues --   -0.75624  -0.72772  -0.68676  -0.67386  -0.59859
 Alpha  occ. eigenvalues --   -0.52060  -0.49310  -0.46856  -0.45188  -0.44536
 Alpha  occ. eigenvalues --   -0.43591  -0.40145  -0.38923  -0.38252  -0.37041
 Alpha  occ. eigenvalues --   -0.36771  -0.36537  -0.35184  -0.33746  -0.31639
 Alpha  occ. eigenvalues --   -0.31278  -0.23880  -0.21985
 Alpha virt. eigenvalues --    0.06394   0.10743   0.11832   0.12677   0.12925
 Alpha virt. eigenvalues --    0.14007   0.14934   0.15404   0.16738   0.17395
 Alpha virt. eigenvalues --    0.19202   0.20134   0.20824   0.21500   0.21845

 Mulliken charges:
               1
     1  C   -0.304720
     2  C    0.164178
     3  C   -0.315511
     4  N   -0.593605
     5  C    0.148802
     6  C   -0.312296
     7  C   -0.311489
     8  N   -0.602509
     9  H    0.095445
    10  H    0.088759
    11  H    0.114454
    12  H    0.115390
    13  H    0.090819
    14  H    0.098731
    15  H    0.224157
    16  H    0.249627
    17  H    0.105273
    18  H    0.099550
    19  H    0.090359
    20  H    0.101800
    21  H    0.088887
    22  H    0.096232
    23  H    0.235954
    24  H    0.231712
 Sum of Mulliken charges =  -0.00000

 Dipole moment (field-independent basis, Debye):
    X=             -2.0494    Y=              0.2418    Z=              0.9192  Tot=              2.2591
 Quadrupole moment (field-independent basis, Debye-Ang):
   XX=            -54.1411   YY=            -49.7921   ZZ=            -54.8764
   XY=             -0.6543   XZ=              2.9279   YZ=             -0.2728

  Exact polarizability:  82.167   0.335  78.025   1.008  -0.145  75.413
 Approx polarizability: 110.161  -0.486 109.936   0.960  -0.671 108.786

                      1                      2                      3
                      A                      A                      A
 Frequencies --     64.2875               194.6905               244.2725
 Red. masses --      2.3909                 1.0251                 1.1117
 Frc consts  --      0.0058                 0.0229                 0.0391
 IR Inten    --      0.0617                 5.5998                 5.1738

                      4                      5                      6
                      A                      A                      A
 Frequencies --    261.9026               262.8190               279.7240
 Red. masses --      1.0392                 1.2147                 2.4555
 Frc consts  --      0.0420                 0.0494                 0.1132
 IR Inten    --      0.7040                 1.8131                 8.7853

                      7                      8                      9
                      A                      A                      A
 Frequencies --    288.4238               293.3019               336.4203
 Red. masses --      2.2212                 1.2812                 1.3226
 Frc consts  --      0.1089                 0.0649                 0.0882
 IR Inten    --      4.5417                19.6372                20.7857

                     10                     11                     12
                      A                      A                      A
 Frequencies --    360.0373               374.8091               386.4541
 Red. masses --      2.3514                 2.1263                 1.7471
 Frc consts  --      0.1796                 0.1760                 0.1537
 IR Inten    --      4.9286                 2.2494                 5.7713

                     13                     14                     15
                      A                      A                      A
 Frequencies --    396.8741               415.0723               489.1933
 Red. masses --      2.3906                 2.2440                 2.5185
 Frc consts  --      0.2218                 0.2278                 0.3551
 IR Inten    --      0.7981                14.5901                 2.5425

                     16                     17                     18
                      A                      A                      A
 Frequencies --    501.4526               525.0858               652.0651
 Red. masses --      2.6214                 2.5986                 2.9868
 Frc consts  --      0.3884                 0.4221                 0.7482
 IR Inten    --      1.9676                14.1058                 2.4056

                     19                     20                     21
                      A                      A                      A
 Frequencies --    820.3190               863.8300               892.2163
 Red. masses --      2.8412                 2.0500                 1.5961
 Frc consts  --      1.1265                 0.9013                 0.7486
 IR Inten    --     27.0186                23.5182                68.5678

                     22                     23                     24
                      A                      A                      A
 Frequencies --    920.8815               929.4197               938.6332
 Red. masses --      1.5432                 1.5577                 1.5220
 Frc consts  --      0.7711                 0.7928                 0.7901
 IR Inten    --    134.6921                 9.1290                 7.7677

                     25                     26                     27
                      A                      A                      A
 Frequencies --    961.8065              1004.7291              1018.8497
 Red. masses --      1.7647                 1.2525                 1.3152
 Frc consts  --      0.9618                 0.7449                 0.8044
 IR Inten    --      0.2250                16.8991                13.3354

                     28                     29                     30
                      A                      A                      A
 Frequencies --   1024.8421              1078.1602              1086.2900
 Red. masses --      1.3807                 1.6077                 1.4709
 Frc consts  --      0.8544                 1.1011                 1.0226
 IR Inten    --     38.3451                 2.3963                 5.3187

                     31                     32                     33
                      A                      A                      A
 Frequencies --   1180.9738              1223.5657              1246.2723
 Red. masses --      2.2012                 2.4349                 2.5195
 Frc consts  --      1.8088                 2.1477                 2.3056
 IR Inten    --     63.4984                24.6246                 5.9317

                     34                     35                     36
                      A                      A                      A
 Frequencies --   1258.2731              1332.5817              1354.6775
 Red. masses --      2.9539                 1.9223                 1.6841
 Frc consts  --      2.7555                 2.0112                 1.8210
 IR Inten    --      7.9192                 1.0293                 2.4544

                     37                     38                     39
                      A                      A                      A
 Frequencies --   1407.9035              1409.6933              1421.2960
 Red. masses --      1.2972                 1.3421                 1.2764
 Frc consts  --      1.5149                 1.5714                 1.5192
 IR Inten    --     12.3544                 3.1588                17.0317

                     40                     41                     42
                      A                      A                      A
 Frequencies --   1434.3894              1491.0780              1499.0878
 Red. masses --      1.2270                 1.0536                 1.0461
 Frc consts  --      1.4874                 1.3802                 1.3851
 IR Inten    --      4.8737                 0.7388                 0.0664

                     43                     44                     45
                      A                      A                      A
 Frequencies --   1500.5704              1513.0982              1516.3270
 Red. masses --      1.0462                 1.0548                 1.0521
 Frc consts  --      1.3880                 1.4228                 1.4253
 IR Inten    --      1.0334                 2.6580                 2.3756

                     46                     47                     48
                      A                      A                      A
 Frequencies --   1520.1523              1524.3949              1531.3196
 Red. masses --      1.0543                 1.0588                 1.0484
 Frc consts  --      1.4354                 1.4496                 1.4485
 IR Inten    --      4.2381                 3.8222                 6.4931

                     49                     50                     51
                      A                      A                      A
 Frequencies --   1664.7737              1673.1041              3038.2720
 Red. masses --      1.0910                 1.0912                 1.0377
 Frc consts  --      1.7815                 1.7998                 5.6440
 IR Inten    --     34.9062                19.0826                17.9556

                     52                     53                     54
                      A                      A                      A
 Frequencies --   3047.0457              3050.0883              3056.2931
 Red. masses --      1.0398                 1.0359                 1.0374
 Frc consts  --      5.6877                 5.6777                 5.7094
 IR Inten    --     25.6645                32.6330                 7.9301

                     55                     56                     57
                      A                      A                      A
 Frequencies --   3101.6883              3112.1001              3118.1020
 Red. masses --      1.0997                 1.0966                 1.1016
 Frc consts  --      6.2332                 6.2576                 6.3104
 IR Inten    --     13.7717                38.8083                48.5737

                     58                     59                     60
                      A                      A                      A
 Frequencies --   3120.9254              3124.6416              3132.7270
 Red. masses --      1.1006                 1.1009                 1.1017
 Frc consts  --      6.3162                 6.3326                 6.3702
 IR Inten    --     19.4714                31.8687                 7.8389

                     61                     62                     63
                      A                      A                      A
 Frequencies --   3136.5957              3142.7728              3466.3137
 Red. masses --      1.1014                 1.1025                 1.0493
 Frc consts  --      6.3843                 6.4159                 7.4283
 IR Inten    --     43.5636                24.7932                 6.0193

                     64                     65                     66
                      A                      A                      A
 Frequencies --   3485.1034              3555.3414              3566.2308
 Red. masses --      1.0498                 1.0915                 1.0922
 Frc consts  --      7.5123                 8.1290                 8.1838
 IR Inten    --      1.6117                 4.3562                 0.4537

 - Thermochemistry -
 -------------------
 Temperature   298.150 Kelvin.  Pressure   1.00000 Atm.
 Atom     1 has atomic number  6 and mass  12.00000

 Molecular mass:   116.13135 amu.
 Principal axes and moments of inertia in atomic units:
                           1         2         3
     Eigenvalues --   762.596911068.604701072.46232
           X            0.99967   0.02041   0.01537
           Y           -0.02148   0.99712   0.07276
           Z           -0.01384  -0.07306   0.99723
 This molecule is an asymmetric top.
 Rotational symmetry number  1.
 Warning -- assumption of classical behavior for rotation
           may cause significant error
 Rotational temperatures (Kelvin)      0.11358     0.08105     0.08076
 Rotational constants (GHZ):           2.36657     1.68888     1.68280
 Zero-point vibrational energy     585121.3 (Joules/Mol)
                                  139.84734 (Kcal/Mol)
 Warning -- explicit consideration of  17 degrees of freedom as
           vibrations may cause significant error
 Vibrational temperatures:     92.50   280.12   351.45   376.82   378.14
          (Kelvin)            402.46   414.98   422.00   484.03   518.01
                              539.27   556.02   571.01   597.20   703.84
                              721.48   755.48   938.18  1180.25  1242.86
                             1283.70  1324.94  1337.23  1350.48  1383.82
                             1445.58  1465.90  1474.52  1551.23  1562.93
                             1699.16  1760.44  1793.11  1810.37  1917.29
                             1949.08  2025.66  2028.23  2044.93  2063.76
                             2145.33  2156.85  2158.98  2177.01  2181.65
                             2187.16  2193.26  2203.22  2395.23  2407.22
                             4371.39  4384.01  4388.39  4397.32  4462.63
                             4477.61  4486.25  4490.31  4495.66  4507.29
                             4512.86  4521.74  4987.25  5014.28  5115.34
                             5131.00

 Zero-point correction=                           0.222861 (Hartree/Particle)
 Thermal correction to Energy=                    0.233282
 Thermal correction to Enthalpy=                  0.234226
 Thermal correction to Gibbs Free Energy=         0.189175
 Sum of electronic and zero-point Energies=           -347.576415
 Sum of electronic and thermal Energies=              -347.565995
 Sum of electronic and thermal Enthalpies=            -347.565050
 Sum of electronic and thermal Free Energies=         -347.610101

                     E (Thermal)             CV                S
                      KCal/Mol        Cal/Mol-Kelvin    Cal/Mol-Kelvin
 Total                  146.386             41.083             94.816
 Electronic               0.000              0.000              0.000
 Translational            0.889              2.981             40.164
 Rotational               0.889              2.981             28.260
 Vibrational            144.609             35.122             26.393
 Vibration     1          0.597              1.971              4.321
 Vibration     2          0.635              1.847              2.183
 Vibration     3          0.660              1.772              1.772
 Vibration     4          0.669              1.743              1.649
 Vibration     5          0.670              1.741              1.643
 Vibration     6          0.680              1.711              1.535
 Vibration     7          0.685              1.695              1.483
 Vibration     8          0.688              1.686              1.455
 Vibration     9          0.717              1.603              1.229
 Vibration    10          0.735              1.555              1.122
 Vibration    11          0.746              1.524              1.060
 Vibration    12          0.755              1.499              1.014
 Vibration    13          0.763              1.477              0.974
 Vibration    14          0.778              1.438              0.909
 Vibration    15          0.845              1.274              0.686
 Vibration    16          0.857              1.247              0.655
 Vibration    17          0.880              1.194              0.598

 Optimization completed.
    -- Stationary point found.
 Normal termination of Gaussian 09 at Thu Sep  8 14:59:52 2022.
