 Gaussian 09, Revision E.01,
 Gaussian 09:  ES64L-G09RevE.01 30-Nov-2015

 ----------------------------
 #P OPT Freq B3LYP/6-31G(d,p)
 ----------------------------

 --------
 Frag_765
 --------
 Symbolic Z-matrix:
 Charge =  0 Multiplicity = 1

 SCF Done:  E(RB3LYP) =  -303.850471308     A.U. after   13 cycles
 SCF Done:  E(RB3LYP) =  -303.850544382     A.U. after   10 cycles
 SCF Done:  E(RB3LYP) =  -303.850549814     A.U. after    8 cycles
 SCF Done:  E(RB3LYP) =  -303.850551152     A.U. after    8 cycles
 SCF Done:  E(RB3LYP) =  -303.850552066     A.U. after    8 cycles
 SCF Done:  E(RB3LYP) =  -303.850552335     A.U. after    7 cycles
 SCF Done:  E(RB3LYP) =  -303.850552417     A.U. after    7 cycles
 SCF Done:  E(RB3LYP) =  -303.850552458     A.U. after    7 cycles
 SCF Done:  E(RB3LYP) =  -303.850552463     A.U. after    6 cycles
 Optimization completed.
    -- Stationary point found.
 Normal termination of Gaussian 09 at Thu Sep  8 15:02:30 2022.

 ----------------------------------------------------------------------
 #P Geom=AllCheck Guess=TCheck SCRF=Check GenChk RB3LYP/6-31G(d,p) Freq
 ----------------------------------------------------------------------

 Structure from the checkpoint file:  "B3LYP6-31Gdp.Frag_765.chk"
 --------
 Frag_765
 --------
 Charge =  0 Multiplicity = 1

                         Standard orientation:
 ---------------------------------------------------------------------
 Center     Atomic      Atomic             Coordinates (Angstroms)
 Number     Number       Type             X           Y           Z
 ---------------------------------------------------------------------
      1          6           0        1.624058    1.075101   -0.038397
      2          6           0        0.640038   -0.063138    0.018677
      3          7           0        1.139160   -1.416076    0.055244
      4          6           0       -0.707244    0.074023   -0.007383
      5          7           0       -1.590229   -0.987723   -0.123568
      6          8           0       -1.382807    1.263675    0.012307
      7          1           0        1.155005    2.060382   -0.153939
      8          1           0        2.252742    1.126881    0.863274
      9          1           0        2.309611    0.966261   -0.891821
     10          1           0        1.647487   -1.645252   -0.798776
     11          1           0        1.802116   -1.537935    0.819759
     12          1           0       -2.426137   -0.872414    0.437127
     13          1           0       -1.105570   -1.862977    0.042767
     14          1           0       -0.756429    1.966327    0.224043
 ---------------------------------------------------------------------

 SCF Done:  E(RB3LYP) =  -303.850552463     A.U. after    1 cycles

 The electronic state is 1-A.
 Alpha  occ. eigenvalues --  -19.16897 -14.31944 -14.31493 -10.25577 -10.18295
 Alpha  occ. eigenvalues --  -10.17863  -1.05514  -0.89699  -0.86370  -0.73238
 Alpha  occ. eigenvalues --   -0.66083  -0.59080  -0.50032  -0.47899  -0.47283
 Alpha  occ. eigenvalues --   -0.44925  -0.41047  -0.40051  -0.38976  -0.37538
 Alpha  occ. eigenvalues --   -0.36660  -0.27572  -0.24302  -0.17712
 Alpha virt. eigenvalues --    0.06011   0.07455   0.09406   0.12060   0.14894
 Alpha virt. eigenvalues --    0.16615   0.17245   0.18198   0.20001   0.24360
 Alpha virt. eigenvalues --    0.26805   0.29695   0.40205   0.47219   0.54645

 Mulliken charges:
               1
     1  C   -0.363833
     2  C    0.117598
     3  N   -0.661356
     4  C    0.463206
     5  N   -0.619602
     6  O   -0.546894
     7  H    0.074789
     8  H    0.103074
     9  H    0.106676
    10  H    0.241310
    11  H    0.237501
    12  H    0.254610
    13  H    0.275715
    14  H    0.317206
 Sum of Mulliken charges =  -0.00000

 Dipole moment (field-independent basis, Debye):
    X=              1.6345    Y=              0.2954    Z=              1.2287  Tot=              2.0661
 Quadrupole moment (field-independent basis, Debye-Ang):
   XX=            -34.4159   YY=            -33.1142   ZZ=            -37.1265
   XY=              0.3811   XZ=             -2.9387   YZ=             -0.0651

  Exact polarizability:  69.274   1.659  52.469  -0.728   0.728  32.442
 Approx polarizability: 102.431  -0.933  70.333   0.636   1.727  46.520

                      1                      2                      3
                      A                      A                      A
 Frequencies --    122.0752               167.7116               254.3982
 Red. masses --      1.3180                 1.6074                 1.3663
 Frc consts  --      0.0116                 0.0266                 0.0521
 IR Inten    --      8.9443                 1.8822                14.4352

                      4                      5                      6
                      A                      A                      A
 Frequencies --    278.4363               331.3110               345.7599
 Red. masses --      3.1680                 1.4125                 1.7620
 Frc consts  --      0.1447                 0.0914                 0.1241
 IR Inten    --      5.2093                47.0153                52.4807

                      7                      8                      9
                      A                      A                      A
 Frequencies --    380.2070               423.0632               506.4708
 Red. masses --      2.4967                 1.2037                 2.4473
 Frc consts  --      0.2126                 0.1269                 0.3699
 IR Inten    --      4.9028                85.7100                 9.6365

                     10                     11                     12
                      A                      A                      A
 Frequencies --    550.2277               623.3674               750.0285
 Red. masses --      4.1391                 3.1395                 4.3731
 Frc consts  --      0.7383                 0.7188                 1.4494
 IR Inten    --     10.2118                39.9265                44.1583

                     13                     14                     15
                      A                      A                      A
 Frequencies --    780.1598               866.7800               977.3148
 Red. masses --      1.6709                 1.3739                 1.7338
 Frc consts  --      0.5992                 0.6082                 0.9757
 IR Inten    --    240.3383               170.6693                 1.8429

                     16                     17                     18
                      A                      A                      A
 Frequencies --   1039.6044              1075.1465              1174.0075
 Red. masses --      1.2908                 1.8389                 1.5316
 Frc consts  --      0.8220                 1.2524                 1.2438
 IR Inten    --      0.6096                43.8455               115.9919

                     19                     20                     21
                      A                      A                      A
 Frequencies --   1213.0285              1245.8238              1306.2883
 Red. masses --      1.3305                 3.6626                 1.8813
 Frc consts  --      1.1535                 3.3493                 1.8914
 IR Inten    --      2.0609                 5.4120               135.7378

                     22                     23                     24
                      A                      A                      A
 Frequencies --   1418.4295              1448.5842              1483.3251
 Red. masses --      2.0272                 1.5808                 1.0453
 Frc consts  --      2.4030                 1.9544                 1.3551
 IR Inten    --     20.6960                13.5013                 6.2402

                     25                     26                     27
                      A                      A                      A
 Frequencies --   1514.3439              1614.5371              1651.7669
 Red. masses --      1.0650                 1.2407                 1.1701
 Frc consts  --      1.4390                 1.9055                 1.8810
 IR Inten    --      4.2766                72.8407                13.4141

                     28                     29                     30
                      A                      A                      A
 Frequencies --   1786.7794              2992.8038              3031.7345
 Red. masses --      4.2080                 1.0382                 1.1012
 Frc consts  --      7.9153                 5.4786                 5.9636
 IR Inten    --    225.3577                71.5362                44.4662

                     31                     32                     33
                      A                      A                      A
 Frequencies --   3070.2182              3450.6404              3513.0218
 Red. masses --      1.0966                 1.0479                 1.0925
 Frc consts  --      6.0905                 7.3515                 7.9441
 IR Inten    --     53.6296                 9.5130                 0.3303

                     34                     35                     36
                      A                      A                      A
 Frequencies --   3530.0344              3646.4445              3847.8183
 Red. masses --      1.0466                 1.0982                 1.0651
 Frc consts  --      7.6838                 8.6032                 9.2909
 IR Inten    --     14.5540                23.3187                27.2345

 - Thermochemistry -
 -------------------
 Temperature   298.150 Kelvin.  Pressure   1.00000 Atm.
 Atom     1 has atomic number  6 and mass  12.00000

 Molecular mass:    88.06366 amu.
 Principal axes and moments of inertia in atomic units:
                           1         2         3
     Eigenvalues --   371.68563 556.51039 903.86294
           X            0.99644   0.08382  -0.00927
           Y           -0.08384   0.99648  -0.00216
           Z            0.00906   0.00293   0.99995
 This molecule is an asymmetric top.
 Rotational symmetry number  1.
 Rotational temperatures (Kelvin)      0.23303     0.15564     0.09583
 Rotational constants (GHZ):           4.85556     3.24296     1.99670
 Zero-point vibrational energy     313491.5 (Joules/Mol)
                                   74.92628 (Kcal/Mol)
 Warning -- explicit consideration of  10 degrees of freedom as
           vibrations may cause significant error
 Vibrational temperatures:    175.64   241.30   366.02   400.61   476.68
          (Kelvin)            497.47   547.03   608.69   728.70   791.65
                              896.89  1079.12  1122.47  1247.10  1406.14
                             1495.76  1546.89  1689.13  1745.28  1792.46
                             1879.46  2040.80  2084.19  2134.17  2178.80
                             2322.96  2376.52  2570.77  4305.97  4361.98
                             4417.35  4964.70  5054.45  5078.93  5246.41
                             5536.15

 Zero-point correction=                           0.119403 (Hartree/Particle)
 Thermal correction to Energy=                    0.126819
 Thermal correction to Enthalpy=                  0.127764
 Thermal correction to Gibbs Free Energy=         0.088851
 Sum of electronic and zero-point Energies=           -303.731150
 Sum of electronic and thermal Energies=              -303.723733
 Sum of electronic and thermal Enthalpies=            -303.722789
 Sum of electronic and thermal Free Energies=         -303.761701

                     E (Thermal)             CV                S
                      KCal/Mol        Cal/Mol-Kelvin    Cal/Mol-Kelvin
 Total                   79.580             26.939             81.899
 Electronic               0.000              0.000              0.000
 Translational            0.889              2.981             39.339
 Rotational               0.889              2.981             26.727
 Vibrational             77.803             20.978             15.832
 Vibration     1          0.610              1.931              3.067
 Vibration     2          0.624              1.882              2.461
 Vibration     3          0.665              1.755              1.700
 Vibration     4          0.679              1.713              1.543
 Vibration     5          0.714              1.613              1.254
 Vibration     6          0.724              1.584              1.185
 Vibration     7          0.750              1.512              1.038
 Vibration     8          0.785              1.420              0.882
 Vibration     9          0.862              1.236              0.642
 Vibration    10          0.906              1.139              0.544

 Optimization completed.
    -- Stationary point found.
 Normal termination of Gaussian 09 at Thu Sep  8 15:02:41 2022.
