 Gaussian 09, Revision E.01,
 Gaussian 09:  ES64L-G09RevE.01 30-Nov-2015

 --------------------------------
 #P OPT=calcfc Freq B3LYP/6-31G**
 --------------------------------

 --------
 Frag_295
 --------
 Symbolic Z-matrix:
 Charge =  0 Multiplicity = 1

 SCF Done:  E(RB3LYP) =  -315.723108783     A.U. after   12 cycles
 SCF Done:  E(RB3LYP) =  -315.726638978     A.U. after   10 cycles
 SCF Done:  E(RB3LYP) =  -315.726669690     A.U. after    8 cycles
 SCF Done:  E(RB3LYP) =  -315.726668992     A.U. after    7 cycles
 SCF Done:  E(RB3LYP) =  -315.726637552     A.U. after    8 cycles
 SCF Done:  E(RB3LYP) =  -315.726672728     A.U. after    8 cycles
 Optimization completed.
    -- Stationary point found.
 Normal termination of Gaussian 09 at Fri Sep 10 20:37:58 2021.

 ----------------------------------------------------------------------
 #P Geom=AllCheck Guess=TCheck SCRF=Check GenChk RB3LYP/6-31G(d,p) Freq
 ----------------------------------------------------------------------

 Structure from the checkpoint file:  "/public/home/users/caep010/.cache/gau_scr/Gau-129097.chk"
 --------
 Frag_295
 --------
 Charge =  0 Multiplicity = 1

                         Standard orientation:
 ---------------------------------------------------------------------
 Center     Atomic      Atomic             Coordinates (Angstroms)
 Number     Number       Type             X           Y           Z
 ---------------------------------------------------------------------
      1          6           0       -1.358111    0.595929    1.310646
      2          6           0       -0.795372   -0.000255    0.000140
      3          6           0       -1.358478    0.836919   -1.171099
      4          6           0       -1.357400   -1.433585   -0.138904
      5          6           0        0.795488    0.000076   -0.000144
      6          6           0        1.358648   -1.048330    0.986584
      7          6           0        1.357971    1.378988    0.414623
      8          6           0        1.357419   -0.329938   -1.401900
      9          1           0       -2.447122    0.478224    1.334149
     10          1           0       -0.959518    0.097454    2.199812
     11          1           0       -1.145791    1.665078    1.400403
     12          1           0       -2.447606    0.915332   -1.081418
     13          1           0       -1.145592    0.381346   -2.142423
     14          1           0       -0.960373    1.856405   -1.182547
     15          1           0       -2.446364   -1.396006   -0.253099
     16          1           0       -0.957448   -1.953788   -1.014918
     17          1           0       -1.144962   -2.045622    0.742284
     18          1           0        1.144711   -2.071931    0.665982
     19          1           0        2.447896   -0.949568    1.051380
     20          1           0        0.961462   -0.922018    1.998642
     21          1           0        2.447119    1.386548    0.296194
     22          1           0        1.144039    1.612106    1.461624
     23          1           0        0.959916    2.192413   -0.200052
     24          1           0        2.446547   -0.436591   -1.349673
     25          1           0        0.958626   -1.268684   -1.798989
     26          1           0        1.143465    0.460475   -2.127020
 ---------------------------------------------------------------------

 SCF Done:  E(RB3LYP) =  -315.726672728     A.U. after    1 cycles

 The electronic state is 1-A.
 Alpha  occ. eigenvalues --  -10.19260 -10.19245 -10.16606 -10.16605 -10.16605
 Alpha  occ. eigenvalues --  -10.16604 -10.16604 -10.16603  -0.82844  -0.76195
 Alpha  occ. eigenvalues --   -0.68767  -0.68765  -0.66341  -0.66340  -0.58271
 Alpha  occ. eigenvalues --   -0.49861  -0.46952  -0.43675  -0.43673  -0.42477
 Alpha  occ. eigenvalues --   -0.42475  -0.39353  -0.37694  -0.37690  -0.36856
 Alpha  occ. eigenvalues --   -0.35869  -0.35867  -0.34663  -0.33703  -0.33702
 Alpha  occ. eigenvalues --   -0.29895  -0.29895  -0.29285
 Alpha virt. eigenvalues --    0.07126   0.12348   0.12697   0.12699   0.13494
 Alpha virt. eigenvalues --    0.14046   0.14047   0.14847   0.17380   0.17385
 Alpha virt. eigenvalues --    0.19582   0.19583   0.19907   0.20978   0.20982

 Mulliken charges:
               1
     1  C   -0.308781
     2  C    0.061804
     3  C   -0.308822
     4  C   -0.308734
     5  C    0.061189
     6  C   -0.308586
     7  C   -0.308541
     8  C   -0.308616
     9  H    0.092856
    10  H    0.095821
    11  H    0.099507
    12  H    0.092862
    13  H    0.099486
    14  H    0.095867
    15  H    0.092872
    16  H    0.095854
    17  H    0.099517
    18  H    0.099465
    19  H    0.092843
    20  H    0.095821
    21  H    0.092855
    22  H    0.099476
    23  H    0.095796
    24  H    0.092843
    25  H    0.095843
    26  H    0.099503
 Sum of Mulliken charges =  -0.00000

 Dipole moment (field-independent basis, Debye):
    X=             -0.0007    Y=              0.0001    Z=             -0.0000  Tot=              0.0007
 Quadrupole moment (field-independent basis, Debye-Ang):
   XX=            -54.9203   YY=            -55.1608   ZZ=            -55.1608
   XY=             -0.0000   XZ=              0.0007   YZ=             -0.0007

  Exact polarizability:  90.729   0.001  82.772   0.002  -0.002  82.775
 Approx polarizability: 121.964   0.003 117.372   0.001  -0.003 117.376

                      1                      2                      3
                      A                      A                      A
 Frequencies --     85.2781               207.3349               240.2867
 Red. masses --      2.3504                 1.0209                 1.1473
 Frc consts  --      0.0101                 0.0259                 0.0390
 IR Inten    --      0.0000                 0.0526                 0.0201

                      4                      5                      6
                      A                      A                      A
 Frequencies --    244.5843               266.5633               279.6396
 Red. masses --      1.1888                 1.1325                 1.2186
 Frc consts  --      0.0419                 0.0474                 0.0561
 IR Inten    --      0.0177                 0.0024                 0.0193

                      7                      8                      9
                      A                      A                      A
 Frequencies --    281.7482               304.9845               306.8414
 Red. masses --      1.3206                 1.8229                 1.8849
 Frc consts  --      0.0618                 0.0999                 0.1046
 IR Inten    --      0.0165                 0.0013                 0.0012

                     10                     11                     12
                      A                      A                      A
 Frequencies --    372.2263               374.2016               379.8597
 Red. masses --      1.7425                 1.7234                 2.4139
 Frc consts  --      0.1422                 0.1422                 0.2052
 IR Inten    --      0.0039                 0.0050                 0.0002

                     13                     14                     15
                      A                      A                      A
 Frequencies --    387.4474               390.4223               471.2012
 Red. masses --      2.1737                 2.1898                 2.5845
 Frc consts  --      0.1923                 0.1967                 0.3381
 IR Inten    --      0.0206                 0.0177                 0.0056

                     16                     17                     18
                      A                      A                      A
 Frequencies --    473.6300               486.1923               641.3128
 Red. masses --      2.5878                 2.0494                 2.9474
 Frc consts  --      0.3420                 0.2854                 0.7142
 IR Inten    --      0.0039                 0.0149                 0.0000

                     19                     20                     21
                      A                      A                      A
 Frequencies --    801.5807               881.0695               932.5163
 Red. masses --      2.7044                 2.0538                 1.6797
 Frc consts  --      1.0238                 0.9394                 0.8606
 IR Inten    --      2.5600                 0.0011                 0.0011

                     22                     23                     24
                      A                      A                      A
 Frequencies --    934.5317               938.7786               941.2569
 Red. masses --      1.7062                 1.8631                 1.8887
 Frc consts  --      0.8780                 0.9674                 0.9859
 IR Inten    --      0.0405                 0.8985                 0.9344

                     25                     26                     27
                      A                      A                      A
 Frequencies --    959.4407               970.1512              1020.4171
 Red. masses --      1.2016                 1.2029                 1.3216
 Frc consts  --      0.6517                 0.6671                 0.8108
 IR Inten    --      0.0377                 0.0022                 0.2538

                     28                     29                     30
                      A                      A                      A
 Frequencies --   1022.7050              1069.5600              1070.4203
 Red. masses --      1.3193                 1.3539                 1.3529
 Frc consts  --      0.8130                 0.9125                 0.9133
 IR Inten    --      0.2618                 0.0018                 0.0047

                     31                     32                     33
                      A                      A                      A
 Frequencies --   1210.2179              1211.0328              1213.9654
 Red. masses --      2.4215                 2.4216                 2.0464
 Frc consts  --      2.0896                 2.0925                 1.7768
 IR Inten    --      6.7655                 6.8779                26.6196

                     34                     35                     36
                      A                      A                      A
 Frequencies --   1272.7326              1273.1829              1281.8114
 Red. masses --      3.0920                 3.0841                 2.6115
 Frc consts  --      2.9509                 2.9455                 2.5280
 IR Inten    --      0.0013                 0.0012                 0.0005

                     37                     38                     39
                      A                      A                      A
 Frequencies --   1408.8592              1410.3070              1418.5417
 Red. masses --      1.2442                 1.2435                 1.2171
 Frc consts  --      1.4550                 1.4572                 1.4430
 IR Inten    --      1.1746                 0.6058                 8.7388

                     40                     41                     42
                      A                      A                      A
 Frequencies --   1420.6824              1434.8711              1455.9607
 Red. masses --      1.2155                 1.2323                 1.2068
 Frc consts  --      1.4454                 1.4948                 1.5073
 IR Inten    --      8.1178                17.8936                 0.0310

                     43                     44                     45
                      A                      A                      A
 Frequencies --   1490.8501              1498.9046              1499.3979
 Red. masses --      1.0501                 1.0465                 1.0465
 Frc consts  --      1.3751                 1.3853                 1.3862
 IR Inten    --      0.7402                 0.0722                 0.0784

                     46                     47                     48
                      A                      A                      A
 Frequencies --   1504.3477              1505.5746              1509.0113
 Red. masses --      1.0477                 1.0467                 1.0493
 Frc consts  --      1.3970                 1.3979                 1.4078
 IR Inten    --      0.1050                 0.0586                 0.0232

                     49                     50                     51
                      A                      A                      A
 Frequencies --   1521.3508              1521.6775              1532.8595
 Red. masses --      1.0468                 1.0464                 1.0501
 Frc consts  --      1.4274                 1.4275                 1.4537
 IR Inten    --      6.6782                 6.5771                14.1594

                     52                     53                     54
                      A                      A                      A
 Frequencies --   1534.7889              1535.6464              1540.1593
 Red. masses --      1.0537                 1.0538                 1.0624
 Frc consts  --      1.4624                 1.4642                 1.4848
 IR Inten    --      2.0444                 0.8447                 0.0280

                     55                     56                     57
                      A                      A                      A
 Frequencies --   3040.0303              3040.2610              3043.0537
 Red. masses --      1.0357                 1.0360                 1.0364
 Frc consts  --      5.6397                 5.6418                 5.6546
 IR Inten    --      3.1557                 8.1207                42.3402

                     58                     59                     60
                      A                      A                      A
 Frequencies --   3043.4317              3045.7273              3054.5327
 Red. masses --      1.0365                 1.0367                 1.0379
 Frc consts  --      5.6566                 5.6661                 5.7053
 IR Inten    --     39.7978                36.6348                 0.2132

                     61                     62                     63
                      A                      A                      A
 Frequencies --   3101.8391              3101.9446              3105.0756
 Red. masses --      1.1021                 1.1021                 1.1011
 Frc consts  --      6.2478                 6.2479                 6.2548
 IR Inten    --      0.1268                 0.2090                 1.3525

                     64                     65                     66
                      A                      A                      A
 Frequencies --   3105.5965              3110.6769              3113.8027
 Red. masses --      1.1007                 1.1005                 1.0991
 Frc consts  --      6.2550                 6.2742                 6.2789
 IR Inten    --      2.7851               168.3019                 2.0385

                     67                     68                     69
                      A                      A                      A
 Frequencies --   3115.1515              3123.3527              3124.1180
 Red. masses --      1.1031                 1.1006                 1.1009
 Frc consts  --      6.3070                 6.3260                 6.3309
 IR Inten    --      2.4614               108.8479                82.3438

                     70                     71                     72
                      A                      A                      A
 Frequencies --   3125.2404              3125.7708              3127.3907
 Red. masses --      1.1019                 1.1010                 1.1011
 Frc consts  --      6.3412                 6.3381                 6.3451
 IR Inten    --     13.2701                 0.7368                12.8458

 - Thermochemistry -
 -------------------
 Temperature   298.150 Kelvin.  Pressure   1.00000 Atm.
 Atom     1 has atomic number  6 and mass  12.00000

 Molecular mass:   114.14085 amu.
 Principal axes and moments of inertia in atomic units:
                           1         2         3
     Eigenvalues --   783.367181097.544731097.60023
           X            1.00000  -0.00003   0.00002
           Y            0.00003   0.99926  -0.03855
           Z           -0.00002   0.03855   0.99926
 This molecule is an asymmetric top.
 Rotational symmetry number  1.
 Warning -- assumption of classical behavior for rotation
           may cause significant error
 Rotational temperatures (Kelvin)      0.11057     0.07892     0.07891
 Rotational constants (GHZ):           2.30383     1.64434     1.64426
 Zero-point vibrational energy     643530.6 (Joules/Mol)
                                  153.80750 (Kcal/Mol)
 Warning -- explicit consideration of  17 degrees of freedom as
           vibrations may cause significant error
 Vibrational temperatures:    122.70   298.31   345.72   351.90   383.52
          (Kelvin)            402.34   405.37   438.80   441.48   535.55
                              538.39   546.53   557.45   561.73   677.95
                              681.45   699.52   922.70  1153.29  1267.66
                             1341.68  1344.58  1350.69  1354.26  1380.42
                             1395.83  1468.15  1471.44  1538.86  1540.09
                             1741.23  1742.40  1746.62  1831.18  1831.82
                             1844.24  2027.03  2029.11  2040.96  2044.04
                             2064.46  2094.80  2145.00  2156.59  2157.30
                             2164.42  2166.18  2171.13  2188.88  2189.35
                             2205.44  2208.22  2209.45  2215.94  4373.92
                             4374.25  4378.27  4378.81  4382.12  4394.79
                             4462.85  4463.00  4467.51  4468.26  4475.56
                             4480.06  4482.00  4493.80  4494.90  4496.52
                             4497.28  4499.61

 Zero-point correction=                           0.245108 (Hartree/Particle)
 Thermal correction to Energy=                    0.255646
 Thermal correction to Enthalpy=                  0.256590
 Thermal correction to Gibbs Free Energy=         0.211536
 Sum of electronic and zero-point Energies=           -315.481565
 Sum of electronic and thermal Energies=              -315.471027
 Sum of electronic and thermal Enthalpies=            -315.470083
 Sum of electronic and thermal Free Energies=         -315.515136

                     E (Thermal)             CV                S
                      KCal/Mol        Cal/Mol-Kelvin    Cal/Mol-Kelvin
 Total                  160.420             41.831             94.823
 Electronic               0.000              0.000              0.000
 Translational            0.889              2.981             40.112
 Rotational               0.889              2.981             28.336
 Vibrational            158.643             35.869             26.374
 Vibration     1          0.601              1.959              3.766
 Vibration     2          0.641              1.829              2.067
 Vibration     3          0.657              1.779              1.801
 Vibration     4          0.660              1.772              1.769
 Vibration     5          0.672              1.734              1.618
 Vibration     6          0.680              1.711              1.536
 Vibration     7          0.681              1.707              1.523
 Vibration     8          0.696              1.664              1.389
 Vibration     9          0.697              1.661              1.379
 Vibration    10          0.744              1.529              1.071
 Vibration    11          0.745              1.525              1.063
 Vibration    12          0.750              1.513              1.040
 Vibration    13          0.756              1.497              1.010
 Vibration    14          0.758              1.491              0.999
 Vibration    15          0.828              1.314              0.734
 Vibration    16          0.830              1.309              0.727
 Vibration    17          0.842              1.281              0.694

 Normal termination of Gaussian 09 at Fri Sep 10 20:38:34 2021.
