 Gaussian 09, Revision E.01,
 Gaussian 09:  ES64L-G09RevE.01 30-Nov-2015

 ----------------------------
 #P OPT Freq B3LYP/6-31G(d,p)
 ----------------------------

 --------
 Frag_982
 --------
 Symbolic Z-matrix:
 Charge =  0 Multiplicity = 1

 SCF Done:  E(RB3LYP) =  -244.603664070     A.U. after   14 cycles
 SCF Done:  E(RB3LYP) =  -244.603720138     A.U. after    9 cycles
 SCF Done:  E(RB3LYP) =  -244.603723312     A.U. after    9 cycles
 SCF Done:  E(RB3LYP) =  -244.603725797     A.U. after    8 cycles
 Optimization completed.
    -- Stationary point found.
 Normal termination of Gaussian 09 at Thu Sep  8 15:22:50 2022.

 ----------------------------------------------------------------------
 #P Geom=AllCheck Guess=TCheck SCRF=Check GenChk RB3LYP/6-31G(d,p) Freq
 ----------------------------------------------------------------------

 Structure from the checkpoint file:  "B3LYP6-31Gdp.Frag_982.chk"
 --------
 Frag_982
 --------
 Charge =  0 Multiplicity = 1

                         Standard orientation:
 ---------------------------------------------------------------------
 Center     Atomic      Atomic             Coordinates (Angstroms)
 Number     Number       Type             X           Y           Z
 ---------------------------------------------------------------------
      1          6           0        1.873379   -0.175885    0.000003
      2          7           0        0.561397   -0.790216   -0.000005
      3          7           0       -0.402108    0.076110   -0.000006
      4          6           0       -1.751255   -0.530476    0.000003
      5          7           0       -0.416499    1.370800   -0.000001
      6          1           0        2.045000    0.455442   -0.888717
      7          1           0        2.044992    0.455435    0.888731
      8          1           0        2.612342   -0.977907    0.000003
      9          1           0       -2.279021   -0.185262    0.889174
     10          1           0       -1.632021   -1.610608   -0.000112
     11          1           0       -2.279115   -0.185073   -0.889038
     12          1           0        0.555557    1.689279    0.000008
 ---------------------------------------------------------------------

 SCF Done:  E(RB3LYP) =  -244.603725797     A.U. after    1 cycles

 The electronic state is 1-A.
 Alpha  occ. eigenvalues --  -14.48251 -14.34378 -14.33294 -10.22753 -10.21226
 Alpha  occ. eigenvalues --   -1.08355  -0.88402  -0.79369  -0.70237  -0.58976
 Alpha  occ. eigenvalues --   -0.52540  -0.49517  -0.47917  -0.42908  -0.42438
 Alpha  occ. eigenvalues --   -0.40049  -0.36794  -0.31091  -0.26471  -0.22099
 Alpha virt. eigenvalues --   -0.02093   0.09375   0.11692   0.13418   0.14832
 Alpha virt. eigenvalues --    0.16651   0.16965   0.17014   0.19317   0.20524
 Alpha virt. eigenvalues --    0.26348   0.39128   0.49774   0.52782   0.52963

 Mulliken charges:
               1
     1  C   -0.212696
     2  N   -0.288652
     3  N    0.012710
     4  C   -0.149958
     5  N   -0.402970
     6  H    0.112080
     7  H    0.112079
     8  H    0.129575
     9  H    0.150209
    10  H    0.149317
    11  H    0.150208
    12  H    0.238097
 Sum of Mulliken charges =  -0.00000

 Dipole moment (field-independent basis, Debye):
    X=              0.2506    Y=             -0.3828    Z=              0.0000  Tot=              0.4576
 Quadrupole moment (field-independent basis, Debye-Ang):
   XX=            -25.5852   YY=            -35.0357   ZZ=            -31.2614
   XY=              4.4375   XZ=             -0.0000   YZ=              0.0000

  Exact polarizability:  57.055  -4.689  48.912  -0.000   0.000  29.950
 Approx polarizability:  78.270 -22.287  98.790  -0.000   0.000  41.697

                      1                      2                      3
                      A                      A                      A
 Frequencies --     36.6285               226.6436               271.8027
 Red. masses --      1.0856                 2.3704                 1.1125
 Frc consts  --      0.0009                 0.0717                 0.0484
 IR Inten    --      1.2023                 1.7300                 3.3533

                      4                      5                      6
                      A                      A                      A
 Frequencies --    347.5367               479.0417               594.7028
 Red. masses --      2.8125                 3.0801                 2.1628
 Frc consts  --      0.2001                 0.4165                 0.4507
 IR Inten    --      7.5413                 7.4043                 5.9086

                      7                      8                      9
                      A                      A                      A
 Frequencies --    642.5396               754.4353               904.9070
 Red. masses --      3.3626                 1.4725                 3.0203
 Frc consts  --      0.8180                 0.4938                 1.4572
 IR Inten    --     22.4481                68.6057                 3.3317

                     10                     11                     12
                      A                      A                      A
 Frequencies --   1034.2031              1094.8142              1133.5770
 Red. masses --      3.3905                 1.3821                 1.6881
 Frc consts  --      2.1366                 0.9760                 1.2780
 IR Inten    --     12.2988                 1.4513                18.5588

                     13                     14                     15
                      A                      A                      A
 Frequencies --   1156.0730              1178.6666              1284.4084
 Red. masses --      1.3928                 1.5963                 3.3274
 Frc consts  --      1.0967                 1.3066                 3.2342
 IR Inten    --      0.0073                14.4504                25.0174

                     16                     17                     18
                      A                      A                      A
 Frequencies --   1425.5397              1434.4058              1481.2471
 Red. masses --      1.3753                 1.1874                 1.2189
 Frc consts  --      1.6467                 1.4395                 1.5758
 IR Inten    --     75.1481                 3.8862                39.6439

                     19                     20                     21
                      A                      A                      A
 Frequencies --   1488.2529              1490.4005              1498.9312
 Red. masses --      1.1626                 1.0438                 1.0435
 Frc consts  --      1.5172                 1.3661                 1.3814
 IR Inten    --     20.3350                11.0104                 5.8479

                     22                     23                     24
                      A                      A                      A
 Frequencies --   1532.4169              1563.4121              2958.3267
 Red. masses --      1.5711                 2.6990                 1.0416
 Frc consts  --      2.1737                 3.8868                 5.3708
 IR Inten    --      2.5466               138.8363                33.4061

                     25                     26                     27
                      A                      A                      A
 Frequencies --   3001.2590              3095.1007              3147.5155
 Red. masses --      1.1010                 1.0313                 1.0932
 Frc consts  --      5.8432                 5.8208                 6.3808
 IR Inten    --     47.4648                10.3387                15.4349

                     28                     29                     30
                      A                      A                      A
 Frequencies --   3179.6478              3217.8514              3469.9666
 Red. masses --      1.1058                 1.1076                 1.0718
 Frc consts  --      6.5872                 6.7569                 7.6033
 IR Inten    --      5.3159                 1.3352                 5.1588

 - Thermochemistry -
 -------------------
 Temperature   298.150 Kelvin.  Pressure   1.00000 Atm.
 Atom     1 has atomic number  6 and mass  12.00000

 Molecular mass:    73.06400 amu.
 Principal axes and moments of inertia in atomic units:
                           1         2         3
     Eigenvalues --   174.34009 429.08946 580.67892
           X            0.99866   0.05177  -0.00000
           Y           -0.05177   0.99866  -0.00000
           Z            0.00000   0.00000   1.00000
 This molecule is an asymmetric top.
 Rotational symmetry number  1.
 Rotational temperatures (Kelvin)      0.49681     0.20185     0.14916
 Rotational constants (GHZ):          10.35184     4.20598     3.10798
 Zero-point vibrational energy     269903.0 (Joules/Mol)
                                   64.50836 (Kcal/Mol)
 Warning -- explicit consideration of   6 degrees of freedom as
           vibrations may cause significant error
 Vibrational temperatures:     52.70   326.09   391.06   500.03   689.23
          (Kelvin)            855.64   924.47  1085.46  1301.96  1487.99
                             1575.19  1630.96  1663.33  1695.84  1847.97
                             2051.03  2063.79  2131.18  2141.26  2144.35
                             2156.63  2204.80  2249.40  4256.37  4318.14
                             4453.15  4528.57  4574.80  4629.76  4992.50

 Zero-point correction=                           0.102801 (Hartree/Particle)
 Thermal correction to Energy=                    0.108695
 Thermal correction to Enthalpy=                  0.109639
 Thermal correction to Gibbs Free Energy=         0.073281
 Sum of electronic and zero-point Energies=           -244.500925
 Sum of electronic and thermal Energies=              -244.495031
 Sum of electronic and thermal Enthalpies=            -244.494086
 Sum of electronic and thermal Free Energies=         -244.530445

                     E (Thermal)             CV                S
                      KCal/Mol        Cal/Mol-Kelvin    Cal/Mol-Kelvin
 Total                   68.207             19.672             76.523
 Electronic               0.000              0.000              0.000
 Translational            0.889              2.981             38.783
 Rotational               0.889              2.981             25.277
 Vibrational             66.430             13.711             12.463
 Vibration     1          0.594              1.982              5.434
 Vibration     2          0.650              1.800              1.905
 Vibration     3          0.675              1.725              1.585
 Vibration     4          0.725              1.580              1.177
 Vibration     5          0.835              1.297              0.713
 Vibration     6          0.952              1.043              0.459

 Optimization completed.
    -- Stationary point found.
 Normal termination of Gaussian 09 at Thu Sep  8 15:22:59 2022.
