 Gaussian 09, Revision E.01,
 Gaussian 09:  ES64L-G09RevE.01 30-Nov-2015

 ----------------------------
 #P OPT Freq B3LYP/6-31G(d,p)
 ----------------------------

 --------
 Frag_673
 --------
 Symbolic Z-matrix:
 Charge =  0 Multiplicity = 1

 SCF Done:  E(RB3LYP) =  -327.140222643     A.U. after   14 cycles
 SCF Done:  E(RB3LYP) =  -327.140270185     A.U. after    9 cycles
 SCF Done:  E(RB3LYP) =  -327.140273040     A.U. after    8 cycles
 SCF Done:  E(RB3LYP) =  -327.140273186     A.U. after    7 cycles
 SCF Done:  E(RB3LYP) =  -327.140273143     A.U. after    7 cycles
 SCF Done:  E(RB3LYP) =  -327.140273214     A.U. after    7 cycles
 Optimization completed.
    -- Stationary point found.
 Normal termination of Gaussian 09 at Thu Sep  8 15:21:52 2022.

 ----------------------------------------------------------------------
 #P Geom=AllCheck Guess=TCheck SCRF=Check GenChk RB3LYP/6-31G(d,p) Freq
 ----------------------------------------------------------------------

 Structure from the checkpoint file:  "B3LYP6-31Gdp.Frag_673.chk"
 --------
 Frag_673
 --------
 Charge =  0 Multiplicity = 1

                         Standard orientation:
 ---------------------------------------------------------------------
 Center     Atomic      Atomic             Coordinates (Angstroms)
 Number     Number       Type             X           Y           Z
 ---------------------------------------------------------------------
      1          6           0       -0.982334   -0.772397    1.266986
      2          6           0       -0.547747    0.001961    0.000000
      3          6           0       -1.234453    1.377563    0.000077
      4          6           0       -0.982357   -0.772266   -1.267059
      5          6           0        0.987522    0.156972   -0.000002
      6          7           0        1.679703    1.220097    0.000001
      7          8           0        1.688530   -1.015957   -0.000004
      8          1           0       -0.559348   -1.781897    1.310543
      9          1           0       -0.672243   -0.245569    2.174493
     10          1           0       -2.071711   -0.878375    1.288198
     11          1           0       -0.968805    1.959839   -0.888062
     12          1           0       -0.968813    1.959735    0.888287
     13          1           0       -2.321403    1.251460    0.000065
     14          1           0       -0.672265   -0.245352   -2.174517
     15          1           0       -2.071735   -0.878224   -1.288272
     16          1           0       -0.559387   -1.781768   -1.310721
     17          1           0        1.076680    2.039907    0.000000
     18          1           0        1.079083   -1.763776    0.000001
 ---------------------------------------------------------------------

 SCF Done:  E(RB3LYP) =  -327.140273214     A.U. after    1 cycles

 The electronic state is 1-A.
 Alpha  occ. eigenvalues --  -19.17447 -14.29405 -10.27263 -10.22375 -10.19585
 Alpha  occ. eigenvalues --  -10.19585 -10.19135  -1.06216  -0.88287  -0.82264
 Alpha  occ. eigenvalues --   -0.70520  -0.70195  -0.62671  -0.58721  -0.50216
 Alpha  occ. eigenvalues --   -0.46372  -0.45940  -0.45310  -0.42089  -0.41056
 Alpha  occ. eigenvalues --   -0.40135  -0.38510  -0.37872  -0.35368  -0.34550
 Alpha  occ. eigenvalues --   -0.34460  -0.26011  -0.25410
 Alpha virt. eigenvalues --    0.03237   0.04361   0.09598   0.11655   0.12877
 Alpha virt. eigenvalues --    0.13271   0.14603   0.15606   0.17270   0.18468
 Alpha virt. eigenvalues --    0.19030   0.20492   0.21505   0.23461   0.23805

 Mulliken charges:
               1
     1  C   -0.302423
     2  C   -0.054928
     3  C   -0.326056
     4  C   -0.302419
     5  C    0.510053
     6  N   -0.545576
     7  O   -0.497775
     8  H    0.089137
     9  H    0.123098
    10  H    0.110565
    11  H    0.113946
    12  H    0.113948
    13  H    0.104899
    14  H    0.123097
    15  H    0.110564
    16  H    0.089141
    17  H    0.226402
    18  H    0.314326
 Sum of Mulliken charges =  -0.00000

 Dipole moment (field-independent basis, Debye):
    X=             -4.1911    Y=             -1.1690    Z=              0.0000  Tot=              4.3510
 Quadrupole moment (field-independent basis, Debye-Ang):
   XX=            -53.9000   YY=            -40.0234   ZZ=            -43.7345
   XY=             -2.4084   XZ=             -0.0000   YZ=             -0.0000

  Exact polarizability:  63.304   3.570  69.364  -0.000   0.000  52.907
 Approx polarizability:  89.344   7.890 104.816  -0.000   0.000  72.127

                      1                      2                      3
                      A                      A                      A
 Frequencies --     68.2305               199.8740               241.1896
 Red. masses --      3.4604                 1.2334                 1.9782
 Frc consts  --      0.0095                 0.0290                 0.0678
 IR Inten    --      2.2965                 0.9917                36.0548

                      4                      5                      6
                      A                      A                      A
 Frequencies --    259.2529               279.5019               303.1161
 Red. masses --      1.0435                 2.8408                 1.0481
 Frc consts  --      0.0413                 0.1308                 0.0567
 IR Inten    --      0.1494                 2.7989                 5.5715

                      7                      8                      9
                      A                      A                      A
 Frequencies --    355.3482               357.7772               378.6898
 Red. masses --      2.6418                 1.2146                 2.8338
 Frc consts  --      0.1965                 0.0916                 0.2394
 IR Inten    --      3.7610                41.7717                 0.0927

                     10                     11                     12
                      A                      A                      A
 Frequencies --    380.0403               501.7555               558.5803
 Red. masses --      2.1944                 3.1656                 3.0280
 Frc consts  --      0.1867                 0.4696                 0.5566
 IR Inten    --      5.1424                 0.6585                 1.0237

                     13                     14                     15
                      A                      A                      A
 Frequencies --    718.3039               724.9178               854.3190
 Red. masses --      6.2162                 4.5553                 1.1035
 Frc consts  --      1.8897                 1.4104                 0.4745
 IR Inten    --      2.2287                 2.8150                57.9406

                     16                     17                     18
                      A                      A                      A
 Frequencies --    861.8445               936.5180               949.4829
 Red. masses --      2.5104                 1.7446                 1.6470
 Frc consts  --      1.0986                 0.9015                 0.8748
 IR Inten    --      5.1717                 1.9783                 1.3728

                     19                     20                     21
                      A                      A                      A
 Frequencies --    966.2369              1044.8836              1050.1062
 Red. masses --      1.1995                 1.4767                 1.4052
 Frc consts  --      0.6598                 0.9499                 0.9129
 IR Inten    --      0.4047                12.5899                 0.0270

                     22                     23                     24
                      A                      A                      A
 Frequencies --   1085.6841              1235.1354              1235.1558
 Red. masses --      1.7102                 1.4294                 2.7311
 Frc consts  --      1.1877                 1.2848                 2.4549
 IR Inten    --    141.5580                77.2231                 3.7364

                     25                     26                     27
                      A                      A                      A
 Frequencies --   1246.4763              1261.5005              1385.3427
 Red. masses --      2.6894                 1.9318                 2.1938
 Frc consts  --      2.4619                 1.8113                 2.4807
 IR Inten    --      2.7353                75.9754               169.2672

                     28                     29                     30
                      A                      A                      A
 Frequencies --   1417.1035              1417.9069              1450.1427
 Red. masses --      1.2981                 1.2043                 1.2353
 Frc consts  --      1.5359                 1.4265                 1.5305
 IR Inten    --      8.1210                 3.1396                 9.8155

                     31                     32                     33
                      A                      A                      A
 Frequencies --   1494.7235              1498.9330              1503.6283
 Red. masses --      1.0456                 1.0487                 1.0525
 Frc consts  --      1.3764                 1.3882                 1.4020
 IR Inten    --      0.3369                 0.2632                 3.3553

                     34                     35                     36
                      A                      A                      A
 Frequencies --   1520.7670              1520.8535              1534.3990
 Red. masses --      1.0501                 1.0531                 1.0650
 Frc consts  --      1.4308                 1.4351                 1.4773
 IR Inten    --      5.7254                10.7990                21.0360

                     37                     38                     39
                      A                      A                      A
 Frequencies --   1758.4917              3039.9485              3041.9207
 Red. masses --      8.0545                 1.0358                 1.0351
 Frc consts  --     14.6747                 5.6397                 5.6431
 IR Inten    --    149.8174                17.3451                34.1762

                     40                     41                     42
                      A                      A                      A
 Frequencies --   3048.3524              3105.5080              3110.1467
 Red. masses --      1.0366                 1.1012                 1.1010
 Frc consts  --      5.6754                 6.2572                 6.2749
 IR Inten    --      3.9940                 1.4100                53.9599

                     43                     44                     45
                      A                      A                      A
 Frequencies --   3118.5526              3118.6505              3125.0475
 Red. masses --      1.1034                 1.1022                 1.1032
 Frc consts  --      6.3227                 6.3160                 6.3475
 IR Inten    --     10.9965                11.6827                25.7375

                     46                     47                     48
                      A                      A                      A
 Frequencies --   3127.0025              3543.2376              3845.2804
 Red. masses --      1.1027                 1.0746                 1.0657
 Frc consts  --      6.3526                 7.9487                 9.2837
 IR Inten    --     42.4090                 0.7097                27.8199

 - Thermochemistry -
 -------------------
 Temperature   298.150 Kelvin.  Pressure   1.00000 Atm.
 Atom     1 has atomic number  6 and mass  12.00000

 Molecular mass:   101.08406 amu.
 Principal axes and moments of inertia in atomic units:
                           1         2         3
     Eigenvalues --   556.78659 776.49363 930.05863
           X            0.99998  -0.00694   0.00000
           Y            0.00694   0.99998  -0.00000
           Z           -0.00000   0.00000   1.00000
 This molecule is an asymmetric top.
 Rotational symmetry number  1.
 Warning -- assumption of classical behavior for rotation
           may cause significant error
 Rotational temperatures (Kelvin)      0.15556     0.11154     0.09313
 Rotational constants (GHZ):           3.24135     2.32422     1.94046
 Zero-point vibrational energy     417376.3 (Joules/Mol)
                                   99.75532 (Kcal/Mol)
 Warning -- explicit consideration of  12 degrees of freedom as
           vibrations may cause significant error
 Vibrational temperatures:     98.17   287.57   347.02   373.01   402.14
          (Kelvin)            436.12   511.27   514.76   544.85   546.79
                              721.91   803.67  1033.48  1042.99  1229.17
                             1240.00  1347.44  1366.09  1390.20  1503.35
                             1510.87  1562.06  1777.08  1777.11  1793.40
                             1815.02  1993.20  2038.89  2040.05  2086.43
                             2150.57  2156.63  2163.38  2188.04  2188.17
                             2207.66  2530.07  4373.80  4376.64  4385.89
                             4468.13  4474.80  4486.90  4487.04  4496.24
                             4499.05  5097.92  5532.49

 Zero-point correction=                           0.158970 (Hartree/Particle)
 Thermal correction to Energy=                    0.167441
 Thermal correction to Enthalpy=                  0.168386
 Thermal correction to Gibbs Free Energy=         0.126933
 Sum of electronic and zero-point Energies=           -326.981303
 Sum of electronic and thermal Energies=              -326.972832
 Sum of electronic and thermal Enthalpies=            -326.971888
 Sum of electronic and thermal Free Energies=         -327.013340

                     E (Thermal)             CV                S
                      KCal/Mol        Cal/Mol-Kelvin    Cal/Mol-Kelvin
 Total                  105.071             31.714             87.244
 Electronic               0.000              0.000              0.000
 Translational            0.889              2.981             39.750
 Rotational               0.889              2.981             27.488
 Vibrational            103.294             25.753             20.005
 Vibration     1          0.598              1.969              4.204
 Vibration     2          0.638              1.840              2.134
 Vibration     3          0.658              1.777              1.794
 Vibration     4          0.668              1.747              1.667
 Vibration     5          0.680              1.711              1.537
 Vibration     6          0.695              1.668              1.400
 Vibration     7          0.731              1.564              1.142
 Vibration     8          0.733              1.559              1.132
 Vibration     9          0.749              1.516              1.044
 Vibration    10          0.750              1.513              1.039
 Vibration    11          0.857              1.246              0.654
 Vibration    12          0.914              1.121              0.527

 Optimization completed.
    -- Stationary point found.
 Normal termination of Gaussian 09 at Thu Sep  8 15:22:10 2022.
