 Gaussian 09, Revision E.01,
 Gaussian 09:  ES64L-G09RevE.01 30-Nov-2015

 ----------------------------
 #P OPT Freq B3LYP/6-31G(d,p)
 ----------------------------

 --------
 Frag_777
 --------
 Symbolic Z-matrix:
 Charge =  0 Multiplicity = 1

 SCF Done:  E(RB3LYP) =  -264.476413959     A.U. after   17 cycles
 SCF Done:  E(RB3LYP) =  -264.476524102     A.U. after   12 cycles
 SCF Done:  E(RB3LYP) =  -264.476538451     A.U. after   11 cycles
 SCF Done:  E(RB3LYP) =  -264.476545980     A.U. after    9 cycles
 SCF Done:  E(RB3LYP) =  -264.476534812     A.U. after    9 cycles
 SCF Done:  E(RB3LYP) =  -264.476549330     A.U. after    9 cycles
 Optimization completed.
    -- Stationary point found.
 Normal termination of Gaussian 09 at Thu Sep  8 15:12:29 2022.

 ----------------------------------------------------------------------
 #P Geom=AllCheck Guess=TCheck SCRF=Check GenChk RB3LYP/6-31G(d,p) Freq
 ----------------------------------------------------------------------

 Structure from the checkpoint file:  "B3LYP6-31Gdp.Frag_777.chk"
 --------
 Frag_777
 --------
 Charge =  0 Multiplicity = 1

                         Standard orientation:
 ---------------------------------------------------------------------
 Center     Atomic      Atomic             Coordinates (Angstroms)
 Number     Number       Type             X           Y           Z
 ---------------------------------------------------------------------
      1          6           0       -0.565924    1.354283    0.000003
      2          6           0       -0.599481   -0.191741   -0.000108
      3          8           0       -1.690241   -0.762250    0.000050
      4          7           0        0.552861   -0.919225   -0.000019
      5          7           0        1.740868   -0.026715    0.000021
      6          1           0       -1.599584    1.697600    0.000168
      7          1           0       -0.069305    1.773233    0.887319
      8          1           0       -0.069548    1.773370   -0.887383
      9          1           0        1.830615    0.582635   -0.826375
     10          1           0        2.535616   -0.665276    0.000152
     11          1           0        1.830454    0.582773    0.826333
 ---------------------------------------------------------------------

 SCF Done:  E(RB3LYP) =  -264.476549330     A.U. after    1 cycles

 The electronic state is 1-A.
 Alpha  occ. eigenvalues --  -19.06145 -14.48704 -14.30817 -10.24120 -10.18356
 Alpha  occ. eigenvalues --   -1.03151  -0.97101  -0.80136  -0.71558  -0.60439
 Alpha  occ. eigenvalues --   -0.59373  -0.52801  -0.46256  -0.42381  -0.40354
 Alpha  occ. eigenvalues --   -0.35817  -0.32895  -0.27321  -0.20037  -0.19849
 Alpha virt. eigenvalues --    0.00075   0.05754   0.06599   0.07245   0.10994
 Alpha virt. eigenvalues --    0.14918   0.17034   0.21200   0.24398   0.37331
 Alpha virt. eigenvalues --    0.39308   0.51506   0.54871   0.56603   0.61124

 Mulliken charges:
               1
     1  C   -0.432071
     2  C    0.523064
     3  O   -0.520759
     4  N   -0.445711
     5  N   -0.413352
     6  H    0.153513
     7  H    0.091273
     8  H    0.091286
     9  H    0.306626
    10  H    0.339511
    11  H    0.306620
 Sum of Mulliken charges =   0.00000

 Dipole moment (field-independent basis, Debye):
    X=              7.5564    Y=              4.3842    Z=             -0.0001  Tot=              8.7362
 Quadrupole moment (field-independent basis, Debye-Ang):
   XX=            -23.5028   YY=            -33.8958   ZZ=            -28.9020
   XY=             -1.9464   XZ=              0.0005   YZ=              0.0000

  Exact polarizability:  53.821   2.548  39.197  -0.000  -0.001  27.439
 Approx polarizability:  86.041   8.536  55.940  -0.001  -0.001  39.132

                      1                      2                      3
                      A                      A                      A
 Frequencies --     92.6423               170.6026               208.7696
 Red. masses --      1.0776                 1.3153                 2.1322
 Frc consts  --      0.0054                 0.0226                 0.0548
 IR Inten    --      0.7115                 5.0572                16.4525

                      4                      5                      6
                      A                      A                      A
 Frequencies --    328.6725               495.0057               547.4208
 Red. masses --      2.8669                 2.9474                 5.5060
 Frc consts  --      0.1825                 0.4255                 0.9721
 IR Inten    --     10.9043                 1.7296                 6.4151

                      7                      8                      9
                      A                      A                      A
 Frequencies --    579.4248               714.0670               846.5436
 Red. masses --      2.5611                 6.0242                 7.2733
 Frc consts  --      0.5066                 1.8098                 3.0710
 IR Inten    --      7.4740                14.4879                10.1660

                     10                     11                     12
                      A                      A                      A
 Frequencies --    978.2019              1021.4000              1029.9275
 Red. masses --      1.4060                 1.3805                 1.5631
 Frc consts  --      0.7927                 0.8485                 0.9769
 IR Inten    --     33.4348                 5.7875                18.4208

                     13                     14                     15
                      A                      A                      A
 Frequencies --   1083.1606              1345.8881              1394.4193
 Red. masses --      1.4718                 2.1096                 1.7466
 Frc consts  --      1.0174                 2.2515                 2.0010
 IR Inten    --     41.0935                67.3438                79.5806

                     16                     17                     18
                      A                      A                      A
 Frequencies --   1468.6091              1479.8683              1513.7051
 Red. masses --      1.1791                 1.1390                 1.0489
 Frc consts  --      1.4984                 1.4697                 1.4160
 IR Inten    --     54.1958                 0.6132                 4.5358

                     19                     20                     21
                      A                      A                      A
 Frequencies --   1655.0310              1655.2613              1744.1654
 Red. masses --      1.0572                 1.0563                 9.8126
 Frc consts  --      1.7061                 1.7052                17.5876
 IR Inten    --     84.0943                42.6620               300.9745

                     22                     23                     24
                      A                      A                      A
 Frequencies --   3001.8236              3056.1765              3171.8120
 Red. masses --      1.0429                 1.1003                 1.0948
 Frc consts  --      5.5369                 6.0553                 6.4894
 IR Inten    --     26.2505                40.9246                 4.1800

                     25                     26                     27
                      A                      A                      A
 Frequencies --   3291.9981              3346.1447              3538.7949
 Red. masses --      1.0327                 1.0957                 1.0833
 Frc consts  --      6.5937                 7.2279                 7.9926
 IR Inten    --     26.3201                 1.5856                64.9190

 - Thermochemistry -
 -------------------
 Temperature   298.150 Kelvin.  Pressure   1.00000 Atm.
 Atom     1 has atomic number  6 and mass  12.00000

 Molecular mass:    74.04801 amu.
 Principal axes and moments of inertia in atomic units:
                           1         2         3
     Eigenvalues --   201.44546 425.55307 605.83273
           X            0.99941  -0.03425   0.00000
           Y            0.03425   0.99941   0.00000
           Z           -0.00000  -0.00000   1.00000
 This molecule is an asymmetric top.
 Rotational symmetry number  1.
 Rotational temperatures (Kelvin)      0.42996     0.20353     0.14297
 Rotational constants (GHZ):           8.95896     4.24093     2.97894
 Zero-point vibrational energy     237814.8 (Joules/Mol)
                                   56.83911 (Kcal/Mol)
 Warning -- explicit consideration of   7 degrees of freedom as
           vibrations may cause significant error
 Vibrational temperatures:    133.29   245.46   300.37   472.89   712.20
          (Kelvin)            787.62   833.66  1027.38  1217.99  1407.41
                             1469.56  1481.83  1558.42  1936.43  2006.26
                             2113.00  2129.20  2177.88  2381.22  2381.55
                             2509.46  4318.95  4397.15  4563.52  4736.45
                             4814.35  5091.53

 Zero-point correction=                           0.090579 (Hartree/Particle)
 Thermal correction to Energy=                    0.096638
 Thermal correction to Enthalpy=                  0.097582
 Thermal correction to Gibbs Free Energy=         0.061362
 Sum of electronic and zero-point Energies=           -264.385970
 Sum of electronic and thermal Energies=              -264.379911
 Sum of electronic and thermal Enthalpies=            -264.378967
 Sum of electronic and thermal Free Energies=         -264.415188

                     E (Thermal)             CV                S
                      KCal/Mol        Cal/Mol-Kelvin    Cal/Mol-Kelvin
 Total                   60.641             20.087             76.232
 Electronic               0.000              0.000              0.000
 Translational            0.889              2.981             38.822
 Rotational               0.889              2.981             25.455
 Vibrational             58.864             14.125             11.955
 Vibration     1          0.602              1.954              3.603
 Vibration     2          0.626              1.879              2.429
 Vibration     3          0.642              1.827              2.054
 Vibration     4          0.712              1.618              1.267
 Vibration     5          0.851              1.261              0.671
 Vibration     6          0.903              1.145              0.550
 Vibration     7          0.936              1.076              0.486

 Optimization completed.
    -- Stationary point found.
 Normal termination of Gaussian 09 at Thu Sep  8 15:12:37 2022.
