 Gaussian 09, Revision E.01,
 Gaussian 09:  ES64L-G09RevE.01 30-Nov-2015

 ----------------------------
 #P OPT Freq B3LYP/6-31G(d,p)
 ----------------------------

 --------
 Frag_491
 --------
 Symbolic Z-matrix:
 Charge =  0 Multiplicity = 1

 SCF Done:  E(RB3LYP) =  -266.731911921     A.U. after   14 cycles
 SCF Done:  E(RB3LYP) =  -266.731961246     A.U. after    9 cycles
 SCF Done:  E(RB3LYP) =  -266.731963355     A.U. after    8 cycles
 SCF Done:  E(RB3LYP) =  -266.731963600     A.U. after    8 cycles
 Optimization completed.
    -- Stationary point found.
 Normal termination of Gaussian 09 at Thu Sep  8 14:55:03 2022.

 ----------------------------------------------------------------------
 #P Geom=AllCheck Guess=TCheck SCRF=Check GenChk RB3LYP/6-31G(d,p) Freq
 ----------------------------------------------------------------------

 Structure from the checkpoint file:  "B3LYP6-31Gdp.Frag_491.chk"
 --------
 Frag_491
 --------
 Charge =  0 Multiplicity = 1

                         Standard orientation:
 ---------------------------------------------------------------------
 Center     Atomic      Atomic             Coordinates (Angstroms)
 Number     Number       Type             X           Y           Z
 ---------------------------------------------------------------------
      1          6           0        1.547400    1.110180    0.000047
      2          6           0        0.773750   -0.185887   -0.000507
      3          7           0        1.407838   -1.291904    0.000307
      4          6           0       -0.751638   -0.135307   -0.000547
      5          6           0       -1.429863    1.215786    0.000207
      6          7           0       -1.354660   -1.260739   -0.000011
      7          1           0        1.314164    1.719430    0.881148
      8          1           0        2.613932    0.883662    0.000612
      9          1           0        1.315119    1.719479   -0.881261
     10          1           0        0.717759   -2.055506    0.000502
     11          1           0       -2.517454    1.105752    0.000888
     12          1           0       -1.141026    1.801730    0.879662
     13          1           0       -1.142162    1.802086   -0.879370
     14          1           0       -2.370473   -1.136761    0.000547
 ---------------------------------------------------------------------

 SCF Done:  E(RB3LYP) =  -266.731963600     A.U. after    1 cycles

 The electronic state is 1-A.
 Alpha  occ. eigenvalues --  -14.33061 -14.31082 -10.25003 -10.23436 -10.20539
 Alpha  occ. eigenvalues --  -10.18684  -0.93202  -0.88086  -0.75792  -0.71915
 Alpha  occ. eigenvalues --   -0.62468  -0.53087  -0.48520  -0.46950  -0.45227
 Alpha  occ. eigenvalues --   -0.41574  -0.41497  -0.39065  -0.38591  -0.34349
 Alpha  occ. eigenvalues --   -0.28231  -0.27698  -0.25800
 Alpha virt. eigenvalues --   -0.04942   0.06570   0.07384   0.10202   0.12237
 Alpha virt. eigenvalues --    0.14035   0.15708   0.17079   0.17900   0.23390
 Alpha virt. eigenvalues --    0.23869   0.24191   0.31625   0.38183   0.41961

 Mulliken charges:
               1
     1  C   -0.366580
     2  C    0.276494
     3  N   -0.512219
     4  C    0.267161
     5  C   -0.373815
     6  N   -0.533871
     7  H    0.116875
     8  H    0.142009
     9  H    0.116851
    10  H    0.253237
    11  H    0.113424
    12  H    0.135286
    13  H    0.135267
    14  H    0.229880
 Sum of Mulliken charges =  -0.00000

 Dipole moment (field-independent basis, Debye):
    X=             -2.4359    Y=              2.9833    Z=              0.0003  Tot=              3.8514
 Quadrupole moment (field-independent basis, Debye-Ang):
   XX=            -36.7946   YY=            -38.4046   ZZ=            -36.9349
   XY=              2.1085   XZ=             -0.0029   YZ=             -0.0005

  Exact polarizability:  62.837   0.924  64.391  -0.001  -0.009  33.564
 Approx polarizability:  87.265   0.337 100.318   0.000  -0.023  49.551

                      1                      2                      3
                      A                      A                      A
 Frequencies --     50.0860               145.1776               220.7393
 Red. masses --      3.3850                 1.0658                 1.0340
 Frc consts  --      0.0050                 0.0132                 0.0297
 IR Inten    --      0.4628                 0.0001                 0.4889

                      4                      5                      6
                      A                      A                      A
 Frequencies --    280.6848               369.5637               429.8141
 Red. masses --      2.8697                 3.1161                 3.8497
 Frc consts  --      0.1332                 0.2507                 0.4190
 IR Inten    --      1.2709                 0.0061                 6.9774

                      7                      8                      9
                      A                      A                      A
 Frequencies --    443.8282               572.9642               597.8258
 Red. masses --      2.7717                 3.3783                 2.2219
 Frc consts  --      0.3217                 0.6534                 0.4679
 IR Inten    --      1.0129                27.0990                11.2587

                     10                     11                     12
                      A                      A                      A
 Frequencies --    708.8813               858.7370               977.1026
 Red. masses --      3.3777                 1.1150                 1.3493
 Frc consts  --      1.0000                 0.4844                 0.7590
 IR Inten    --      2.3051                 7.9660                98.1075

                     13                     14                     15
                      A                      A                      A
 Frequencies --    979.4413              1009.8307              1078.4157
 Red. masses --      1.7968                 2.3819                 1.7038
 Frc consts  --      1.0156                 1.4311                 1.1675
 IR Inten    --      8.2920                17.3209                 8.3360

                     16                     17                     18
                      A                      A                      A
 Frequencies --   1078.8004              1100.9976              1122.7468
 Red. masses --      1.5223                 1.3225                 1.5392
 Frc consts  --      1.0438                 0.9445                 1.1431
 IR Inten    --     40.9913                 4.5611                24.1391

                     19                     20                     21
                      A                      A                      A
 Frequencies --   1355.8321              1384.0648              1417.8355
 Red. masses --      1.6246                 1.4869                 1.3034
 Frc consts  --      1.7596                 1.6782                 1.5438
 IR Inten    --    118.5758                33.3346                42.4199

                     22                     23                     24
                      A                      A                      A
 Frequencies --   1433.8645              1479.5067              1482.7189
 Red. masses --      1.5470                 1.0552                 1.0469
 Frc consts  --      1.8739                 1.3609                 1.3560
 IR Inten    --     43.0409                14.3799                 1.8913

                     25                     26                     27
                      A                      A                      A
 Frequencies --   1499.9349              1504.2996              1690.8423
 Red. masses --      1.0743                 1.0442                 8.2749
 Frc consts  --      1.4240                 1.3922                13.9385
 IR Inten    --     15.2810                17.7471                48.1165

                     28                     29                     30
                      A                      A                      A
 Frequencies --   1747.3599              3040.6227              3046.8684
 Red. masses --      9.2040                 1.0389                 1.0368
 Frc consts  --     16.5574                 5.6589                 5.6708
 IR Inten    --      1.6596                 2.6918                15.9410

                     31                     32                     33
                      A                      A                      A
 Frequencies --   3095.4062              3109.9959              3131.8291
 Red. masses --      1.0998                 1.0998                 1.1037
 Frc consts  --      6.2085                 6.2675                 6.3785
 IR Inten    --      9.9947                16.2146                19.6018

                     34                     35                     36
                      A                      A                      A
 Frequencies --   3163.5535              3394.5270              3459.1057
 Red. masses --      1.0997                 1.0721                 1.0754
 Frc consts  --      6.4846                 7.2784                 7.5813
 IR Inten    --      7.5092                 4.3288                 1.6521

 - Thermochemistry -
 -------------------
 Temperature   298.150 Kelvin.  Pressure   1.00000 Atm.
 Atom     1 has atomic number  6 and mass  12.00000

 Molecular mass:    84.06875 amu.
 Principal axes and moments of inertia in atomic units:
                           1         2         3
     Eigenvalues --   362.72988 533.44362 873.85859
           X            0.99975   0.02219  -0.00001
           Y           -0.02219   0.99975   0.00000
           Z            0.00001   0.00000   1.00000
 This molecule is an asymmetric top.
 Rotational symmetry number  1.
 Rotational temperatures (Kelvin)      0.23878     0.16237     0.09912
 Rotational constants (GHZ):           4.97544     3.38319     2.06526
 Zero-point vibrational energy     313803.2 (Joules/Mol)
                                   75.00077 (Kcal/Mol)
 Warning -- explicit consideration of   9 degrees of freedom as
           vibrations may cause significant error
 Vibrational temperatures:     72.06   208.88   317.59   403.84   531.72
          (Kelvin)            618.41   638.57   824.37   860.14  1019.92
                             1235.53  1405.83  1409.20  1452.92  1551.60
                             1552.15  1584.09  1615.38  1950.74  1991.36
                             2039.95  2063.01  2128.68  2133.30  2158.07
                             2164.35  2432.74  2514.06  4374.77  4383.76
                             4453.59  4474.58  4506.00  4551.64  4883.96
                             4976.88

 Zero-point correction=                           0.119521 (Hartree/Particle)
 Thermal correction to Energy=                    0.126486
 Thermal correction to Enthalpy=                  0.127430
 Thermal correction to Gibbs Free Energy=         0.088608
 Sum of electronic and zero-point Energies=           -266.612442
 Sum of electronic and thermal Energies=              -266.605478
 Sum of electronic and thermal Enthalpies=            -266.604534
 Sum of electronic and thermal Free Energies=         -266.643356

                     E (Thermal)             CV                S
                      KCal/Mol        Cal/Mol-Kelvin    Cal/Mol-Kelvin
 Total                   79.371             24.292             81.707
 Electronic               0.000              0.000              0.000
 Translational            0.889              2.981             39.201
 Rotational               0.889              2.981             26.628
 Vibrational             77.594             18.330             15.879
 Vibration     1          0.595              1.978              4.814
 Vibration     2          0.617              1.908              2.734
 Vibration     3          0.647              1.810              1.953
 Vibration     4          0.680              1.709              1.529
 Vibration     5          0.742              1.535              1.082
 Vibration     6          0.791              1.405              0.859
 Vibration     7          0.803              1.375              0.815
 Vibration     8          0.929              1.090              0.499
 Vibration     9          0.956              1.036              0.453

 Optimization completed.
    -- Stationary point found.
 Normal termination of Gaussian 09 at Thu Sep  8 14:55:14 2022.
