 Gaussian 09, Revision E.01,
 Gaussian 09:  ES64L-G09RevE.01 30-Nov-2015

 ----------------------------
 #P OPT Freq B3LYP/6-31G(d,p)
 ----------------------------

 --------
 Frag_893
 --------
 Symbolic Z-matrix:
 Charge =  0 Multiplicity = 1

 SCF Done:  E(RB3LYP) =  -285.204072788     A.U. after   12 cycles
 SCF Done:  E(RB3LYP) =  -285.204096009     A.U. after   10 cycles
 SCF Done:  E(RB3LYP) =  -285.204096339     A.U. after    9 cycles
 SCF Done:  E(RB3LYP) =  -285.204100714     A.U. after    8 cycles
 SCF Done:  E(RB3LYP) =  -285.204101076     A.U. after    7 cycles
 SCF Done:  E(RB3LYP) =  -285.204101139     A.U. after    6 cycles
 Optimization completed.
    -- Stationary point found.
 Normal termination of Gaussian 09 at Thu Sep  8 15:17:07 2022.

 ----------------------------------------------------------------------
 #P Geom=AllCheck Guess=TCheck SCRF=Check GenChk RB3LYP/6-31G(d,p) Freq
 ----------------------------------------------------------------------

 Structure from the checkpoint file:  "B3LYP6-31Gdp.Frag_893.chk"
 --------
 Frag_893
 --------
 Charge =  0 Multiplicity = 1

                         Standard orientation:
 ---------------------------------------------------------------------
 Center     Atomic      Atomic             Coordinates (Angstroms)
 Number     Number       Type             X           Y           Z
 ---------------------------------------------------------------------
      1          6           0        1.044415    1.175693    0.772907
      2          6           0        0.715357    0.263890   -0.419522
      3          7           0        1.621853   -0.876992   -0.583699
      4          6           0       -0.719318   -0.306414   -0.357729
      5          7           0       -1.694569    0.794326   -0.408297
      6          7           0       -0.886881   -1.109146    0.850976
      7          1           0        0.320856    1.991243    0.866766
      8          1           0        2.042466    1.612162    0.653716
      9          1           0        1.043532    0.603296    1.707213
     10          1           0        0.776961    0.865452   -1.339359
     11          1           0        1.450914   -1.510761    0.196860
     12          1           0        2.586654   -0.563349   -0.503671
     13          1           0       -0.802458   -1.005740   -1.204056
     14          1           0       -2.632598    0.410998   -0.508628
     15          1           0       -1.532287    1.366766   -1.235872
     16          1           0       -1.101834   -0.486562    1.627566
     17          1           0       -1.677756   -1.739829    0.752676
 ---------------------------------------------------------------------

 SCF Done:  E(RB3LYP) =  -285.204101139     A.U. after    1 cycles

 The electronic state is 1-A.
 Alpha  occ. eigenvalues --  -14.31281 -14.31229 -14.29374 -10.23019 -10.20114
 Alpha  occ. eigenvalues --  -10.16222  -0.91802  -0.86032  -0.83245  -0.71779
 Alpha  occ. eigenvalues --   -0.64964  -0.55812  -0.50538  -0.48208  -0.47729
 Alpha  occ. eigenvalues --   -0.42735  -0.41951  -0.40474  -0.38844  -0.37536
 Alpha  occ. eigenvalues --   -0.33671  -0.32357  -0.25182  -0.23647  -0.22013
 Alpha virt. eigenvalues --    0.06853   0.10110   0.11595   0.13812   0.14309
 Alpha virt. eigenvalues --    0.16097   0.17718   0.18163   0.19463   0.19881
 Alpha virt. eigenvalues --    0.20537   0.22860   0.25256   0.27984   0.28697

 Mulliken charges:
               1
     1  C   -0.323844
     2  C    0.077041
     3  N   -0.604900
     4  C    0.156109
     5  N   -0.599798
     6  N   -0.595424
     7  H    0.113684
     8  H    0.089447
     9  H    0.100623
    10  H    0.077936
    11  H    0.248505
    12  H    0.226074
    13  H    0.091883
    14  H    0.227167
    15  H    0.233438
    16  H    0.244482
    17  H    0.237577
 Sum of Mulliken charges =  -0.00000

 Dipole moment (field-independent basis, Debye):
    X=             -1.3667    Y=              0.4168    Z=              0.0379  Tot=              1.4293
 Quadrupole moment (field-independent basis, Debye-Ang):
   XX=            -32.3681   YY=            -40.8633   ZZ=            -38.7969
   XY=              3.5265   XZ=              2.6376   YZ=             -3.3199

  Exact polarizability:  59.895   0.791  54.292  -0.026  -2.218  49.558
 Approx polarizability:  75.781   0.176  75.207  -1.329  -4.285  69.973

                      1                      2                      3
                      A                      A                      A
 Frequencies --    107.0913               240.7923               259.9434
 Red. masses --      2.9966                 1.1547                 1.4584
 Frc consts  --      0.0202                 0.0394                 0.0581
 IR Inten    --      2.1918                 4.1975                30.8132

                      4                      5                      6
                      A                      A                      A
 Frequencies --    267.6631               279.7031               308.7242
 Red. masses --      1.2918                 2.1497                 1.3337
 Frc consts  --      0.0545                 0.0991                 0.0749
 IR Inten    --      5.7280                 2.4827                13.5559

                      7                      8                      9
                      A                      A                      A
 Frequencies --    349.1092               386.9656               441.9350
 Red. masses --      1.2060                 2.7705                 2.3219
 Frc consts  --      0.0866                 0.2444                 0.2672
 IR Inten    --     89.8498                 9.7742                18.5484

                     10                     11                     12
                      A                      A                      A
 Frequencies --    539.7422               621.7988               777.7652
 Red. masses --      3.1824                 2.2089                 2.4297
 Frc consts  --      0.5462                 0.5032                 0.8660
 IR Inten    --     25.4891                 4.2629                11.6300

                     13                     14                     15
                      A                      A                      A
 Frequencies --    866.0422               890.5346               908.3640
 Red. masses --      1.7259                 1.5668                 1.5408
 Frc consts  --      0.7627                 0.7321                 0.7491
 IR Inten    --    111.6553                13.4566               295.3207

                     16                     17                     18
                      A                      A                      A
 Frequencies --    941.5588              1010.0022              1040.7133
 Red. masses --      1.3300                 1.4173                 1.8005
 Frc consts  --      0.6947                 0.8518                 1.1490
 IR Inten    --      4.7329                14.0253                24.4220

                     19                     20                     21
                      A                      A                      A
 Frequencies --   1052.8049              1086.5036              1159.6484
 Red. masses --      2.0037                 2.3187                 1.3052
 Frc consts  --      1.3085                 1.6127                 1.0341
 IR Inten    --     11.2834                27.3459                16.8250

                     22                     23                     24
                      A                      A                      A
 Frequencies --   1218.8720              1233.5643              1291.6647
 Red. masses --      1.8587                 1.4132                 1.5703
 Frc consts  --      1.6270                 1.2670                 1.5436
 IR Inten    --      4.1465                 4.5149                 4.8230

                     25                     26                     27
                      A                      A                      A
 Frequencies --   1362.8974              1378.7373              1413.0958
 Red. masses --      1.3140                 1.3085                 1.2786
 Frc consts  --      1.4380                 1.4655                 1.5043
 IR Inten    --     22.1899                 5.5625                11.5831

                     28                     29                     30
                      A                      A                      A
 Frequencies --   1419.4847              1461.4950              1506.0367
 Red. masses --      1.4497                 1.4197                 1.0464
 Frc consts  --      1.7210                 1.7867                 1.3984
 IR Inten    --      1.2968                16.0261                 1.6349

                     31                     32                     33
                      A                      A                      A
 Frequencies --   1520.7849              1649.3763              1655.5373
 Red. masses --      1.0701                 1.0915                 1.0974
 Frc consts  --      1.4581                 1.7496                 1.7722
 IR Inten    --      4.1609                32.6964                38.2301

                     34                     35                     36
                      A                      A                      A
 Frequencies --   1669.3382              2995.1261              3005.6298
 Red. masses --      1.0966                 1.0838                 1.0850
 Frc consts  --      1.8004                 5.7283                 5.7751
 IR Inten    --     27.2994                45.9083                61.4290

                     37                     38                     39
                      A                      A                      A
 Frequencies --   3037.7495              3104.6430              3123.0851
 Red. masses --      1.0356                 1.1021                 1.1018
 Frc consts  --      5.6307                 6.2590                 6.3319
 IR Inten    --     21.3084                35.8946                25.1027

                     40                     41                     42
                      A                      A                      A
 Frequencies --   3470.2271              3471.1541              3492.9616
 Red. masses --      1.0496                 1.0496                 1.0492
 Frc consts  --      7.4470                 7.4511                 7.5421
 IR Inten    --      3.1232                 6.3882                 0.4491

                     43                     44                     45
                      A                      A                      A
 Frequencies --   3557.3516              3560.9123              3579.9584
 Red. masses --      1.0921                 1.0918                 1.0926
 Frc consts  --      8.1428                 8.1564                 8.2501
 IR Inten    --      1.0662                 0.4905                 0.8686

 - Thermochemistry -
 -------------------
 Temperature   298.150 Kelvin.  Pressure   1.00000 Atm.
 Atom     1 has atomic number  6 and mass  12.00000

 Molecular mass:    89.09530 amu.
 Principal axes and moments of inertia in atomic units:
                           1         2         3
     Eigenvalues --   402.43561 654.63293 766.23877
           X            0.99899   0.03781   0.02421
           Y           -0.03777   0.99928  -0.00212
           Z           -0.02427   0.00120   0.99970
 This molecule is an asymmetric top.
 Rotational symmetry number  1.
 Rotational temperatures (Kelvin)      0.21522     0.13231     0.11304
 Rotational constants (GHZ):           4.48455     2.75688     2.35532
 Zero-point vibrational energy     411019.5 (Joules/Mol)
                                   98.23601 (Kcal/Mol)
 Warning -- explicit consideration of  10 degrees of freedom as
           vibrations may cause significant error
 Vibrational temperatures:    154.08   346.45   374.00   385.11   402.43
          (Kelvin)            444.18   502.29   556.76   635.85   776.57
                              894.63  1119.03  1246.04  1281.28  1306.93
                             1354.69  1453.17  1497.35  1514.75  1563.23
                             1668.47  1753.68  1774.82  1858.42  1960.90
                             1983.69  2033.13  2042.32  2102.76  2166.85
                             2188.07  2373.08  2381.95  2401.80  4309.31
                             4324.43  4370.64  4466.88  4493.42  4992.88
                             4994.21  5025.59  5118.23  5123.35  5150.76

 Zero-point correction=                           0.156549 (Hartree/Particle)
 Thermal correction to Energy=                    0.164231
 Thermal correction to Enthalpy=                  0.165176
 Thermal correction to Gibbs Free Energy=         0.125820
 Sum of electronic and zero-point Energies=           -285.047552
 Sum of electronic and thermal Energies=              -285.039870
 Sum of electronic and thermal Enthalpies=            -285.038926
 Sum of electronic and thermal Free Energies=         -285.078281

                     E (Thermal)             CV                S
                      KCal/Mol        Cal/Mol-Kelvin    Cal/Mol-Kelvin
 Total                  103.057             28.684             82.830
 Electronic               0.000              0.000              0.000
 Translational            0.889              2.981             39.374
 Rotational               0.889              2.981             26.804
 Vibrational            101.279             22.723             16.653
 Vibration     1          0.606              1.944              3.321
 Vibration     2          0.658              1.778              1.797
 Vibration     3          0.668              1.746              1.662
 Vibration     4          0.673              1.733              1.611
 Vibration     5          0.680              1.711              1.535
 Vibration     6          0.698              1.657              1.369
 Vibration     7          0.726              1.577              1.170
 Vibration     8          0.755              1.498              1.012
 Vibration     9          0.802              1.379              0.821
 Vibration    10          0.895              1.162              0.566

 Optimization completed.
    -- Stationary point found.
 Normal termination of Gaussian 09 at Thu Sep  8 15:17:22 2022.
