 Gaussian 09, Revision E.01,
 Gaussian 09:  ES64L-G09RevE.01 30-Nov-2015

 ----------------------------
 #P OPT Freq B3LYP/6-31G(d,p)
 ----------------------------

 --------
 Frag_441
 --------
 Symbolic Z-matrix:
 Charge =  0 Multiplicity = 1

 SCF Done:  E(RB3LYP) =  -327.171867121     A.U. after   13 cycles
 SCF Done:  E(RB3LYP) =  -327.171955218     A.U. after    9 cycles
 SCF Done:  E(RB3LYP) =  -327.171957794     A.U. after    8 cycles
 SCF Done:  E(RB3LYP) =  -327.171955199     A.U. after    9 cycles
 SCF Done:  E(RB3LYP) =  -327.171959302     A.U. after    8 cycles
 Optimization completed.
    -- Stationary point found.
 Normal termination of Gaussian 09 at Thu Sep  8 15:15:40 2022.

 ----------------------------------------------------------------------
 #P Geom=AllCheck Guess=TCheck SCRF=Check GenChk RB3LYP/6-31G(d,p) Freq
 ----------------------------------------------------------------------

 Structure from the checkpoint file:  "B3LYP6-31Gdp.Frag_441.chk"
 --------
 Frag_441
 --------
 Charge =  0 Multiplicity = 1

                         Standard orientation:
 ---------------------------------------------------------------------
 Center     Atomic      Atomic             Coordinates (Angstroms)
 Number     Number       Type             X           Y           Z
 ---------------------------------------------------------------------
      1          6           0       -0.975565   -0.862159   -1.236334
      2          6           0       -0.572100   -0.027667   -0.000756
      3          6           0       -1.278730    1.335766   -0.046199
      4          6           0       -0.970990   -0.774254    1.291931
      5          6           0        0.956327    0.216643   -0.004430
      6          7           0        1.742441   -0.904669   -0.017284
      7          8           0        1.451850    1.335148   -0.002589
      8          1           0       -0.669347   -0.368034   -2.163783
      9          1           0       -0.531392   -1.863133   -1.228825
     10          1           0       -2.063405   -0.986435   -1.264073
     11          1           0       -0.997769    1.951898    0.810999
     12          1           0       -1.005083    1.889741   -0.947450
     13          1           0       -2.364855    1.195320   -0.037573
     14          1           0       -0.518715   -1.769890    1.355720
     15          1           0       -0.669333   -0.211729    2.181189
     16          1           0       -2.057754   -0.905110    1.328714
     17          1           0        2.741086   -0.774091    0.031588
     18          1           0        1.371026   -1.837022    0.049917
 ---------------------------------------------------------------------

 SCF Done:  E(RB3LYP) =  -327.171959302     A.U. after    1 cycles

 The electronic state is 1-A.
 Alpha  occ. eigenvalues --  -19.10467 -14.35219 -10.27948 -10.20618 -10.18445
 Alpha  occ. eigenvalues --  -10.18368 -10.16677  -1.02357  -0.89729  -0.81241
 Alpha  occ. eigenvalues --   -0.69279  -0.68194  -0.62641  -0.55571  -0.52382
 Alpha  occ. eigenvalues --   -0.47129  -0.44480  -0.43465  -0.41530  -0.40656
 Alpha  occ. eigenvalues --   -0.38442  -0.37302  -0.36393  -0.35188  -0.33119
 Alpha  occ. eigenvalues --   -0.32954  -0.26176  -0.23912
 Alpha virt. eigenvalues --    0.03440   0.05749   0.10512   0.12400   0.13218
 Alpha virt. eigenvalues --    0.14914   0.15957   0.16214   0.18620   0.19365
 Alpha virt. eigenvalues --    0.20418   0.21273   0.22239   0.22996   0.25451

 Mulliken charges:
               1
     1  C   -0.299668
     2  C   -0.060961
     3  C   -0.282270
     4  C   -0.301222
     5  C    0.594919
     6  N   -0.611466
     7  O   -0.511567
     8  H    0.116175
     9  H    0.085456
    10  H    0.107006
    11  H    0.115726
    12  H    0.113959
    13  H    0.084513
    14  H    0.084608
    15  H    0.116414
    16  H    0.108149
    17  H    0.275332
    18  H    0.264898
 Sum of Mulliken charges =  -0.00000

 Dipole moment (field-independent basis, Debye):
    X=             -0.6535    Y=             -3.4186    Z=              0.1779  Tot=              3.4851
 Quadrupole moment (field-independent basis, Debye-Ang):
   XX=            -41.8613   YY=            -45.0131   ZZ=            -44.0699
   XY=             -6.0172   XZ=              0.3592   YZ=             -0.2495

  Exact polarizability:  65.389  -1.146  66.168   0.049  -0.064  52.574
 Approx polarizability:  87.045   1.831 102.271  -0.074   0.056  71.462

                      1                      2                      3
                      A                      A                      A
 Frequencies --     27.7513               124.0049               202.3501
 Red. masses --      5.2846                 1.2177                 1.1957
 Frc consts  --      0.0024                 0.0110                 0.0288
 IR Inten    --      0.7778               201.2821                 2.4749

                      4                      5                      6
                      A                      A                      A
 Frequencies --    236.3510               264.1421               269.2580
 Red. masses --      1.2643                 1.1571                 2.1843
 Frc consts  --      0.0416                 0.0476                 0.0933
 IR Inten    --      3.5609                 1.2832                 3.5943

                      7                      8                      9
                      A                      A                      A
 Frequencies --    291.1690               347.6342               369.4223
 Red. masses --      1.4115                 2.7862                 2.6140
 Frc consts  --      0.0705                 0.1984                 0.2102
 IR Inten    --      5.5939                 5.4057                 0.4735

                     10                     11                     12
                      A                      A                      A
 Frequencies --    379.2033               486.3314               557.7806
 Red. masses --      2.2200                 2.6880                 3.0401
 Frc consts  --      0.1881                 0.3746                 0.5573
 IR Inten    --      0.3635                 3.3156                 5.4420

                     13                     14                     15
                      A                      A                      A
 Frequencies --    569.9219               699.4311               771.8244
 Red. masses --      1.1669                 3.0876                 5.0507
 Frc consts  --      0.2233                 0.8899                 1.7727
 IR Inten    --     10.2881                 4.5945                 4.9639

                     16                     17                     18
                      A                      A                      A
 Frequencies --    857.1029               942.8225               952.5190
 Red. masses --      2.2431                 1.7200                 1.6519
 Frc consts  --      0.9709                 0.9008                 0.8830
 IR Inten    --      4.9426                 0.9550                 1.1490

                     19                     20                     21
                      A                      A                      A
 Frequencies --    970.7055              1043.2413              1053.1346
 Red. masses --      1.2015                 1.4722                 1.4348
 Frc consts  --      0.6670                 0.9440                 0.9376
 IR Inten    --      0.1497                 1.4846                 0.1144

                     22                     23                     24
                      A                      A                      A
 Frequencies --   1092.6515              1235.8722              1236.3552
 Red. masses --      1.7268                 2.4415                 2.6820
 Frc consts  --      1.2146                 2.1972                 2.4154
 IR Inten    --      0.6133                44.6989                10.2656

                     25                     26                     27
                      A                      A                      A
 Frequencies --   1254.3254              1354.8002              1415.5462
 Red. masses --      2.8966                 3.2430                 1.2122
 Frc consts  --      2.6851                 3.5071                 1.4311
 IR Inten    --      9.0208                74.2078                 2.5722

                     28                     29                     30
                      A                      A                      A
 Frequencies --   1418.7621              1449.3638              1491.2145
 Red. masses --      1.2567                 1.2405                 1.0474
 Frc consts  --      1.4904                 1.5353                 1.3722
 IR Inten    --      3.6849                 9.0147                 0.0174

                     31                     32                     33
                      A                      A                      A
 Frequencies --   1496.2443              1498.9882              1514.8785
 Red. masses --      1.0449                 1.0468                 1.0510
 Frc consts  --      1.3782                 1.3858                 1.4211
 IR Inten    --      0.1384                 0.5641                 4.2630

                     34                     35                     36
                      A                      A                      A
 Frequencies --   1520.2067              1530.1353              1624.0028
 Red. masses --      1.0565                 1.0671                 1.2602
 Frc consts  --      1.4385                 1.4720                 1.9583
 IR Inten    --      4.5149                13.5175               122.0369

                     37                     38                     39
                      A                      A                      A
 Frequencies --   1790.0710              3038.4600              3042.7893
 Red. masses --      9.4384                 1.0348                 1.0352
 Frc consts  --     17.8193                 5.6287                 5.6472
 IR Inten    --    266.1858                24.1060                25.6802

                     40                     41                     42
                      A                      A                      A
 Frequencies --   3054.2787              3106.1654              3111.9194
 Red. masses --      1.0380                 1.1021                 1.1014
 Frc consts  --      5.7053                 6.2651                 6.2843
 IR Inten    --     18.2491                 5.3530                61.8696

                     43                     44                     45
                      A                      A                      A
 Frequencies --   3117.6127              3119.0765              3128.3914
 Red. masses --      1.1030                 1.1026                 1.1002
 Frc consts  --      6.3164                 6.3199                 6.3441
 IR Inten    --     15.0473                17.0289                39.0157

                     46                     47                     48
                      A                      A                      A
 Frequencies --   3143.4075              3610.9117              3751.6805
 Red. masses --      1.1025                 1.0450                 1.1047
 Frc consts  --      6.4183                 8.0277                 9.1609
 IR Inten    --     21.6481                27.4079                30.7430

 - Thermochemistry -
 -------------------
 Temperature   298.150 Kelvin.  Pressure   1.00000 Atm.
 Atom     1 has atomic number  6 and mass  12.00000

 Molecular mass:   101.08406 amu.
 Principal axes and moments of inertia in atomic units:
                           1         2         3
     Eigenvalues --   554.71647 774.26532 927.23403
           X            0.99690  -0.07869   0.00195
           Y            0.07870   0.99690  -0.00260
           Z           -0.00174   0.00275   0.99999
 This molecule is an asymmetric top.
 Rotational symmetry number  1.
 Warning -- assumption of classical behavior for rotation
           may cause significant error
 Rotational temperatures (Kelvin)      0.15614     0.11187     0.09341
 Rotational constants (GHZ):           3.25345     2.33091     1.94637
 Zero-point vibrational energy     416086.4 (Joules/Mol)
                                   99.44703 (Kcal/Mol)
 Warning -- explicit consideration of  13 degrees of freedom as
           vibrations may cause significant error
 Vibrational temperatures:     39.93   178.42   291.14   340.06   380.04
          (Kelvin)            387.40   418.93   500.17   531.52   545.59
                              699.72   802.52   819.99  1006.32  1110.48
                             1233.18  1356.51  1370.46  1396.63  1500.99
                             1515.22  1572.08  1778.14  1778.84  1804.69
                             1949.25  2036.65  2041.28  2085.31  2145.52
                             2152.76  2156.71  2179.57  2187.24  2201.52
                             2336.57  2575.51  4371.66  4377.89  4394.42
                             4469.07  4477.35  4485.54  4487.65  4501.05
                             4522.66  5195.29  5397.82

 Zero-point correction=                           0.158479 (Hartree/Particle)
 Thermal correction to Energy=                    0.167521
 Thermal correction to Enthalpy=                  0.168465
 Thermal correction to Gibbs Free Energy=         0.125023
 Sum of electronic and zero-point Energies=           -327.013480
 Sum of electronic and thermal Energies=              -327.004438
 Sum of electronic and thermal Enthalpies=            -327.003494
 Sum of electronic and thermal Free Energies=         -327.046936

                     E (Thermal)             CV                S
                      KCal/Mol        Cal/Mol-Kelvin    Cal/Mol-Kelvin
 Total                  105.121             32.563             91.432
 Electronic               0.000              0.000              0.000
 Translational            0.889              2.981             39.750
 Rotational               0.889              2.981             27.479
 Vibrational            103.344             26.602             24.203
 Vibration     1          0.593              1.984              5.984
 Vibration     2          0.610              1.929              3.037
 Vibration     3          0.639              1.837              2.112
 Vibration     4          0.655              1.785              1.830
 Vibration     5          0.671              1.739              1.634
 Vibration     6          0.674              1.730              1.601
 Vibration     7          0.687              1.690              1.467
 Vibration     8          0.725              1.580              1.177
 Vibration     9          0.742              1.535              1.082
 Vibration    10          0.749              1.514              1.042
 Vibration    11          0.842              1.280              0.693
 Vibration    12          0.913              1.123              0.528
 Vibration    13          0.926              1.096              0.504

 Normal termination of Gaussian 09 at Thu Sep  8 15:15:58 2022.
