 Gaussian 09, Revision E.01,
 Gaussian 09:  ES64L-G09RevE.01 30-Nov-2015

 ----------------------------
 #P OPT Freq B3LYP/6-31G(d,p)
 ----------------------------

 ---------
 Frag_1137
 ---------
 Symbolic Z-matrix:
 Charge =  0 Multiplicity = 1

 SCF Done:  E(RB3LYP) =  -355.650362924     A.U. after   16 cycles
 SCF Done:  E(RB3LYP) =  -355.650484472     A.U. after   12 cycles
 SCF Done:  E(RB3LYP) =  -355.650246733     A.U. after   14 cycles
 SCF Done:  E(RB3LYP) =  -355.650515002     A.U. after    9 cycles
 SCF Done:  E(RB3LYP) =  -355.650517327     A.U. after   10 cycles
 SCF Done:  E(RB3LYP) =  -355.650523432     A.U. after   10 cycles
 SCF Done:  E(RB3LYP) =  -355.650528116     A.U. after   10 cycles
 SCF Done:  E(RB3LYP) =  -355.650529063     A.U. after    8 cycles
 Optimization completed.
    -- Stationary point found.
 Normal termination of Gaussian 09 at Thu Sep  8 14:53:42 2022.

 ----------------------------------------------------------------------
 #P Geom=AllCheck Guess=TCheck SCRF=Check GenChk RB3LYP/6-31G(d,p) Freq
 ----------------------------------------------------------------------

 Structure from the checkpoint file:  "B3LYP6-31Gdp.Frag_1137.chk"
 ---------
 Frag_1137
 ---------
 Charge =  0 Multiplicity = 1

                         Standard orientation:
 ---------------------------------------------------------------------
 Center     Atomic      Atomic             Coordinates (Angstroms)
 Number     Number       Type             X           Y           Z
 ---------------------------------------------------------------------
      1          6           0        1.257209   -1.148321    0.332827
      2          7           0        0.623508   -0.068898   -0.441811
      3          8           0        1.240484    1.142482   -0.042469
      4          7           0       -0.852179    0.003352   -0.038241
      5          7           0       -1.352868    1.085671    0.354553
      6          8           0       -1.432419   -1.062199   -0.230636
      7          1           0        1.310121   -0.903939    1.400317
      8          1           0        2.264065   -1.281419   -0.065216
      9          1           0        0.673684   -2.052493    0.174237
     10          1           0        1.385834    1.600397   -0.884910
     11          1           0       -0.570706    1.744247    0.441938
 ---------------------------------------------------------------------

 SCF Done:  E(RB3LYP) =  -355.650529063     A.U. after    1 cycles

 The electronic state is 1-A.
 Alpha  occ. eigenvalues --  -19.23016 -19.16434 -14.55063 -14.44831 -14.36472
 Alpha  occ. eigenvalues --  -10.23170  -1.18824  -1.11306  -0.97421  -0.88017
 Alpha  occ. eigenvalues --   -0.71152  -0.62221  -0.59980  -0.54078  -0.51320
 Alpha  occ. eigenvalues --   -0.49120  -0.46538  -0.43111  -0.42633  -0.36987
 Alpha  occ. eigenvalues --   -0.32253  -0.29375  -0.27493  -0.27257
 Alpha virt. eigenvalues --   -0.03449   0.03848   0.06781   0.09431   0.12498
 Alpha virt. eigenvalues --    0.14378   0.14993   0.16950   0.17871   0.30427
 Alpha virt. eigenvalues --    0.37062   0.51204   0.51734   0.55082   0.60794

 Mulliken charges:
               1
     1  C   -0.159090
     2  N   -0.127734
     3  O   -0.412087
     4  N    0.373663
     5  N   -0.310651
     6  O   -0.412132
     7  H    0.126376
     8  H    0.136721
     9  H    0.168908
    10  H    0.350556
    11  H    0.265470
 Sum of Mulliken charges =  -0.00000

 Dipole moment (field-independent basis, Debye):
    X=              4.0178    Y=              1.2682    Z=             -0.4337  Tot=              4.2355
 Quadrupole moment (field-independent basis, Debye-Ang):
   XX=            -39.3139   YY=            -31.4271   ZZ=            -34.2232
   XY=             -0.5300   XZ=             -1.0164   YZ=             -3.5838

  Exact polarizability:  47.318  -0.707  51.246  -2.006   2.618  27.737
 Approx polarizability:  69.024   4.007  96.631  -4.240  12.249  42.173

                      1                      2                      3
                      A                      A                      A
 Frequencies --     91.3255               207.6896               334.6433
 Red. masses --      4.6378                 1.0857                 3.1921
 Frc consts  --      0.0228                 0.0276                 0.2106
 IR Inten    --      3.5134                 0.9695                 6.4422

                      4                      5                      6
                      A                      A                      A
 Frequencies --    378.2211               402.1199               474.1194
 Red. masses --      4.5493                 8.1727                 1.1347
 Frc consts  --      0.3834                 0.7786                 0.1503
 IR Inten    --      6.9833                26.3474                68.6678

                      7                      8                      9
                      A                      A                      A
 Frequencies --    503.0874               604.5913               730.0168
 Red. masses --      3.7398                 6.4170                 7.8609
 Frc consts  --      0.5577                 1.3820                 2.4683
 IR Inten    --      6.2827                 1.3031                12.7674

                     10                     11                     12
                      A                      A                      A
 Frequencies --    754.1520               857.9442               888.2412
 Red. masses --      6.7503                 1.1767                 3.6802
 Frc consts  --      2.2620                 0.5103                 1.7107
 IR Inten    --     31.1981                43.6006                44.1709

                     13                     14                     15
                      A                      A                      A
 Frequencies --   1089.4993              1151.9759              1180.9699
 Red. masses --      5.7922                 1.3717                 1.6477
 Frc consts  --      4.0509                 1.0725                 1.3540
 IR Inten    --     60.2656                 5.0005                 3.8018

                     16                     17                     18
                      A                      A                      A
 Frequencies --   1252.9552              1382.3017              1425.7595
 Red. masses --      3.2465                 1.2281                 1.2008
 Frc consts  --      3.0028                 1.3826                 1.4382
 IR Inten    --     63.2060                45.7404                43.3505

                     19                     20                     21
                      A                      A                      A
 Frequencies --   1458.5754              1499.7056              1507.3831
 Red. masses --      1.6920                 1.0489                 1.0604
 Frc consts  --      2.1208                 1.3899                 1.4196
 IR Inten    --    230.1087                10.7648                 5.0282

                     22                     23                     24
                      A                      A                      A
 Frequencies --   1724.4689              3048.6453              3145.4896
 Red. masses --      7.0008                 1.0427                 1.0965
 Frc consts  --     12.2662                 5.7096                 6.3921
 IR Inten    --    194.1169                26.4657                13.6472

                     25                     26                     27
                      A                      A                      A
 Frequencies --   3202.8113              3424.8937              3775.5567
 Red. masses --      1.1022                 1.0703                 1.0679
 Frc consts  --      6.6617                 7.3968                 8.9688
 IR Inten    --      0.4153                26.3936                71.3959

 - Thermochemistry -
 -------------------
 Temperature   298.150 Kelvin.  Pressure   1.00000 Atm.
 Atom     1 has atomic number  6 and mass  12.00000

 Molecular mass:    91.03818 amu.
 Principal axes and moments of inertia in atomic units:
                           1         2         3
     Eigenvalues --   332.03236 489.35702 752.52767
           X            0.99533  -0.09644   0.00435
           Y            0.09652   0.99489  -0.02966
           Z           -0.00147   0.02994   0.99955
 This molecule is an asymmetric top.
 Rotational symmetry number  1.
 Rotational temperatures (Kelvin)      0.26086     0.17700     0.11510
 Rotational constants (GHZ):           5.43544     3.68798     2.39824
 Zero-point vibrational energy     218301.4 (Joules/Mol)
                                   52.17528 (Kcal/Mol)
 Warning -- explicit consideration of   8 degrees of freedom as
           vibrations may cause significant error
 Vibrational temperatures:    131.40   298.82   481.48   544.18   578.56
          (Kelvin)            682.15   723.83   869.87  1050.33  1085.06
                             1234.39  1277.98  1567.54  1657.43  1699.15
                             1802.72  1988.82  2051.35  2098.56  2157.74
                             2168.79  2481.12  4386.32  4525.65  4608.13
                             4927.65  5432.18

 Zero-point correction=                           0.083147 (Hartree/Particle)
 Thermal correction to Energy=                    0.089343
 Thermal correction to Enthalpy=                  0.090287
 Thermal correction to Gibbs Free Energy=         0.053418
 Sum of electronic and zero-point Energies=           -355.567382
 Sum of electronic and thermal Energies=              -355.561186
 Sum of electronic and thermal Enthalpies=            -355.560242
 Sum of electronic and thermal Free Energies=         -355.597111

                     E (Thermal)             CV                S
                      KCal/Mol        Cal/Mol-Kelvin    Cal/Mol-Kelvin
 Total                   56.064             21.881             77.599
 Electronic               0.000              0.000              0.000
 Translational            0.889              2.981             39.438
 Rotational               0.889              2.981             26.306
 Vibrational             54.286             15.919             11.855
 Vibration     1          0.602              1.955              3.631
 Vibration     2          0.641              1.829              2.064
 Vibration     3          0.716              1.606              1.238
 Vibration     4          0.748              1.517              1.046
 Vibration     5          0.768              1.466              0.955
 Vibration     6          0.831              1.307              0.726
 Vibration     7          0.858              1.243              0.650
 Vibration     8          0.963              1.022              0.442

 Normal termination of Gaussian 09 at Thu Sep  8 14:53:51 2022.
