 Gaussian 09, Revision D.01,
 Gaussian 09:  ES64L-G09RevD.01 24-Apr-2013

 --------------------------------
 #P OPT=calcfc Freq B3LYP/6-31G**
 --------------------------------

 -------
 Frag_95
 -------
 Symbolic Z-matrix:
 Charge =  0 Multiplicity = 1

 SCF Done:  E(RB3LYP) =  -209.169023932     A.U. after   13 cycles
 SCF Done:  E(RB3LYP) =  -209.171051659     A.U. after   13 cycles
 SCF Done:  E(RB3LYP) =  -209.172290728     A.U. after   13 cycles
 SCF Done:  E(RB3LYP) =  -209.177258863     A.U. after   14 cycles
 SCF Done:  E(RB3LYP) =  -209.178073262     A.U. after   11 cycles
 SCF Done:  E(RB3LYP) =  -209.178128615     A.U. after   11 cycles
 SCF Done:  E(RB3LYP) =  -209.178183732     A.U. after   11 cycles
 SCF Done:  E(RB3LYP) =  -209.178186520     A.U. after    8 cycles
 SCF Done:  E(RB3LYP) =  -209.178189653     A.U. after    8 cycles
 SCF Done:  E(RB3LYP) =  -209.178191305     A.U. after    7 cycles
 Optimization completed.
    -- Stationary point found.
 Normal termination of Gaussian 09 at Fri Jul 23 13:01:29 2021.

 ----------------------------------------------------------------------
 #P Geom=AllCheck Guess=TCheck SCRF=Check GenChk RB3LYP/6-31G(d,p) Freq
 ----------------------------------------------------------------------

 Structure from the checkpoint file:  "/vol2/users/liuj201281/HOFBenchmark/IsodesmicSplit/Sample60/Ring26/Running/Gau-413528.chk"
 -------
 Frag_95
 -------
 Charge =  0 Multiplicity = 1

                         Standard orientation:
 ---------------------------------------------------------------------
 Center     Atomic      Atomic             Coordinates (Angstroms)
 Number     Number       Type             X           Y           Z
 ---------------------------------------------------------------------
      1          6           0        1.404864   -0.286197    0.007315
      2          6           0        0.098050   -0.000194    0.003698
      3          7           0       -0.959982   -0.922531   -0.082489
      4          8           0       -0.344671    1.294718    0.051857
      5          1           0        1.751955   -1.307695    0.098762
      6          1           0        2.134898    0.506994   -0.078805
      7          1           0       -1.618614   -0.831114    0.686928
      8          1           0       -0.639425   -1.880902   -0.154187
      9          1           0       -1.169058    1.331043   -0.456211
 ---------------------------------------------------------------------

 SCF Done:  E(RB3LYP) =  -209.178191305     A.U. after    1 cycles

 The electronic state is 1-A.
 Alpha  occ. eigenvalues --  -19.16701 -14.34442 -10.26499 -10.15076  -1.05544
 Alpha  occ. eigenvalues --   -0.89788  -0.72490  -0.58104  -0.53579  -0.50734
 Alpha  occ. eigenvalues --   -0.43017  -0.41810  -0.37530  -0.34734  -0.29007
 Alpha  occ. eigenvalues --   -0.20560
 Alpha virt. eigenvalues --    0.05601   0.06766   0.10950   0.13007   0.16971
 Alpha virt. eigenvalues --    0.18695   0.25785   0.32597   0.38171   0.55865
 Alpha virt. eigenvalues --    0.57525   0.59579   0.60890   0.65786   0.68241

 Mulliken charges:
               1
     1  C   -0.312015
     2  C    0.481684
     3  N   -0.644050
     4  O   -0.532008
     5  H    0.076200
     6  H    0.097676
     7  H    0.258491
     8  H    0.260124
     9  H    0.313898
 Sum of Mulliken charges =   0.00000

 Dipole moment (field-independent basis, Debye):
    X=             -1.7611    Y=             -1.4640    Z=              0.2398  Tot=              2.3026
 Quadrupole moment (field-independent basis, Debye-Ang):
   XX=            -21.8053   YY=            -22.0110   ZZ=            -25.5658
   XY=             -0.8918   XZ=             -1.1171   YZ=             -2.1858

  Exact polarizability:  46.092  -2.194  32.945  -0.472  -0.580  16.572
 Approx polarizability:  69.367  -5.712  44.810  -0.255   0.289  22.909

                      1                      2                      3
                      A                      A                      A
 Frequencies --    321.1669               453.6940               467.4830
 Red. masses --      1.1041                 2.2061                 1.2396
 Frc consts  --      0.0671                 0.2676                 0.1596
 IR Inten    --     24.4126                 3.0783                95.3310

                      4                      5                      6
                      A                      A                      A
 Frequencies --    506.1321               577.8676               686.6986
 Red. masses --      2.2929                 2.1620                 1.1747
 Frc consts  --      0.3461                 0.4254                 0.3264
 IR Inten    --     69.3672                65.3266                40.2095

                      7                      8                      9
                      A                      A                      A
 Frequencies --    770.3045               819.5493               928.7257
 Red. masses --      1.4049                 1.3973                 4.2892
 Frc consts  --      0.4911                 0.5529                 2.1797
 IR Inten    --     89.8543               165.0399                23.0566

                     10                     11                     12
                      A                      A                      A
 Frequencies --    982.2298              1156.6844              1248.7845
 Red. masses --      1.6802                 1.3883                 1.2997
 Frc consts  --      0.9551                 1.0943                 1.1942
 IR Inten    --     20.3464                17.2167                65.6520

                     13                     14                     15
                      A                      A                      A
 Frequencies --   1380.6092              1447.6427              1640.6295
 Red. masses --      3.5035                 1.1602                 1.1474
 Frc consts  --      3.9345                 1.4326                 1.8197
 IR Inten    --    185.9257                 2.3189                51.0129

                     16                     17                     18
                      A                      A                      A
 Frequencies --   1773.5305              3192.8841              3287.5035
 Red. masses --      5.0241                 1.0603                 1.1177
 Frc consts  --      9.3109                 6.3688                 7.1169
 IR Inten    --    182.6753                 1.1956                 7.3812

                     19                     20                     21
                      A                      A                      A
 Frequencies --   3507.1265              3628.5245              3774.4038
 Red. masses --      1.0516                 1.0921                 1.0648
 Frc consts  --      7.6206                 8.4718                 8.9377
 IR Inten    --      2.4029                 6.5193                26.7937

 - Thermochemistry -
 -------------------
 Temperature   298.150 Kelvin.  Pressure   1.00000 Atm.
 Atom     1 has atomic number  6 and mass  12.00000

 Molecular mass:    59.03711 amu.
 Principal axes and moments of inertia in atomic units:
                           1         2         3
     Eigenvalues --   173.20931 184.18766 351.42391
           X            0.99670  -0.08069  -0.00933
           Y            0.08046   0.99651  -0.02242
           Z            0.01111   0.02159   0.99971
 This molecule is an asymmetric top.
 Rotational symmetry number  1.
 Rotational temperatures (Kelvin)      0.50005     0.47025     0.24647
 Rotational constants (GHZ):          10.41942     9.79838     5.13551
 Zero-point vibrational energy     194705.2 (Joules/Mol)
                                   46.53567 (Kcal/Mol)
 Warning -- explicit consideration of   5 degrees of freedom as
           vibrations may cause significant error
 Vibrational temperatures:    462.09   652.76   672.60   728.21   831.42
          (Kelvin)            988.00  1108.29  1179.15  1336.23  1413.21
                             1664.21  1796.72  1986.39  2082.83  2360.50
                             2551.71  4593.84  4729.98  5045.97  5220.63
                             5430.52

 Zero-point correction=                           0.074159 (Hartree/Particle)
 Thermal correction to Energy=                    0.078707
 Thermal correction to Enthalpy=                  0.079651
 Thermal correction to Gibbs Free Energy=         0.047749
 Sum of electronic and zero-point Energies=           -209.104032
 Sum of electronic and thermal Energies=              -209.099484
 Sum of electronic and thermal Enthalpies=            -209.098540
 Sum of electronic and thermal Free Energies=         -209.130443

                     E (Thermal)             CV                S
                      KCal/Mol        Cal/Mol-Kelvin    Cal/Mol-Kelvin
 Total                   49.389             16.306             67.144
 Electronic               0.000              0.000              0.000
 Translational            0.889              2.981             38.147
 Rotational               0.889              2.981             23.932
 Vibrational             47.612             10.344              5.065
 Vibration     1          0.707              1.633              1.304
 Vibration     2          0.812              1.353              0.785
 Vibration     3          0.825              1.322              0.745
 Vibration     4          0.861              1.236              0.643
 Vibration     5          0.934              1.079              0.489

 Optimization completed.
    -- Stationary point found.
 Normal termination of Gaussian 09 at Fri Jul 23 13:02:39 2021.
