 Gaussian 09, Revision D.01,
 Gaussian 09:  ES64L-G09RevD.01 24-Apr-2013

 -------------------------
 #P OPT Freq B3LYP/6-31G**
 -------------------------

 -------
 Frag_61
 -------
 Symbolic Z-matrix:
 Charge =  0 Multiplicity = 1

 SCF Done:  E(RB3LYP) =  -339.693016895     A.U. after   15 cycles
 Optimization completed.
    -- Stationary point found.
 Normal termination of Gaussian 09 at Fri Jul 23 18:59:01 2021.

 ----------------------------------------------------------------------
 #P Geom=AllCheck Guess=TCheck SCRF=Check GenChk RB3LYP/6-31G(d,p) Freq
 ----------------------------------------------------------------------

 Structure from the checkpoint file:  "/vol2/users/liuj201281/HOFBenchmark/IsodesmicSplit/Sample60/Ring26/Running/Gau-510750.chk"
 -------
 Frag_61
 -------
 Charge =  0 Multiplicity = 1

                         Standard orientation:
 ---------------------------------------------------------------------
 Center     Atomic      Atomic             Coordinates (Angstroms)
 Number     Number       Type             X           Y           Z
 ---------------------------------------------------------------------
      1          6           0        1.218965    1.232228    0.446504
      2          6           0        0.671399    0.100712   -0.415696
      3          7           0        1.397635   -1.105467   -0.271896
      4          7           0       -0.852096   -0.050034   -0.036096
      5          8           0       -1.186566   -1.057444    0.578504
      6          8           0       -1.595224    0.864044   -0.375896
      7          1           0        2.245759    1.444959    0.142204
      8          1           0        1.223274    0.941428    1.502404
      9          1           0        0.610839    2.130410    0.330704
     10          1           0        0.614290    0.398410   -1.465396
     11          1           0        1.382145   -1.429467    0.690904
     12          1           0        1.017057   -1.847678   -0.850596
 ---------------------------------------------------------------------

 SCF Done:  E(RB3LYP) =  -339.693016895     A.U. after    1 cycles

 The electronic state is 1-A.
 Alpha  occ. eigenvalues --  -19.18481 -19.18176 -14.55658 -14.34712 -10.28075
 Alpha  occ. eigenvalues --  -10.20408  -1.21957  -1.05195  -0.93086  -0.78072
 Alpha  occ. eigenvalues --   -0.69704  -0.60049  -0.54917  -0.53868  -0.51215
 Alpha  occ. eigenvalues --   -0.50376  -0.46338  -0.41787  -0.40371  -0.38680
 Alpha  occ. eigenvalues --   -0.32218  -0.31076  -0.29442  -0.26446
 Alpha virt. eigenvalues --   -0.06082   0.06861   0.10299   0.11596   0.12589
 Alpha virt. eigenvalues --    0.15264   0.16686   0.16749   0.21126   0.24244
 Alpha virt. eigenvalues --    0.28358   0.39091   0.49717   0.50931   0.51185

 Mulliken charges:
               1
     1  C   -0.314621
     2  C    0.113811
     3  N   -0.552386
     4  N    0.435419
     5  O   -0.383268
     6  O   -0.374066
     7  H    0.140150
     8  H    0.120961
     9  H    0.144962
    10  H    0.147444
    11  H    0.260599
    12  H    0.260994
 Sum of Mulliken charges =   0.00000

 Dipole moment (field-independent basis, Debye):
    X=              2.6767    Y=             -0.1809    Z=             -0.2937  Tot=              2.6988
 Quadrupole moment (field-independent basis, Debye-Ang):
   XX=            -42.1024   YY=            -33.8893   ZZ=            -33.0878
   XY=              0.9935   XZ=              1.5942   YZ=              1.7290

  Exact polarizability:  43.499  -2.055  47.704   0.743  -4.065  35.956
 Approx polarizability:  59.756  -8.223  82.656   2.305 -16.803  56.112

                      1                      2                      3
                      A                      A                      A
 Frequencies --     40.7541               223.7803               273.5225
 Red. masses --      5.2428                 1.1143                 3.0224
 Frc consts  --      0.0051                 0.0329                 0.1332
 IR Inten    --      0.4025                 0.7811                12.2758

                      4                      5                      6
                      A                      A                      A
 Frequencies --    297.9868               339.6031               395.1375
 Red. masses --      1.5441                 1.9428                 3.2255
 Frc consts  --      0.0808                 0.1320                 0.2967
 IR Inten    --     38.8959                13.2778                22.2102

                      7                      8                      9
                      A                      A                      A
 Frequencies --    495.2662               621.1124               703.5272
 Red. masses --      3.6297                 3.7569                 4.2021
 Frc consts  --      0.5246                 0.8539                 1.2254
 IR Inten    --     17.7494                10.7537                 0.3214

                     10                     11                     12
                      A                      A                      A
 Frequencies --    825.2507               849.5366               918.7804
 Red. masses --      1.9961                 4.8998                 2.1467
 Frc consts  --      0.8010                 2.0835                 1.0677
 IR Inten    --    164.3502               120.5827                 0.2680

                     13                     14                     15
                      A                      A                      A
 Frequencies --   1026.8116              1081.8461              1209.8636
 Red. masses --      1.3100                 1.5391                 1.6890
 Frc consts  --      0.8138                 1.0613                 1.4567
 IR Inten    --      2.0913                30.6203                14.4795

                     16                     17                     18
                      A                      A                      A
 Frequencies --   1296.7885              1317.8491              1402.3830
 Red. masses --      1.6372                 1.4535                 1.5931
 Frc consts  --      1.6222                 1.4873                 1.8460
 IR Inten    --     27.0575                 0.9595                15.7043

                     19                     20                     21
                      A                      A                      A
 Frequencies --   1423.8810              1441.4626              1504.3640
 Red. masses --      2.0581                 2.2535                 1.0571
 Frc consts  --      2.4585                 2.7588                 1.4096
 IR Inten    --     51.0377                44.0650                 6.9435

                     22                     23                     24
                      A                      A                      A
 Frequencies --   1509.1013              1669.6991              1687.3819
 Red. masses --      1.0485                 8.9804                 1.1366
 Frc consts  --      1.4069                14.7509                 1.9068
 IR Inten    --      7.4820               190.7178                71.6259

                     25                     26                     27
                      A                      A                      A
 Frequencies --   3061.2290              3114.5432              3142.0301
 Red. masses --      1.0392                 1.0870                 1.0985
 Frc consts  --      5.7380                 6.2126                 6.3898
 IR Inten    --      9.0830                 5.2330                15.0963

                     28                     29                     30
                      A                      A                      A
 Frequencies --   3169.3787              3524.9065              3609.9574
 Red. masses --      1.1042                 1.0493                 1.0937
 Frc consts  --      6.5348                 7.6814                 8.3978
 IR Inten    --      5.3145                 5.3192                 7.0486

 - Thermochemistry -
 -------------------
 Temperature   298.150 Kelvin.  Pressure   1.00000 Atm.
 Atom     1 has atomic number  6 and mass  12.00000

 Molecular mass:    90.04293 amu.
 Principal axes and moments of inertia in atomic units:
                           1         2         3
     Eigenvalues --   347.54801 545.14203 758.43123
           X            0.99915   0.03870   0.01434
           Y           -0.03923   0.99846   0.03916
           Z           -0.01280  -0.03969   0.99913
 This molecule is an asymmetric top.
 Rotational symmetry number  1.
 Rotational temperatures (Kelvin)      0.24921     0.15888     0.11420
 Rotational constants (GHZ):           5.19278     3.31059     2.37957
 Zero-point vibrational energy     252278.9 (Joules/Mol)
                                   60.29610 (Kcal/Mol)
 Warning -- explicit consideration of   7 degrees of freedom as
           vibrations may cause significant error
 Vibrational temperatures:     58.64   321.97   393.54   428.74   488.61
          (Kelvin)            568.51   712.58   893.64  1012.22  1187.35
                             1222.29  1321.92  1477.35  1556.53  1740.72
                             1865.79  1896.09  2017.71  2048.64  2073.94
                             2164.44  2171.26  2402.32  2427.76  4404.42
                             4481.13  4520.67  4560.02  5071.55  5193.92

 Zero-point correction=                           0.096088 (Hartree/Particle)
 Thermal correction to Energy=                    0.102670
 Thermal correction to Enthalpy=                  0.103614
 Thermal correction to Gibbs Free Energy=         0.065404
 Sum of electronic and zero-point Energies=           -339.596929
 Sum of electronic and thermal Energies=              -339.590347
 Sum of electronic and thermal Enthalpies=            -339.589402
 Sum of electronic and thermal Free Energies=         -339.627613

                     E (Thermal)             CV                S
                      KCal/Mol        Cal/Mol-Kelvin    Cal/Mol-Kelvin
 Total                   64.427             22.604             80.420
 Electronic               0.000              0.000              0.000
 Translational            0.889              2.981             39.405
 Rotational               0.889              2.981             26.466
 Vibrational             62.649             16.643             14.549
 Vibration     1          0.594              1.981              5.222
 Vibration     2          0.649              1.805              1.928
 Vibration     3          0.676              1.722              1.574
 Vibration     4          0.691              1.677              1.428
 Vibration     5          0.720              1.596              1.214
 Vibration     6          0.762              1.481              0.981
 Vibration     7          0.851              1.261              0.670

 Optimization completed.
    -- Stationary point found.
 Normal termination of Gaussian 09 at Fri Jul 23 18:59:12 2021.
