 Gaussian 09, Revision E.01,
 Gaussian 09:  ES64L-G09RevE.01 30-Nov-2015

 --------------------------------
 #P OPT=calcfc Freq B3LYP/6-31G**
 --------------------------------

 --------
 Frag_329
 --------
 Symbolic Z-matrix:
 Charge =  0 Multiplicity = 1

 SCF Done:  E(RB3LYP) =  -212.582310918     A.U. after   13 cycles
 SCF Done:  E(RB3LYP) =  -212.584630065     A.U. after   13 cycles
 SCF Done:  E(RB3LYP) =  -212.589134543     A.U. after   13 cycles
 SCF Done:  E(RB3LYP) =  -212.561836732     A.U. after   13 cycles
 SCF Done:  E(RB3LYP) =  -212.589307474     A.U. after    9 cycles
 SCF Done:  E(RB3LYP) =  -212.592345643     A.U. after   11 cycles
 SCF Done:  E(RB3LYP) =  -212.592763973     A.U. after   12 cycles
 SCF Done:  E(RB3LYP) =  -212.592842980     A.U. after   10 cycles
 SCF Done:  E(RB3LYP) =  -212.592898294     A.U. after   10 cycles
 SCF Done:  E(RB3LYP) =  -212.592899746     A.U. after    8 cycles
 SCF Done:  E(RB3LYP) =  -212.592899994     A.U. after    7 cycles
 Optimization completed.
    -- Stationary point found.
 Normal termination of Gaussian 09 at Fri Sep 10 20:41:47 2021.

 ----------------------------------------------------------------------
 #P Geom=AllCheck Guess=TCheck SCRF=Check GenChk RB3LYP/6-31G(d,p) Freq
 ----------------------------------------------------------------------

 Structure from the checkpoint file:  "/public/home/users/caep010/.cache/gau_scr/Gau-177889.chk"
 --------
 Frag_329
 --------
 Charge =  0 Multiplicity = 1

                         Standard orientation:
 ---------------------------------------------------------------------
 Center     Atomic      Atomic             Coordinates (Angstroms)
 Number     Number       Type             X           Y           Z
 ---------------------------------------------------------------------
      1          6           0       -1.505125    0.997751   -0.241983
      2          6           0       -0.605510    0.061528    0.100851
      3          7           0       -0.891886   -1.311009    0.119203
      4          6           0        0.789268    0.412664    0.570672
      5          6           0        1.899911   -0.008409   -0.408208
      6          1           0       -2.501467    0.738229   -0.588687
      7          1           0       -1.271028    2.051151   -0.151104
      8          1           0       -0.111870   -1.910255   -0.118420
      9          1           0       -1.719457   -1.571236   -0.402345
     10          1           0        0.965687   -0.063015    1.544653
     11          1           0        0.841747    1.493416    0.729538
     12          1           0        2.882092    0.292664   -0.030716
     13          1           0        1.933362   -1.093617   -0.558384
     14          1           0        1.752878    0.458515   -1.386953
 ---------------------------------------------------------------------

 SCF Done:  E(RB3LYP) =  -212.592899994     A.U. after    1 cycles

 The electronic state is 1-A.
 Alpha  occ. eigenvalues --  -14.32985 -10.21210 -10.18542 -10.18094 -10.14780
 Alpha  occ. eigenvalues --   -0.90233  -0.77074  -0.71036  -0.62659  -0.54515
 Alpha  occ. eigenvalues --   -0.50371  -0.46587  -0.42243  -0.41574  -0.39416
 Alpha  occ. eigenvalues --   -0.37138  -0.34602  -0.33270  -0.30861  -0.19628
 Alpha virt. eigenvalues --    0.05005   0.07164   0.12118   0.13781   0.15011
 Alpha virt. eigenvalues --    0.15588   0.16805   0.18749   0.20322   0.21120
 Alpha virt. eigenvalues --    0.23924   0.26514   0.35450   0.39153   0.51876

 Mulliken charges:
               1
     1  C   -0.325672
     2  C    0.320599
     3  N   -0.630922
     4  C   -0.232473
     5  C   -0.318583
     6  H    0.069220
     7  H    0.081597
     8  H    0.249959
     9  H    0.251247
    10  H    0.111518
    11  H    0.107113
    12  H    0.107532
    13  H    0.092941
    14  H    0.115923
 Sum of Mulliken charges =  -0.00000

 Dipole moment (field-independent basis, Debye):
    X=              0.8370    Y=             -1.0138    Z=             -0.8313  Tot=              1.5555
 Quadrupole moment (field-independent basis, Debye-Ang):
   XX=            -31.4401   YY=            -29.8731   ZZ=            -34.2963
   XY=              1.1925   XZ=              2.1980   YZ=              2.2155

  Exact polarizability:  58.618  -6.081  56.135   5.670  -1.573  35.101
 Approx polarizability:  75.563 -13.041  84.333   9.895  -5.811  49.327

                      1                      2                      3
                      A                      A                      A
 Frequencies --     74.5776               214.7789               252.0664
 Red. masses --      2.0577                 1.1339                 2.1546
 Frc consts  --      0.0067                 0.0308                 0.0807
 IR Inten    --      0.6235                 0.0593                 5.4463

                      4                      5                      6
                      A                      A                      A
 Frequencies --    334.7093               422.1357               456.8109
 Red. masses --      1.1536                 2.0850                 2.2021
 Frc consts  --      0.0761                 0.2189                 0.2707
 IR Inten    --     36.3666                 1.7079                11.6981

                      7                      8                      9
                      A                      A                      A
 Frequencies --    598.9544               650.3985               743.0656
 Red. masses --      1.8387                 1.3697                 1.2704
 Frc consts  --      0.3886                 0.3414                 0.4133
 IR Inten    --    124.4742               109.0499                25.9307

                     10                     11                     12
                      A                      A                      A
 Frequencies --    794.2369               807.2830               812.3590
 Red. masses --      1.2371                 2.2799                 1.4464
 Frc consts  --      0.4598                 0.8754                 0.5624
 IR Inten    --      8.0723                 3.0312                69.5977

                     13                     14                     15
                      A                      A                      A
 Frequencies --    986.0829              1011.7844              1068.1651
 Red. masses --      2.0182                 1.6208                 1.6940
 Frc consts  --      1.1562                 0.9776                 1.1388
 IR Inten    --      6.3460                 1.6211                 4.6806

                     16                     17                     18
                      A                      A                      A
 Frequencies --   1099.9528              1156.5441              1287.9123
 Red. masses --      1.6157                 1.4404                 1.2299
 Frc consts  --      1.1517                 1.1352                 1.2020
 IR Inten    --      1.6798                 1.1288                 4.0543

                     19                     20                     21
                      A                      A                      A
 Frequencies --   1343.7280              1387.6297              1425.4697
 Red. masses --      1.4505                 2.5168                 1.2507
 Frc consts  --      1.5431                 2.8552                 1.4973
 IR Inten    --      7.9552                34.0367                 2.2794

                     22                     23                     24
                      A                      A                      A
 Frequencies --   1462.0703              1495.6992              1513.4610
 Red. masses --      1.1638                 1.0732                 1.0437
 Frc consts  --      1.4657                 1.4146                 1.4085
 IR Inten    --      0.4015                 2.8733                 4.4762

                     25                     26                     27
                      A                      A                      A
 Frequencies --   1519.6654              1662.8894              1729.1170
 Red. masses --      1.0766                 1.1576                 4.7604
 Frc consts  --      1.4649                 1.8860                 8.3858
 IR Inten    --      5.7313                41.0498               107.5170

                     28                     29                     30
                      A                      A                      A
 Frequencies --   3037.0265              3040.8951              3094.1076
 Red. masses --      1.0668                 1.0372                 1.0969
 Frc consts  --      5.7973                 5.6511                 6.1874
 IR Inten    --     26.0079                28.7076                 4.5352

                     31                     32                     33
                      A                      A                      A
 Frequencies --   3113.5417              3124.5376              3161.9332
 Red. masses --      1.0991                 1.1037                 1.0622
 Frc consts  --      6.2776                 6.3484                 6.2569
 IR Inten    --     48.7119                33.8634                 7.7089

                     34                     35                     36
                      A                      A                      A
 Frequencies --   3254.4975              3552.8317              3655.8782
 Red. masses --      1.1137                 1.0475                 1.0974
 Frc consts  --      6.9503                 7.7900                 8.6416
 IR Inten    --     15.5004                 3.3418                 5.0649

 - Thermochemistry -
 -------------------
 Temperature   298.150 Kelvin.  Pressure   1.00000 Atm.
 Atom     1 has atomic number  6 and mass  12.00000

 Molecular mass:    71.07350 amu.
 Principal axes and moments of inertia in atomic units:
                           1         2         3
     Eigenvalues --   233.75810 478.05355 621.61411
           X            0.99990  -0.01188   0.00747
           Y            0.01168   0.99959   0.02619
           Z           -0.00778  -0.02610   0.99963
 This molecule is an asymmetric top.
 Rotational symmetry number  1.
 Rotational temperatures (Kelvin)      0.37053     0.18118     0.13934
 Rotational constants (GHZ):           7.72055     3.77519     2.90331
 Zero-point vibrational energy     331047.4 (Joules/Mol)
                                   79.12222 (Kcal/Mol)
 Warning -- explicit consideration of   7 degrees of freedom as
           vibrations may cause significant error
 Vibrational temperatures:    107.30   309.02   362.67   481.57   607.36
          (Kelvin)            657.25   861.76   935.78  1069.10  1142.73
                             1161.50  1168.80  1418.75  1455.73  1536.85
                             1582.58  1664.01  1853.02  1933.32  1996.49
                             2050.93  2103.59  2151.97  2177.53  2186.46
                             2392.52  2487.81  4369.60  4375.16  4451.73
                             4479.69  4495.51  4549.31  4682.49  5111.73
                             5259.99

 Zero-point correction=                           0.126089 (Hartree/Particle)
 Thermal correction to Energy=                    0.132483
 Thermal correction to Enthalpy=                  0.133427
 Thermal correction to Gibbs Free Energy=         0.096701
 Sum of electronic and zero-point Energies=           -212.466811
 Sum of electronic and thermal Energies=              -212.460417
 Sum of electronic and thermal Enthalpies=            -212.459473
 Sum of electronic and thermal Free Energies=         -212.496199

                     E (Thermal)             CV                S
                      KCal/Mol        Cal/Mol-Kelvin    Cal/Mol-Kelvin
 Total                   83.134             22.968             77.297
 Electronic               0.000              0.000              0.000
 Translational            0.889              2.981             38.700
 Rotational               0.889              2.981             25.744
 Vibrational             81.357             17.006             12.853
 Vibration     1          0.599              1.966              4.029
 Vibration     2          0.645              1.818              2.003
 Vibration     3          0.664              1.759              1.716
 Vibration     4          0.716              1.606              1.237
 Vibration     5          0.784              1.422              0.885
 Vibration     6          0.815              1.346              0.775
 Vibration     7          0.957              1.034              0.451

 Optimization completed.
    -- Stationary point found.
 Normal termination of Gaussian 09 at Fri Sep 10 20:41:57 2021.
