 Gaussian 09, Revision E.01,
 Gaussian 09:  ES64L-G09RevE.01 30-Nov-2015

 --------------------------------
 #P OPT=calcfc Freq B3LYP/6-31G**
 --------------------------------

 --------
 Frag_128
 --------
 Symbolic Z-matrix:
 Charge =  0 Multiplicity = 1

 SCF Done:  E(RB3LYP) =  -149.995618143     A.U. after   13 cycles
 SCF Done:  E(RB3LYP) =  -150.008414493     A.U. after   13 cycles
 SCF Done:  E(RB3LYP) =  -150.007716184     A.U. after   13 cycles
 SCF Done:  E(RB3LYP) =  -150.008467419     A.U. after   11 cycles
 SCF Done:  E(RB3LYP) =  -150.008702000     A.U. after   11 cycles
 SCF Done:  E(RB3LYP) =  -150.008702943     A.U. after   11 cycles
 SCF Done:  E(RB3LYP) =  -150.008713305     A.U. after   10 cycles
 SCF Done:  E(RB3LYP) =  -150.008713920     A.U. after    8 cycles
 Optimization completed.
    -- Stationary point found.
 Normal termination of Gaussian 09 at Sat Aug 21 02:18:30 2021.

 ----------------------------------------------------------------------
 #P Geom=AllCheck Guess=TCheck SCRF=Check GenChk RB3LYP/6-31G(d,p) Freq
 ----------------------------------------------------------------------

 Structure from the checkpoint file:  "/public/home/users/caep010/.cache/gau_scr/Gau-211907.chk"
 --------
 Frag_128
 --------
 Charge =  0 Multiplicity = 1

                         Standard orientation:
 ---------------------------------------------------------------------
 Center     Atomic      Atomic             Coordinates (Angstroms)
 Number     Number       Type             X           Y           Z
 ---------------------------------------------------------------------
      1          7           0        1.278947   -0.120891    0.009750
      2          6           0        0.122568    0.418526    0.002464
      3          7           0       -1.122460   -0.176435   -0.065985
      4          1           0        1.207747   -1.144784    0.003064
      5          1           0        0.064897    1.511059    0.002857
      6          1           0       -1.919135    0.367634    0.231016
      7          1           0       -1.184328   -1.163781    0.141926
 ---------------------------------------------------------------------

 SCF Done:  E(RB3LYP) =  -150.008713920     A.U. after    1 cycles

 The electronic state is 1-A.
 Alpha  occ. eigenvalues --  -14.35530 -14.29328 -10.25219  -0.93877  -0.84493
 Alpha  occ. eigenvalues --   -0.61552  -0.53220  -0.50258  -0.40399  -0.36653
 Alpha  occ. eigenvalues --   -0.25854  -0.24007
 Alpha virt. eigenvalues --    0.03964   0.07438   0.10316   0.14465   0.17410
 Alpha virt. eigenvalues --    0.30218   0.37074   0.55906   0.57857   0.61151
 Alpha virt. eigenvalues --    0.65355   0.68909   0.73949   0.74425   0.78993

 Mulliken charges:
               1
     1  N   -0.515182
     2  C    0.262669
     3  N   -0.578906
     4  H    0.201843
     5  H    0.104967
     6  H    0.265365
     7  H    0.259244
 Sum of Mulliken charges =  -0.00000

 Dipole moment (field-independent basis, Debye):
    X=             -3.3280    Y=             -0.8074    Z=              0.7991  Tot=              3.5165
 Quadrupole moment (field-independent basis, Debye-Ang):
   XX=            -20.0574   YY=            -14.4100   ZZ=            -20.0931
   XY=             -1.2821   XZ=             -1.4937   YZ=             -0.2056

  Exact polarizability:  34.764  -2.865  26.665  -0.299  -0.005  11.403
 Approx polarizability:  56.025  -5.924  35.988   0.513   0.051  15.543

                      1                      2                      3
                      A                      A                      A
 Frequencies --    396.1304               487.9959               541.6549
 Red. masses --      1.1460                 1.1688                 2.2374
 Frc consts  --      0.1060                 0.1640                 0.3868
 IR Inten    --    217.9251                68.5081                15.0324

                      4                      5                      6
                      A                      A                      A
 Frequencies --    836.6792              1055.3510              1089.4973
 Red. masses --      1.9853                 1.3934                 1.1338
 Frc consts  --      0.8188                 0.9143                 0.7930
 IR Inten    --     44.7047                23.4995                42.5609

                      7                      8                      9
                      A                      A                      A
 Frequencies --   1126.4561              1327.4336              1432.1832
 Red. masses --      1.8542                 1.7615                 1.1950
 Frc consts  --      1.3863                 1.8288                 1.4442
 IR Inten    --     23.1420               130.6505                 3.2393

                     10                     11                     12
                      A                      A                      A
 Frequencies --   1643.9082              1746.9080              3116.6070
 Red. masses --      1.1846                 5.7273                 1.0887
 Frc consts  --      1.8862                10.2977                 6.2306
 IR Inten    --     36.1044               257.3211                32.2929

                     13                     14                     15
                      A                      A                      A
 Frequencies --   3418.9909              3574.7305              3697.3013
 Red. masses --      1.0740                 1.0468                 1.1011
 Frc consts  --      7.3972                 7.8817                 8.8685
 IR Inten    --     14.5528                15.6038                16.3309

 - Thermochemistry -
 -------------------
 Temperature   298.150 Kelvin.  Pressure   1.00000 Atm.
 Atom     1 has atomic number  7 and mass  14.00307

 Molecular mass:    44.03745 amu.
 Principal axes and moments of inertia in atomic units:
                           1         2         3
     Eigenvalues --    28.48942 169.24749 196.84825
           X            0.99980  -0.01511  -0.01300
           Y            0.01499   0.99984  -0.00967
           Z            0.01315   0.00947   0.99987
 This molecule is an asymmetric top.
 Rotational symmetry number  1.
 Rotational temperatures (Kelvin)      3.04021     0.51176     0.44000
 Rotational constants (GHZ):          63.34778    10.66333     9.16819
 Zero-point vibrational energy     152475.0 (Joules/Mol)
                                   36.44240 (Kcal/Mol)
 Warning -- explicit consideration of   3 degrees of freedom as
           vibrations may cause significant error
 Vibrational temperatures:    569.94   702.12   779.32  1203.79  1518.41
          (Kelvin)           1567.54  1620.72  1909.88  2060.59  2365.21
                             2513.41  4484.10  4919.16  5143.23  5319.59

 Zero-point correction=                           0.058075 (Hartree/Particle)
 Thermal correction to Energy=                    0.061816
 Thermal correction to Enthalpy=                  0.062760
 Thermal correction to Gibbs Free Energy=         0.033585
 Sum of electronic and zero-point Energies=           -149.950639
 Sum of electronic and thermal Energies=              -149.946898
 Sum of electronic and thermal Enthalpies=            -149.945954
 Sum of electronic and thermal Free Energies=         -149.975129

                     E (Thermal)             CV                S
                      KCal/Mol        Cal/Mol-Kelvin    Cal/Mol-Kelvin
 Total                   38.790             11.640             61.405
 Electronic               0.000              0.000              0.000
 Translational            0.889              2.981             37.273
 Rotational               0.889              2.981             21.478
 Vibrational             37.013              5.679              2.653
 Vibration     1          0.763              1.478              0.977
 Vibration     2          0.844              1.277              0.689
 Vibration     3          0.897              1.158              0.562

 Optimization completed.
    -- Stationary point found.
 Normal termination of Gaussian 09 at Sat Aug 21 02:18:36 2021.
