 Gaussian 09, Revision E.01,
 Gaussian 09:  ES64L-G09RevE.01 30-Nov-2015

 ----------------------------
 #P OPT Freq B3LYP/6-31G(d,p)
 ----------------------------

 --------
 Frag_964
 --------
 Symbolic Z-matrix:
 Charge =  0 Multiplicity = 1

 SCF Done:  E(RB3LYP) =  -265.755580001     A.U. after   12 cycles
 SCF Done:  E(RB3LYP) =  -265.755617294     A.U. after    8 cycles
 SCF Done:  E(RB3LYP) =  -265.755621406     A.U. after    8 cycles
 SCF Done:  E(RB3LYP) =  -265.755622801     A.U. after    7 cycles
 SCF Done:  E(RB3LYP) =  -265.755623168     A.U. after    7 cycles
 Optimization completed.
    -- Stationary point found.
 Normal termination of Gaussian 09 at Thu Sep  8 15:05:35 2022.

 ----------------------------------------------------------------------
 #P Geom=AllCheck Guess=TCheck SCRF=Check GenChk RB3LYP/6-31G(d,p) Freq
 ----------------------------------------------------------------------

 Structure from the checkpoint file:  "B3LYP6-31Gdp.Frag_964.chk"
 --------
 Frag_964
 --------
 Charge =  0 Multiplicity = 1

                         Standard orientation:
 ---------------------------------------------------------------------
 Center     Atomic      Atomic             Coordinates (Angstroms)
 Number     Number       Type             X           Y           Z
 ---------------------------------------------------------------------
      1          6           0        1.960674    0.015304    0.062664
      2          7           0        0.677387   -0.587024   -0.303347
      3          6           0       -0.488363   -0.003875    0.335588
      4          7           0       -0.601309    1.368850   -0.092875
      5          8           0       -1.602840   -0.837153    0.039992
      6          1           0        1.972093    1.060516   -0.249652
      7          1           0        2.173840   -0.012852    1.144933
      8          1           0        2.763779   -0.513292   -0.458830
      9          1           0        0.678919   -1.575811   -0.067343
     10          1           0       -0.445861   -0.001794    1.437677
     11          1           0       -1.451365    1.775883    0.286387
     12          1           0       -0.657540    1.400546   -1.109365
     13          1           0       -1.577552   -0.977332   -0.919703
 ---------------------------------------------------------------------

 SCF Done:  E(RB3LYP) =  -265.755623168     A.U. after    1 cycles

 The electronic state is 1-A.
 Alpha  occ. eigenvalues --  -19.14015 -14.32096 -14.31464 -10.27891 -10.19852
 Alpha  occ. eigenvalues --   -1.02966  -0.90292  -0.85386  -0.67864  -0.61607
 Alpha  occ. eigenvalues --   -0.53831  -0.48864  -0.45147  -0.44368  -0.42405
 Alpha  occ. eigenvalues --   -0.39465  -0.37068  -0.34621  -0.29619  -0.24532
 Alpha  occ. eigenvalues --   -0.23299
 Alpha virt. eigenvalues --    0.08132   0.10088   0.12022   0.14325   0.15246
 Alpha virt. eigenvalues --    0.17222   0.17924   0.18560   0.21540   0.24186
 Alpha virt. eigenvalues --    0.28109   0.29629   0.53263   0.54680   0.55634

 Mulliken charges:
               1
     1  C   -0.170178
     2  N   -0.520957
     3  C    0.381031
     4  N   -0.573221
     5  O   -0.542221
     6  H    0.135932
     7  H    0.085681
     8  H    0.103369
     9  H    0.244388
    10  H    0.087945
    11  H    0.245234
    12  H    0.233787
    13  H    0.289210
 Sum of Mulliken charges =  -0.00000

 Dipole moment (field-independent basis, Debye):
    X=              0.2552    Y=             -0.0774    Z=             -0.6981  Tot=              0.7473
 Quadrupole moment (field-independent basis, Debye-Ang):
   XX=            -31.1892   YY=            -31.0605   ZZ=            -29.8798
   XY=             -3.8549   XZ=              2.6363   YZ=              0.0033

  Exact polarizability:  44.999  -1.208  39.763   0.302   0.713  37.754
 Approx polarizability:  54.811   0.074  53.782  -0.741   1.368  53.702

                      1                      2                      3
                      A                      A                      A
 Frequencies --    138.0262               188.5679               274.0081
 Red. masses --      2.0257                 1.2369                 2.6656
 Frc consts  --      0.0227                 0.0259                 0.1179
 IR Inten    --      4.3437                 1.3556                 4.1656

                      4                      5                      6
                      A                      A                      A
 Frequencies --    321.3178               415.1044               462.6658
 Red. masses --      1.0895                 1.6176                 1.8984
 Frc consts  --      0.0663                 0.1642                 0.2394
 IR Inten    --     28.8671                31.4613               111.9357

                      7                      8                      9
                      A                      A                      A
 Frequencies --    518.5071               578.6558               838.0553
 Red. masses --      2.8305                 2.4426                 1.5159
 Frc consts  --      0.4484                 0.4819                 0.6273
 IR Inten    --     27.6784                10.8465               230.6213

                     10                     11                     12
                      A                      A                      A
 Frequencies --    862.6797               908.5347              1039.9436
 Red. masses --      1.8005                 1.6960                 4.8553
 Frc consts  --      0.7895                 0.8248                 3.0938
 IR Inten    --     46.7190                 5.7517               186.4973

                     13                     14                     15
                      A                      A                      A
 Frequencies --   1071.9370              1128.3413              1142.9457
 Red. masses --      1.8969                 1.5323                 1.4113
 Frc consts  --      1.2842                 1.1494                 1.0862
 IR Inten    --     14.9522                88.6955                14.5934

                     16                     17                     18
                      A                      A                      A
 Frequencies --   1204.9314              1242.6046              1306.1119
 Red. masses --      1.7952                 1.8718                 1.5070
 Frc consts  --      1.5356                 1.7029                 1.5147
 IR Inten    --     34.4487                15.7605                14.8840

                     19                     20                     21
                      A                      A                      A
 Frequencies --   1421.5206              1431.6300              1472.8210
 Red. masses --      1.1437                 1.3077                 1.2666
 Frc consts  --      1.3616                 1.5791                 1.6187
 IR Inten    --     39.3346                40.5767                50.1299

                     22                     23                     24
                      A                      A                      A
 Frequencies --   1486.5105              1508.0675              1535.1643
 Red. masses --      1.2609                 1.0820                 1.0556
 Frc consts  --      1.6417                 1.4498                 1.4657
 IR Inten    --     25.1821                 3.1071                12.7353

                     25                     26                     27
                      A                      A                      A
 Frequencies --   1651.2592              2972.2024              2989.2765
 Red. masses --      1.1112                 1.0595                 1.0835
 Frc consts  --      1.7851                 5.5145                 5.7047
 IR Inten    --     42.1532                67.3501                94.6641

                     28                     29                     30
                      A                      A                      A
 Frequencies --   3093.4722              3152.3138              3491.7942
 Red. masses --      1.0781                 1.1006                 1.0500
 Frc consts  --      6.0788                 6.4436                 7.5429
 IR Inten    --     38.2488                15.5182                 0.1057

                     31                     32                     33
                      A                      A                      A
 Frequencies --   3533.4941              3595.4939              3760.1055
 Red. masses --      1.0741                 1.0919                 1.0648
 Frc consts  --      7.9016                 8.3170                 8.8698
 IR Inten    --      0.7141                 1.7906                 8.6114

 - Thermochemistry -
 -------------------
 Temperature   298.150 Kelvin.  Pressure   1.00000 Atm.
 Atom     1 has atomic number  6 and mass  12.00000

 Molecular mass:    76.06366 amu.
 Principal axes and moments of inertia in atomic units:
                           1         2         3
     Eigenvalues --   217.36902 472.44634 627.93418
           X            0.99936  -0.03215   0.01568
           Y            0.03220   0.99948  -0.00278
           Z           -0.01559   0.00329   0.99987
 This molecule is an asymmetric top.
 Rotational symmetry number  1.
 Rotational temperatures (Kelvin)      0.39846     0.18333     0.13793
 Rotational constants (GHZ):           8.30266     3.81999     2.87409
 Zero-point vibrational energy     303481.0 (Joules/Mol)
                                   72.53370 (Kcal/Mol)
 Warning -- explicit consideration of   8 degrees of freedom as
           vibrations may cause significant error
 Vibrational temperatures:    198.59   271.31   394.24   462.30   597.24
          (Kelvin)            665.67   746.02   832.56  1205.77  1241.20
                             1307.18  1496.25  1542.28  1623.43  1644.44
                             1733.63  1787.83  1879.20  2045.25  2059.79
                             2119.06  2138.75  2169.77  2208.76  2375.79
                             4276.33  4300.90  4450.81  4535.47  5023.91
                             5083.90  5173.11  5409.95

 Zero-point correction=                           0.115590 (Hartree/Particle)
 Thermal correction to Energy=                    0.121807
 Thermal correction to Enthalpy=                  0.122751
 Thermal correction to Gibbs Free Energy=         0.086542
 Sum of electronic and zero-point Energies=           -265.640033
 Sum of electronic and thermal Energies=              -265.633816
 Sum of electronic and thermal Enthalpies=            -265.632872
 Sum of electronic and thermal Free Energies=         -265.669081

                     E (Thermal)             CV                S
                      KCal/Mol        Cal/Mol-Kelvin    Cal/Mol-Kelvin
 Total                   76.435             21.980             76.208
 Electronic               0.000              0.000              0.000
 Translational            0.889              2.981             38.903
 Rotational               0.889              2.981             25.670
 Vibrational             74.658             16.018             11.636
 Vibration     1          0.614              1.915              2.831
 Vibration     2          0.633              1.856              2.242
 Vibration     3          0.676              1.721              1.571
 Vibration     4          0.707              1.633              1.303
 Vibration     5          0.779              1.437              0.909
 Vibration     6          0.820              1.333              0.758
 Vibration     7          0.874              1.209              0.613
 Vibration     8          0.935              1.077              0.488

 Normal termination of Gaussian 09 at Thu Sep  8 15:05:45 2022.
