 Gaussian 09, Revision E.01,
 Gaussian 09:  ES64L-G09RevE.01 30-Nov-2015

 -------------------------
 #P OPT Freq B3LYP/6-31G**
 -------------------------

 --------
 Frag_265
 --------
 Symbolic Z-matrix:
 Charge =  0 Multiplicity = 1

 SCF Done:  E(RB3LYP) =  -264.173650128     A.U. after   13 cycles
 SCF Done:  E(RB3LYP) =  -264.213137350     A.U. after   13 cycles
 SCF Done:  E(RB3LYP) =  -264.214054022     A.U. after   15 cycles
 SCF Done:  E(RB3LYP) =  -264.214642697     A.U. after   15 cycles
 SCF Done:  E(RB3LYP) =  -264.218129680     A.U. after   12 cycles
 SCF Done:  E(RB3LYP) =  -264.219779786     A.U. after   13 cycles
 SCF Done:  E(RB3LYP) =  -264.219610837     A.U. after   12 cycles
 SCF Done:  E(RB3LYP) =  -264.219860507     A.U. after    9 cycles
 SCF Done:  E(RB3LYP) =  -264.219949914     A.U. after   10 cycles
 SCF Done:  E(RB3LYP) =  -264.219962092     A.U. after    9 cycles
 SCF Done:  E(RB3LYP) =  -264.219962793     A.U. after    8 cycles
 Optimization completed.
    -- Stationary point found.
 Normal termination of Gaussian 09 at Sat Aug 21 01:35:00 2021.

 ----------------------------------------------------------------------
 #P Geom=AllCheck Guess=TCheck SCRF=Check GenChk RB3LYP/6-31G(d,p) Freq
 ----------------------------------------------------------------------

 Structure from the checkpoint file:  "/public/home/users/caep010/.cache/gau_scr/Gau-1805.chk"
 --------
 Frag_265
 --------
 Charge =  0 Multiplicity = 1

                         Standard orientation:
 ---------------------------------------------------------------------
 Center     Atomic      Atomic             Coordinates (Angstroms)
 Number     Number       Type             X           Y           Z
 ---------------------------------------------------------------------
      1          7           0        2.310313   -0.460737   -0.000007
      2          6           0        1.173332   -0.214420    0.000004
      3          6           0       -0.244764    0.157174    0.000011
      4          7           0       -0.504934    1.583351    0.000013
      5          6           0       -1.235361   -0.776221    0.646081
      6          6           0       -1.235352   -0.776204   -0.646090
      7          1           0       -0.080745    2.018798   -0.816698
      8          1           0       -0.080611    2.018822    0.816639
      9          1           0       -1.611727   -1.118964    1.596422
     10          1           0       -1.611708   -1.118922   -1.596443
 ---------------------------------------------------------------------

 SCF Done:  E(RB3LYP) =  -264.219962793     A.U. after    1 cycles

 The electronic state is 1-A.
 Alpha  occ. eigenvalues --  -14.33595 -14.32630 -10.28363 -10.23651 -10.23529
 Alpha  occ. eigenvalues --  -10.21843  -0.94627  -0.88786  -0.85943  -0.65697
 Alpha  occ. eigenvalues --   -0.59901  -0.55306  -0.51358  -0.49650  -0.40509
 Alpha  occ. eigenvalues --   -0.36617  -0.35778  -0.33258  -0.29871  -0.29262
 Alpha  occ. eigenvalues --   -0.26477
 Alpha virt. eigenvalues --   -0.01999   0.03570   0.04001   0.08634   0.11165
 Alpha virt. eigenvalues --    0.12220   0.13713   0.15891   0.20102   0.24161
 Alpha virt. eigenvalues --    0.28445   0.34654   0.38141   0.45459   0.50641

 Mulliken charges:
               1
     1  N   -0.485619
     2  C    0.330150
     3  C    0.079226
     4  N   -0.594632
     5  C   -0.045780
     6  C   -0.045788
     7  H    0.252692
     8  H    0.252692
     9  H    0.128530
    10  H    0.128529
 Sum of Mulliken charges =  -0.00000

 Dipole moment (field-independent basis, Debye):
    X=             -3.1427    Y=              0.4852    Z=             -0.0001  Tot=              3.1799
 Quadrupole moment (field-independent basis, Debye-Ang):
   XX=            -44.0767   YY=            -31.7977   ZZ=            -29.2207
   XY=              6.3292   XZ=              0.0003   YZ=             -0.0003

  Exact polarizability:  56.083   3.643  41.709   0.000  -0.000  42.056
 Approx polarizability:  90.536   1.577  57.570  -0.000  -0.000  70.441

                      1                      2                      3
                      A                      A                      A
 Frequencies --    184.1495               204.7614               237.9853
 Red. masses --      5.8696                 1.4710                 1.9677
 Frc consts  --      0.1173                 0.0363                 0.0657
 IR Inten    --      7.3148                35.5837                 7.5541

                      4                      5                      6
                      A                      A                      A
 Frequencies --    390.5889               406.9432               586.0526
 Red. masses --      2.6733                 3.1929                 4.9464
 Frc consts  --      0.2403                 0.3115                 1.0010
 IR Inten    --      0.5407                17.7614                 1.5937

                      7                      8                      9
                      A                      A                      A
 Frequencies --    587.7283               648.0516               714.9542
 Red. masses --      4.1069                 1.6783                 4.0263
 Frc consts  --      0.8358                 0.4153                 1.2126
 IR Inten    --      2.5670                45.8353                 6.0335

                     10                     11                     12
                      A                      A                      A
 Frequencies --    850.6926               858.8025               863.7351
 Red. masses --      1.4788                 1.3940                 3.2690
 Frc consts  --      0.6305                 0.6058                 1.4369
 IR Inten    --      0.0487               200.5651                 0.0605

                     13                     14                     15
                      A                      A                      A
 Frequencies --    979.0090              1027.7932              1096.1798
 Red. masses --      1.1863                 1.5606                 8.3836
 Frc consts  --      0.6699                 0.9713                 5.9353
 IR Inten    --     12.1716                24.9240                50.8439

                     16                     17                     18
                      A                      A                      A
 Frequencies --   1245.1853              1254.9854              1666.2332
 Red. masses --      6.1169                 1.3485                 1.0958
 Frc consts  --      5.5880                 1.2514                 1.7925
 IR Inten    --     27.3994                 2.3533                20.9803

                     19                     20                     21
                      A                      A                      A
 Frequencies --   1751.6366              2334.3956              3279.2365
 Red. masses --      5.1792                12.6984                 1.0852
 Frc consts  --      9.3628                40.7706                 6.8756
 IR Inten    --     17.8692                14.5431                 3.4483

                     22                     23                     24
                      A                      A                      A
 Frequencies --   3326.3830              3484.9437              3568.2454
 Red. masses --      1.1494                 1.0488                 1.0933
 Frc consts  --      7.4930                 7.5050                 8.2013
 IR Inten    --      1.2318                 0.1865                 3.0720

 - Thermochemistry -
 -------------------
 Temperature   298.150 Kelvin.  Pressure   1.00000 Atm.
 Atom     1 has atomic number  7 and mass  14.00307

 Molecular mass:    80.03745 amu.
 Principal axes and moments of inertia in atomic units:
                           1         2         3
     Eigenvalues --   287.28053 549.67223 719.11013
           X            0.99906   0.04340   0.00000
           Y           -0.04340   0.99906  -0.00000
           Z           -0.00000   0.00000   1.00000
 This molecule is an asymmetric top.
 Rotational symmetry number  1.
 Rotational temperatures (Kelvin)      0.30150     0.15757     0.12045
 Rotational constants (GHZ):           6.28216     3.28330     2.50969
 Zero-point vibrational energy     188703.0 (Joules/Mol)
                                   45.10109 (Kcal/Mol)
 Warning -- explicit consideration of   7 degrees of freedom as
           vibrations may cause significant error
 Vibrational temperatures:    264.95   294.61   342.41   561.97   585.50
          (Kelvin)            843.20   845.61   932.40  1028.66  1223.96
                             1235.62  1242.72  1408.57  1478.76  1577.16
                             1791.54  1805.64  2397.33  2520.21  3358.67
                             4718.08  4785.92  5014.05  5133.90

 Zero-point correction=                           0.071873 (Hartree/Particle)
 Thermal correction to Energy=                    0.077867
 Thermal correction to Enthalpy=                  0.078811
 Thermal correction to Gibbs Free Energy=         0.042774
 Sum of electronic and zero-point Energies=           -264.148090
 Sum of electronic and thermal Energies=              -264.142096
 Sum of electronic and thermal Enthalpies=            -264.141152
 Sum of electronic and thermal Free Energies=         -264.177189

                     E (Thermal)             CV                S
                      KCal/Mol        Cal/Mol-Kelvin    Cal/Mol-Kelvin
 Total                   48.862             21.373             75.845
 Electronic               0.000              0.000              0.000
 Translational            0.889              2.981             39.054
 Rotational               0.889              2.981             26.232
 Vibrational             47.085             15.411             10.559
 Vibration     1          0.631              1.861              2.286
 Vibration     2          0.640              1.833              2.090
 Vibration     3          0.656              1.782              1.818
 Vibration     4          0.758              1.490              0.998
 Vibration     5          0.772              1.455              0.937
 Vibration     6          0.943              1.062              0.474
 Vibration     7          0.945              1.058              0.471

 Optimization completed.
    -- Stationary point found.
 Normal termination of Gaussian 09 at Sat Aug 21 01:35:09 2021.
