 Gaussian 09, Revision D.01,
 Gaussian 09:  ES64L-G09RevD.01 24-Apr-2013

 -------------------------
 #P OPT Freq B3LYP/6-31G**
 -------------------------

 --------
 Frag_113
 --------
 Symbolic Z-matrix:
 Charge =  0 Multiplicity = 1

 SCF Done:  E(RB3LYP) =  -197.787878114     A.U. after   11 cycles
 Optimization completed.
    -- Stationary point found.
 Normal termination of Gaussian 09 at Fri Jul 23 07:17:10 2021.

 ----------------------------------------------------------------------
 #P Geom=AllCheck Guess=TCheck SCRF=Check GenChk RB3LYP/6-31G(d,p) Freq
 ----------------------------------------------------------------------

 Structure from the checkpoint file:  "/vol2/users/liuj201281/HOFBenchmark/IsodesmicSplit/Sample60/Ring26/Running/Gau-416090.chk"
 --------
 Frag_113
 --------
 Charge =  0 Multiplicity = 1

                         Standard orientation:
 ---------------------------------------------------------------------
 Center     Atomic      Atomic             Coordinates (Angstroms)
 Number     Number       Type             X           Y           Z
 ---------------------------------------------------------------------
      1          6           0       -2.101380   -0.032630   -0.114010
      2          6           0       -0.764771   -0.663411    0.290390
      3          6           0        0.482319   -0.002693   -0.329610
      4          6           0        1.741231   -0.822475   -0.011210
      5          6           0        0.660798    1.454510    0.121690
      6          1           0       -2.190195    1.001568    0.233090
      7          1           0       -2.942472   -0.591543    0.309090
      8          1           0       -2.222781   -0.027932   -1.203610
      9          1           0       -0.773556   -1.723811    0.004590
     10          1           0       -0.666972   -0.647010    1.385590
     11          1           0        0.348019   -0.003195   -1.422310
     12          1           0        2.630425   -0.386462   -0.479310
     13          1           0        1.647646   -1.854676   -0.366210
     14          1           0        1.921031   -0.858472    1.070390
     15          1           0        1.555992    1.897323   -0.328310
     16          1           0        0.775097    1.513211    1.211390
     17          1           0       -0.191411    2.081197   -0.157910
 ---------------------------------------------------------------------

 SCF Done:  E(RB3LYP) =  -197.787878114     A.U. after    1 cycles

 The electronic state is 1-A.
 Alpha  occ. eigenvalues --  -10.18306 -10.17491 -10.17006 -10.16830 -10.16814
 Alpha  occ. eigenvalues --   -0.80225  -0.72654  -0.67642  -0.61952  -0.54999
 Alpha  occ. eigenvalues --   -0.45878  -0.43757  -0.42296  -0.40480  -0.37868
 Alpha  occ. eigenvalues --   -0.37492  -0.35431  -0.34344  -0.31645  -0.31441
 Alpha  occ. eigenvalues --   -0.30866
 Alpha virt. eigenvalues --    0.08627   0.12253   0.13080   0.14229   0.15581
 Alpha virt. eigenvalues --    0.16304   0.17203   0.17865   0.18610   0.19380
 Alpha virt. eigenvalues --    0.21409   0.22516   0.23931   0.25709   0.26191

 Mulliken charges:
               1
     1  C   -0.321848
     2  C   -0.158461
     3  C   -0.046632
     4  C   -0.309099
     5  C   -0.308876
     6  H    0.104631
     7  H    0.099315
     8  H    0.100741
     9  H    0.087107
    10  H    0.086495
    11  H    0.081307
    12  H    0.095995
    13  H    0.096630
    14  H    0.098095
    15  H    0.097013
    16  H    0.097300
    17  H    0.100287
 Sum of Mulliken charges =   0.00000

 Dipole moment (field-independent basis, Debye):
    X=             -0.0261    Y=             -0.0193    Z=             -0.0435  Tot=              0.0542
 Quadrupole moment (field-independent basis, Debye-Ang):
   XX=            -35.1967   YY=            -35.0007   ZZ=            -34.5872
   XY=              0.1873   XZ=             -0.1493   YZ=              0.0514

  Exact polarizability:  60.557   0.201  54.738  -0.179  -0.057  50.232
 Approx polarizability:  73.297   0.641  72.692  -0.243   0.115  73.493

                      1                      2                      3
                      A                      A                      A
 Frequencies --     95.4111               215.5694               226.2642
 Red. masses --      1.7277                 1.0591                 1.1676
 Frc consts  --      0.0093                 0.0290                 0.0352
 IR Inten    --      0.0015                 0.0368                 0.0180

                      4                      5                      6
                      A                      A                      A
 Frequencies --    259.7812               264.8992               367.0802
 Red. masses --      1.1865                 1.8448                 2.0996
 Frc consts  --      0.0472                 0.0763                 0.1667
 IR Inten    --      0.0053                 0.0141                 0.0002

                      7                      8                      9
                      A                      A                      A
 Frequencies --    414.5422               455.9343               766.6430
 Red. masses --      1.9422                 2.4129                 1.6983
 Frc consts  --      0.1966                 0.2955                 0.5881
 IR Inten    --      0.1950                 0.2301                 1.9391

                     10                     11                     12
                      A                      A                      A
 Frequencies --    801.2610               918.1928               933.8169
 Red. masses --      1.4162                 2.0896                 1.1780
 Frc consts  --      0.5357                 1.0380                 0.6052
 IR Inten    --      0.6225                 0.4749                 0.9625

                     13                     14                     15
                      A                      A                      A
 Frequencies --    969.1475               989.0030              1028.8900
 Red. masses --      1.4311                 1.1843                 1.4921
 Frc consts  --      0.7920                 0.6825                 0.9306
 IR Inten    --      0.1496                 3.8639                 2.5465

                     16                     17                     18
                      A                      A                      A
 Frequencies --   1050.2604              1174.1154              1199.5542
 Red. masses --      2.7906                 1.9575                 1.7394
 Frc consts  --      1.8136                 1.5899                 1.4747
 IR Inten    --      0.1959                 2.6509                 1.7499

                     19                     20                     21
                      A                      A                      A
 Frequencies --   1210.1616              1303.2518              1332.7976
 Red. masses --      1.9683                 1.2487                 1.2543
 Frc consts  --      1.6983                 1.2496                 1.3128
 IR Inten    --      0.2311                 1.7108                 4.4404

                     22                     23                     24
                      A                      A                      A
 Frequencies --   1376.2979              1393.9213              1416.2810
 Red. masses --      1.3330                 1.4944                 1.2942
 Frc consts  --      1.4877                 1.7108                 1.5295
 IR Inten    --      2.8244                 0.1954                 4.0912

                     25                     26                     27
                      A                      A                      A
 Frequencies --   1425.8992              1434.7077              1495.4115
 Red. masses --      1.2468                 1.2328                 1.0639
 Frc consts  --      1.4936                 1.4951                 1.4018
 IR Inten    --      2.2960                 3.3867                 0.1872

                     28                     29                     30
                      A                      A                      A
 Frequencies --   1502.5921              1510.1201              1513.9435
 Red. masses --      1.0423                 1.0538                 1.0411
 Frc consts  --      1.3866                 1.4159                 1.4060
 IR Inten    --      0.2511                 1.1492                 9.1232

                     31                     32                     33
                      A                      A                      A
 Frequencies --   1519.3474              1522.2928              1527.3982
 Red. masses --      1.0635                 1.0594                 1.0491
 Frc consts  --      1.4465                 1.4464                 1.4420
 IR Inten    --      2.3218                 6.0017                 3.9437

                     34                     35                     36
                      A                      A                      A
 Frequencies --   3000.8817              3016.1886              3030.6034
 Red. masses --      1.0819                 1.0612                 1.0363
 Frc consts  --      5.7403                 5.6880                 5.6078
 IR Inten    --     10.7499                32.3349                31.1052

                     37                     38                     39
                      A                      A                      A
 Frequencies --   3036.1716              3039.9514              3051.9226
 Red. masses --      1.0379                 1.0382                 1.1007
 Frc consts  --      5.6371                 5.6530                 6.0406
 IR Inten    --     36.0683                18.8852                24.8080

                     40                     41                     42
                      A                      A                      A
 Frequencies --   3096.4574              3101.9780              3106.0555
 Red. masses --      1.1012                 1.1008                 1.1013
 Frc consts  --      6.2205                 6.2407                 6.2600
 IR Inten    --      5.3189                41.5631                69.0351

                     43                     44                     45
                      A                      A                      A
 Frequencies --   3107.4832              3112.0890              3119.4208
 Red. masses --      1.1023                 1.1019                 1.1004
 Frc consts  --      6.2716                 6.2878                 6.3091
 IR Inten    --     26.0247                66.4903                35.4090

 - Thermochemistry -
 -------------------
 Temperature   298.150 Kelvin.  Pressure   1.00000 Atm.
 Atom     1 has atomic number  6 and mass  12.00000

 Molecular mass:    72.09390 amu.
 Principal axes and moments of inertia in atomic units:
                           1         2         3
     Eigenvalues --   248.55075 542.87191 710.23810
           X            0.99997  -0.00749   0.00371
           Y            0.00749   0.99997   0.00020
           Z           -0.00371  -0.00017   0.99999
 This molecule is an asymmetric top.
 Rotational symmetry number  1.
 Rotational temperatures (Kelvin)      0.34848     0.15955     0.12195
 Rotational constants (GHZ):           7.26106     3.32443     2.54104
 Zero-point vibrational energy     421288.8 (Joules/Mol)
                                  100.69045 (Kcal/Mol)
 Warning -- explicit consideration of   8 degrees of freedom as
           vibrations may cause significant error
 Vibrational temperatures:    137.28   310.16   325.54   373.77   381.13
          (Kelvin)            528.15   596.43   655.99  1103.03  1152.83
                             1321.07  1343.55  1394.39  1422.95  1480.34
                             1511.09  1689.29  1725.89  1741.15  1875.09
                             1917.60  1980.18  2005.54  2037.71  2051.55
                             2064.22  2151.56  2161.89  2172.72  2178.22
                             2186.00  2190.24  2197.58  4317.59  4339.62
                             4360.36  4368.37  4373.81  4391.03  4455.11
                             4463.05  4468.92  4470.97  4477.60  4488.15

 Zero-point correction=                           0.160460 (Hartree/Particle)
 Thermal correction to Energy=                    0.167478
 Thermal correction to Enthalpy=                  0.168423
 Thermal correction to Gibbs Free Energy=         0.130540
 Sum of electronic and zero-point Energies=           -197.627418
 Sum of electronic and thermal Energies=              -197.620400
 Sum of electronic and thermal Enthalpies=            -197.619456
 Sum of electronic and thermal Free Energies=         -197.657338

                     E (Thermal)             CV                S
                      KCal/Mol        Cal/Mol-Kelvin    Cal/Mol-Kelvin
 Total                  105.094             25.025             79.730
 Electronic               0.000              0.000              0.000
 Translational            0.889              2.981             38.743
 Rotational               0.889              2.981             26.063
 Vibrational            103.317             19.063             14.924
 Vibration     1          0.603              1.952              3.546
 Vibration     2          0.645              1.817              1.996
 Vibration     3          0.650              1.801              1.908
 Vibration     4          0.668              1.746              1.663
 Vibration     5          0.671              1.737              1.629
 Vibration     6          0.740              1.540              1.092
 Vibration     7          0.778              1.439              0.911
 Vibration     8          0.814              1.348              0.778

 Optimization completed.
    -- Stationary point found.
 Normal termination of Gaussian 09 at Fri Jul 23 07:17:52 2021.
