 Gaussian 09, Revision E.01,
 Gaussian 09:  ES64L-G09RevE.01 30-Nov-2015

 ----------------------------
 #P OPT Freq B3LYP/6-31G(d,p)
 ----------------------------

 --------
 Frag_712
 --------
 Symbolic Z-matrix:
 Charge =  0 Multiplicity = 1

 SCF Done:  E(RB3LYP) =  -210.339007414     A.U. after   12 cycles
 SCF Done:  E(RB3LYP) =  -210.339043573     A.U. after    8 cycles
 SCF Done:  E(RB3LYP) =  -210.339050089     A.U. after    8 cycles
 SCF Done:  E(RB3LYP) =  -210.339050616     A.U. after    7 cycles
 Optimization completed.
    -- Stationary point found.
 Normal termination of Gaussian 09 at Thu Sep  8 15:12:01 2022.

 ----------------------------------------------------------------------
 #P Geom=AllCheck Guess=TCheck SCRF=Check GenChk RB3LYP/6-31G(d,p) Freq
 ----------------------------------------------------------------------

 Structure from the checkpoint file:  "B3LYP6-31Gdp.Frag_712.chk"
 --------
 Frag_712
 --------
 Charge =  0 Multiplicity = 1

                         Standard orientation:
 ---------------------------------------------------------------------
 Center     Atomic      Atomic             Coordinates (Angstroms)
 Number     Number       Type             X           Y           Z
 ---------------------------------------------------------------------
      1          6           0        1.676536   -0.335768   -0.046226
      2          7           0        0.524828    0.535152   -0.270138
      3          8           0       -0.537877    0.046184    0.579606
      4          6           0       -1.685487   -0.184838   -0.221899
      5          1           0        2.534499    0.102526   -0.567393
      6          1           0        1.474380   -1.318221   -0.481090
      7          1           0        1.928954   -0.467917    1.015500
      8          1           0        0.735601    1.448282    0.136515
      9          1           0       -2.445941   -0.581718    0.457248
     10          1           0       -1.488069   -0.915666   -1.016526
     11          1           0       -2.056497    0.740809   -0.681387
 ---------------------------------------------------------------------

 SCF Done:  E(RB3LYP) =  -210.339050616     A.U. after    1 cycles

 The electronic state is 1-A.
 Alpha  occ. eigenvalues --  -19.16332 -14.36618 -10.21838 -10.20337  -1.05016
 Alpha  occ. eigenvalues --   -0.84160  -0.67916  -0.63270  -0.50413  -0.46794
 Alpha  occ. eigenvalues --   -0.45130  -0.41751  -0.39369  -0.38795  -0.34717
 Alpha  occ. eigenvalues --   -0.25702  -0.23581
 Alpha virt. eigenvalues --    0.09112   0.10309   0.13293   0.13688   0.16909
 Alpha virt. eigenvalues --    0.17581   0.17793   0.18849   0.20680   0.22822
 Alpha virt. eigenvalues --    0.52863   0.53544   0.55787   0.57757   0.59229

 Mulliken charges:
               1
     1  C   -0.160076
     2  N   -0.278700
     3  O   -0.414585
     4  C   -0.029980
     5  H    0.105269
     6  H    0.121857
     7  H    0.103140
     8  H    0.256199
     9  H    0.105319
    10  H    0.096814
    11  H    0.094744
 Sum of Mulliken charges =  -0.00000

 Dipole moment (field-independent basis, Debye):
    X=              0.4574    Y=              0.2311    Z=             -0.1804  Tot=              0.5433
 Quadrupole moment (field-independent basis, Debye-Ang):
   XX=            -21.4633   YY=            -23.8486   ZZ=            -27.7177
   XY=              1.0283   XZ=              0.8300   YZ=              1.0097

  Exact polarizability:  44.604   1.342  32.264  -0.458  -0.092  29.197
 Approx polarizability:  51.698   2.708  43.030  -2.051  -0.747  40.979

                      1                      2                      3
                      A                      A                      A
 Frequencies --     64.1586               204.7291               249.6286
 Red. masses --      2.5259                 1.1161                 1.1296
 Frc consts  --      0.0061                 0.0276                 0.0415
 IR Inten    --      6.4443                 1.8489                 1.1435

                      4                      5                      6
                      A                      A                      A
 Frequencies --    401.6068               461.8060               823.1390
 Red. masses --      2.6905                 3.0126                 3.6201
 Frc consts  --      0.2557                 0.3785                 1.4451
 IR Inten    --     13.5936                 4.7071                16.8367

                      7                      8                      9
                      A                      A                      A
 Frequencies --    954.6662              1043.0847              1090.6824
 Red. masses --      1.2471                 3.0249                 4.5389
 Frc consts  --      0.6696                 1.9391                 3.1813
 IR Inten    --     72.6105                22.8909                36.4143

                     10                     11                     12
                      A                      A                      A
 Frequencies --   1166.1278              1181.0805              1221.5370
 Red. masses --      1.5172                 1.2973                 1.6323
 Frc consts  --      1.2155                 1.0662                 1.4350
 IR Inten    --      1.6245                 2.0151                 4.2298

                     13                     14                     15
                      A                      A                      A
 Frequencies --   1246.0557              1451.3201              1463.3095
 Red. masses --      1.5849                 1.1888                 1.1236
 Frc consts  --      1.4499                 1.4753                 1.4175
 IR Inten    --     16.6776                 2.1693                 0.4355

                     16                     17                     18
                      A                      A                      A
 Frequencies --   1477.0025              1488.1383              1490.5090
 Red. masses --      1.1354                 1.0577                 1.0460
 Frc consts  --      1.4594                 1.3800                 1.3692
 IR Inten    --      4.6989                 0.8659                 6.2775

                     19                     20                     21
                      A                      A                      A
 Frequencies --   1523.9391              1530.4807              3010.2230
 Red. masses --      1.0579                 1.0470                 1.0372
 Frc consts  --      1.4475                 1.4450                 5.5372
 IR Inten    --     15.1355                 3.4990               109.8614

                     22                     23                     24
                      A                      A                      A
 Frequencies --   3012.6851              3072.2496              3091.5784
 Red. masses --      1.0377                 1.1062                 1.0926
 Frc consts  --      5.5492                 6.1518                 6.1526
 IR Inten    --      4.7508                56.8424                32.8004

                     25                     26                     27
                      A                      A                      A
 Frequencies --   3121.7062              3127.6955              3450.3250
 Red. masses --      1.1018                 1.1030                 1.0758
 Frc consts  --      6.3262                 6.3573                 7.5456
 IR Inten    --     32.2767                25.0199                 2.5843

 - Thermochemistry -
 -------------------
 Temperature   298.150 Kelvin.  Pressure   1.00000 Atm.
 Atom     1 has atomic number  6 and mass  12.00000

 Molecular mass:    61.05276 amu.
 Principal axes and moments of inertia in atomic units:
                           1         2         3
     Eigenvalues --    78.28555 399.81470 405.62581
           X            0.99983  -0.00849   0.01659
           Y            0.00308   0.95325   0.30215
           Z           -0.01838  -0.30205   0.95311
 This molecule is an asymmetric top.
 Rotational symmetry number  1.
 Rotational temperatures (Kelvin)      1.10638     0.21663     0.21353
 Rotational constants (GHZ):          23.05331     4.51394     4.44928
 Zero-point vibrational energy     253724.7 (Joules/Mol)
                                   60.64167 (Kcal/Mol)
 Warning -- explicit consideration of   5 degrees of freedom as
           vibrations may cause significant error
 Vibrational temperatures:     92.31   294.56   359.16   577.82   664.43
          (Kelvin)           1184.31  1373.55  1500.76  1569.25  1677.80
                             1699.31  1757.52  1792.79  2088.12  2105.37
                             2125.07  2141.10  2144.51  2192.61  2202.02
                             4331.03  4334.58  4420.28  4448.09  4491.43
                             4500.05  4964.24

 Zero-point correction=                           0.096639 (Hartree/Particle)
 Thermal correction to Energy=                    0.102155
 Thermal correction to Enthalpy=                  0.103099
 Thermal correction to Gibbs Free Energy=         0.068478
 Sum of electronic and zero-point Energies=           -210.242412
 Sum of electronic and thermal Energies=              -210.236896
 Sum of electronic and thermal Enthalpies=            -210.235952
 Sum of electronic and thermal Free Energies=         -210.270572

                     E (Thermal)             CV                S
                      KCal/Mol        Cal/Mol-Kelvin    Cal/Mol-Kelvin
 Total                   64.103             17.355             72.864
 Electronic               0.000              0.000              0.000
 Translational            0.889              2.981             38.247
 Rotational               0.889              2.981             24.055
 Vibrational             62.325             11.394             10.562
 Vibration     1          0.597              1.971              4.325
 Vibration     2          0.640              1.833              2.090
 Vibration     3          0.662              1.763              1.733
 Vibration     4          0.767              1.467              0.957
 Vibration     5          0.820              1.335              0.761

 Normal termination of Gaussian 09 at Thu Sep  8 15:12:08 2022.
