 Gaussian 09, Revision E.01,
 Gaussian 09:  ES64L-G09RevE.01 30-Nov-2015

 ----------------------------
 #P OPT Freq B3LYP/6-31G(d,p)
 ----------------------------

 --------
 Frag_905
 --------
 Symbolic Z-matrix:
 Charge =  0 Multiplicity = 1

 SCF Done:  E(RB3LYP) =  -264.466412298     A.U. after   14 cycles
 SCF Done:  E(RB3LYP) =  -264.466503120     A.U. after   10 cycles
 SCF Done:  E(RB3LYP) =  -264.466503734     A.U. after   10 cycles
 SCF Done:  E(RB3LYP) =  -264.466499443     A.U. after   10 cycles
 SCF Done:  E(RB3LYP) =  -264.466508293     A.U. after   10 cycles
 SCF Done:  E(RB3LYP) =  -264.466508343     A.U. after    8 cycles
 SCF Done:  E(RB3LYP) =  -264.466508339     A.U. after    8 cycles
 Optimization completed.
    -- Stationary point found.
 Normal termination of Gaussian 09 at Thu Sep  8 15:18:30 2022.

 ----------------------------------------------------------------------
 #P Geom=AllCheck Guess=TCheck SCRF=Check GenChk RB3LYP/6-31G(d,p) Freq
 ----------------------------------------------------------------------

 Structure from the checkpoint file:  "B3LYP6-31Gdp.Frag_905.chk"
 --------
 Frag_905
 --------
 Charge =  0 Multiplicity = 1

                         Standard orientation:
 ---------------------------------------------------------------------
 Center     Atomic      Atomic             Coordinates (Angstroms)
 Number     Number       Type             X           Y           Z
 ---------------------------------------------------------------------
      1          6           0       -1.827120    0.036096   -0.320401
      2          6           0       -0.672830   -0.573704    0.459885
      3          7           0        0.642718    0.056957    0.051408
      4          7           0        1.652137   -0.639640   -0.289941
      5          8           0        0.659618    1.298782    0.095195
      6          1           0       -2.771791   -0.381739    0.038703
      7          1           0       -1.838057    1.117598   -0.179902
      8          1           0       -1.738663   -0.179868   -1.388903
      9          1           0       -0.593739   -1.652630    0.308825
     10          1           0       -0.763468   -0.368236    1.529602
     11          1           0        1.364484   -1.620948   -0.237055
 ---------------------------------------------------------------------

 SCF Done:  E(RB3LYP) =  -264.466508339     A.U. after    1 cycles

 The electronic state is 1-A.
 Alpha  occ. eigenvalues --  -19.14938 -14.52549 -14.36088 -10.25482 -10.20284
 Alpha  occ. eigenvalues --   -1.15883  -0.95630  -0.81761  -0.69205  -0.61136
 Alpha  occ. eigenvalues --   -0.55691  -0.51311  -0.47834  -0.46321  -0.41680
 Alpha  occ. eigenvalues --   -0.39831  -0.38011  -0.30449  -0.26903  -0.26267
 Alpha virt. eigenvalues --   -0.04132   0.05952   0.10095   0.12104   0.13636
 Alpha virt. eigenvalues --    0.15473   0.16641   0.17659   0.20829   0.30378
 Alpha virt. eigenvalues --    0.35422   0.47887   0.50324   0.51519   0.53298

 Mulliken charges:
               1
     1  C   -0.325504
     2  C   -0.076906
     3  N    0.218579
     4  N   -0.304301
     5  O   -0.419691
     6  H    0.118991
     7  H    0.158298
     8  H    0.126536
     9  H    0.111758
    10  H    0.157031
    11  H    0.235210
 Sum of Mulliken charges =  -0.00000

 Dipole moment (field-independent basis, Debye):
    X=             -3.1966    Y=             -3.2270    Z=              0.7237  Tot=              4.5995
 Quadrupole moment (field-independent basis, Debye-Ang):
   XX=            -33.7175   YY=            -30.1145   ZZ=            -29.4192
   XY=             -1.9067   XZ=              0.7140   YZ=             -0.3112

  Exact polarizability:  45.377  -4.828  45.733  -3.122   1.728  29.337
 Approx polarizability:  63.134 -16.339  87.232  -7.718   7.290  41.484

                      1                      2                      3
                      A                      A                      A
 Frequencies --     59.3933               231.1155               299.9462
 Red. masses --      2.6512                 1.1047                 3.1840
 Frc consts  --      0.0055                 0.0348                 0.1688
 IR Inten    --      0.5248                 1.4281                13.3522

                      4                      5                      6
                      A                      A                      A
 Frequencies --    485.1845               583.1578               673.2552
 Red. masses --      2.8971                 4.5041                 3.1736
 Frc consts  --      0.4018                 0.9025                 0.8475
 IR Inten    --      2.1951                11.2224                13.9502

                      7                      8                      9
                      A                      A                      A
 Frequencies --    809.1572               812.6838               848.6329
 Red. masses --      1.2420                 1.1590                 4.8458
 Frc consts  --      0.4791                 0.4510                 2.0562
 IR Inten    --     36.7965                 1.7912                 8.3928

                     10                     11                     12
                      A                      A                      A
 Frequencies --   1005.9730              1115.5129              1151.1088
 Red. masses --      2.1559                 2.0604                 1.5563
 Frc consts  --      1.2854                 1.5106                 1.2150
 IR Inten    --      2.0502                 5.1404                 4.3238

                     13                     14                     15
                      A                      A                      A
 Frequencies --   1278.4172              1306.2256              1368.5048
 Red. masses --      1.6053                 1.4489                 1.3160
 Frc consts  --      1.5458                 1.4565                 1.4521
 IR Inten    --     34.8016                75.6917                 3.8909

                     16                     17                     18
                      A                      A                      A
 Frequencies --   1418.1405              1471.4453              1493.6547
 Red. masses --      1.2461                 2.1865                 1.2474
 Frc consts  --      1.4766                 2.7892                 1.6397
 IR Inten    --      1.9552               125.3412                44.4331

                     19                     20                     21
                      A                      A                      A
 Frequencies --   1501.7078              1522.1115              1666.1650
 Red. masses --      1.0464                 1.0531                 4.0492
 Frc consts  --      1.3903                 1.4376                 6.6229
 IR Inten    --     10.8729                 6.6001               102.5717

                     22                     23                     24
                      A                      A                      A
 Frequencies --   3065.2037              3081.5111              3131.3442
 Red. masses --      1.0365                 1.0584                 1.1051
 Frc consts  --      5.7377                 5.9216                 6.3845
 IR Inten    --     13.6104                11.5120                 8.8347

                     25                     26                     27
                      A                      A                      A
 Frequencies --   3142.7597              3170.2170              3444.9590
 Red. masses --      1.1060                 1.1030                 1.0737
 Frc consts  --      6.4363                 6.5314                 7.5079
 IR Inten    --     14.2946                 7.0716                 0.9248

 - Thermochemistry -
 -------------------
 Temperature   298.150 Kelvin.  Pressure   1.00000 Atm.
 Atom     1 has atomic number  6 and mass  12.00000

 Molecular mass:    74.04801 amu.
 Principal axes and moments of inertia in atomic units:
                           1         2         3
     Eigenvalues --   189.81386 437.69875 558.97617
           X            0.99977  -0.01922   0.00946
           Y            0.01940   0.99962  -0.01960
           Z           -0.00908   0.01978   0.99976
 This molecule is an asymmetric top.
 Rotational symmetry number  1.
 Rotational temperatures (Kelvin)      0.45631     0.19788     0.15495
 Rotational constants (GHZ):           9.50795     4.12325     3.22865
 Zero-point vibrational energy     240075.5 (Joules/Mol)
                                   57.37942 (Kcal/Mol)
 Warning -- explicit consideration of   5 degrees of freedom as
           vibrations may cause significant error
 Vibrational temperatures:     85.45   332.52   431.56   698.07   839.03
          (Kelvin)            968.66  1164.20  1169.27  1220.99  1447.37
                             1604.97  1656.19  1839.35  1879.36  1968.97
                             2040.39  2117.08  2149.03  2160.62  2189.98
                             2397.24  4410.14  4433.60  4505.30  4521.72
                             4561.23  4956.52

 Zero-point correction=                           0.091440 (Hartree/Particle)
 Thermal correction to Energy=                    0.096907
 Thermal correction to Enthalpy=                  0.097851
 Thermal correction to Gibbs Free Energy=         0.062519
 Sum of electronic and zero-point Energies=           -264.375068
 Sum of electronic and thermal Energies=              -264.369601
 Sum of electronic and thermal Enthalpies=            -264.368657
 Sum of electronic and thermal Free Energies=         -264.403989

                     E (Thermal)             CV                S
                      KCal/Mol        Cal/Mol-Kelvin    Cal/Mol-Kelvin
 Total                   60.810             18.217             74.362
 Electronic               0.000              0.000              0.000
 Translational            0.889              2.981             38.822
 Rotational               0.889              2.981             25.344
 Vibrational             59.033             12.256             10.196
 Vibration     1          0.597              1.974              4.477
 Vibration     2          0.653              1.793              1.870
 Vibration     3          0.692              1.674              1.417
 Vibration     4          0.841              1.283              0.696
 Vibration     5          0.940              1.068              0.480

 Optimization completed.
    -- Stationary point found.
 Normal termination of Gaussian 09 at Thu Sep  8 15:18:38 2022.
