 Gaussian 09, Revision E.01,
 Gaussian 09:  ES64L-G09RevE.01 30-Nov-2015

 ----------------------------
 #P OPT Freq B3LYP/6-31G(d,p)
 ----------------------------

 --------
 Frag_464
 --------
 Symbolic Z-matrix:
 Charge =  0 Multiplicity = 1

 SCF Done:  E(RB3LYP) =  -327.133963537     A.U. after   14 cycles
 SCF Done:  E(RB3LYP) =  -327.134016925     A.U. after    9 cycles
 SCF Done:  E(RB3LYP) =  -327.134014783     A.U. after    9 cycles
 SCF Done:  E(RB3LYP) =  -327.134020516     A.U. after    9 cycles
 SCF Done:  E(RB3LYP) =  -327.134021064     A.U. after    7 cycles
 SCF Done:  E(RB3LYP) =  -327.134021237     A.U. after    7 cycles
 SCF Done:  E(RB3LYP) =  -327.134021391     A.U. after    7 cycles
 Optimization completed.
    -- Stationary point found.
 Normal termination of Gaussian 09 at Thu Sep  8 15:01:32 2022.

 ----------------------------------------------------------------------
 #P Geom=AllCheck Guess=TCheck SCRF=Check GenChk RB3LYP/6-31G(d,p) Freq
 ----------------------------------------------------------------------

 Structure from the checkpoint file:  "B3LYP6-31Gdp.Frag_464.chk"
 --------
 Frag_464
 --------
 Charge =  0 Multiplicity = 1

                         Standard orientation:
 ---------------------------------------------------------------------
 Center     Atomic      Atomic             Coordinates (Angstroms)
 Number     Number       Type             X           Y           Z
 ---------------------------------------------------------------------
      1          6           0        1.871495   -0.869973    0.067515
      2          6           0        0.905648    0.290842   -0.052485
      3          7           0        1.240686    1.514925   -0.188438
      4          6           0       -0.593660   -0.059404    0.021040
      5          6           0       -0.982432   -1.018014   -1.111325
      6          6           0       -1.477681    1.189052    0.002594
      7          8           0       -0.818489   -0.805011    1.235664
      8          1           0        1.542990   -1.561613    0.847034
      9          1           0        2.880539   -0.514860    0.295012
     10          1           0        1.915139   -1.434248   -0.871402
     11          1           0        2.262638    1.603810   -0.206188
     12          1           0       -2.047855   -1.253183   -1.037997
     13          1           0       -0.426484   -1.956210   -1.042041
     14          1           0       -0.789409   -0.563507   -2.087540
     15          1           0       -1.206443    1.871575    0.813294
     16          1           0       -1.362238    1.743774   -0.930797
     17          1           0       -2.523260    0.889492    0.118650
     18          1           0       -0.722723   -0.184444    1.971699
 ---------------------------------------------------------------------

 SCF Done:  E(RB3LYP) =  -327.134021391     A.U. after    1 cycles

 The electronic state is 1-A.
 Alpha  occ. eigenvalues --  -19.14476 -14.31339 -10.24365 -10.23178 -10.18667
 Alpha  occ. eigenvalues --  -10.17647 -10.16796  -1.01832  -0.90093  -0.77245
 Alpha  occ. eigenvalues --   -0.72691  -0.68503  -0.61698  -0.54741  -0.47234
 Alpha  occ. eigenvalues --   -0.46674  -0.44964  -0.43951  -0.42167  -0.40495
 Alpha  occ. eigenvalues --   -0.38135  -0.37983  -0.35966  -0.34889  -0.32070
 Alpha  occ. eigenvalues --   -0.30087  -0.28317  -0.24761
 Alpha virt. eigenvalues --    0.00225   0.07445   0.10145   0.12156   0.13874
 Alpha virt. eigenvalues --    0.14778   0.15622   0.16004   0.17727   0.18675
 Alpha virt. eigenvalues --    0.20358   0.21064   0.22983   0.24504   0.25017

 Mulliken charges:
               1
     1  C   -0.370642
     2  C    0.279218
     3  N   -0.526705
     4  C    0.224235
     5  C   -0.311600
     6  C   -0.301826
     7  O   -0.550055
     8  H    0.142254
     9  H    0.104808
    10  H    0.130434
    11  H    0.216455
    12  H    0.117075
    13  H    0.111309
    14  H    0.109381
    15  H    0.103727
    16  H    0.118686
    17  H    0.099866
    18  H    0.303378
 Sum of Mulliken charges =  -0.00000

 Dipole moment (field-independent basis, Debye):
    X=              0.9964    Y=             -0.5677    Z=              0.1143  Tot=              1.1524
 Quadrupole moment (field-independent basis, Debye-Ang):
   XX=            -40.3661   YY=            -48.8867   ZZ=            -41.3970
   XY=             -1.8799   XZ=              0.5018   YZ=              2.7562

  Exact polarizability:  67.912   2.455  67.117   0.137   0.300  53.387
 Approx polarizability:  86.367   8.105 102.383  -1.678  -2.999  77.062

                      1                      2                      3
                      A                      A                      A
 Frequencies --     55.4338               146.4643               215.4881
 Red. masses --      3.5748                 1.0471                 1.2736
 Frc consts  --      0.0065                 0.0132                 0.0348
 IR Inten    --      3.2054                 0.3335                 0.3747

                      4                      5                      6
                      A                      A                      A
 Frequencies --    244.8524               271.5544               287.0865
 Red. masses --      1.2779                 2.5691                 1.5427
 Frc consts  --      0.0451                 0.1116                 0.0749
 IR Inten    --      0.6021                 4.1294                 1.3478

                      7                      8                      9
                      A                      A                      A
 Frequencies --    361.2959               367.5460               379.5763
 Red. masses --      2.3717                 1.2012                 2.8308
 Frc consts  --      0.1824                 0.0956                 0.2403
 IR Inten    --      3.7564                86.4028                14.7155

                     10                     11                     12
                      A                      A                      A
 Frequencies --    392.9087               505.4683               542.5593
 Red. masses --      2.5678                 2.9156                 3.2300
 Frc consts  --      0.2336                 0.4389                 0.5602
 IR Inten    --     16.8013                16.4649                 8.2321

                     13                     14                     15
                      A                      A                      A
 Frequencies --    603.1857               689.8479               860.7872
 Red. masses --      2.7224                 3.2602                 1.9892
 Frc consts  --      0.5836                 0.9141                 0.8684
 IR Inten    --      0.8790                 4.1586                17.4915

                     16                     17                     18
                      A                      A                      A
 Frequencies --    901.2221               945.9810               958.6090
 Red. masses --      1.5542                 1.5690                 1.9969
 Frc consts  --      0.7437                 0.8273                 1.0812
 IR Inten    --     12.8474                 1.0006                26.2316

                     19                     20                     21
                      A                      A                      A
 Frequencies --    996.1036              1022.8799              1082.1276
 Red. masses --      1.6950                 1.3379                 1.5544
 Frc consts  --      0.9909                 0.8247                 1.0724
 IR Inten    --     25.0806                 1.6124                23.1055

                     22                     23                     24
                      A                      A                      A
 Frequencies --   1092.7680              1133.7513              1211.4575
 Red. masses --      1.5351                 1.6555                 2.6695
 Frc consts  --      1.0800                 1.2538                 2.3083
 IR Inten    --     44.8329                51.6133                42.3693

                     25                     26                     27
                      A                      A                      A
 Frequencies --   1241.2160              1360.1234              1380.9734
 Red. masses --      2.0454                 1.5592                 1.5869
 Frc consts  --      1.8566                 1.6994                 1.7831
 IR Inten    --     31.5348                54.1822                32.8913

                     28                     29                     30
                      A                      A                      A
 Frequencies --   1411.9036              1416.6655              1429.9600
 Red. masses --      1.3697                 1.4855                 1.2402
 Frc consts  --      1.6087                 1.7565                 1.4941
 IR Inten    --     40.3394                 1.7393                 8.4800

                     31                     32                     33
                      A                      A                      A
 Frequencies --   1482.3509              1492.9947              1493.8257
 Red. masses --      1.0517                 1.0557                 1.0514
 Frc consts  --      1.3615                 1.3864                 1.3823
 IR Inten    --      7.9002                 3.1327                 2.9733

                     34                     35                     36
                      A                      A                      A
 Frequencies --   1505.5788              1511.9781              1522.4279
 Red. masses --      1.0631                 1.0605                 1.0613
 Frc consts  --      1.4198                 1.4284                 1.4494
 IR Inten    --     12.4888                 7.8631                 0.7367

                     37                     38                     39
                      A                      A                      A
 Frequencies --   1730.0093              3046.6417              3055.6932
 Red. masses --      8.8312                 1.0378                 1.0351
 Frc consts  --     15.5728                 5.6755                 5.6945
 IR Inten    --     49.8021                 7.9707                20.1316

                     40                     41                     42
                      A                      A                      A
 Frequencies --   3060.4463              3112.7394              3129.9437
 Red. masses --      1.0359                 1.0987                 1.1036
 Frc consts  --      5.7165                 6.2720                 6.3699
 IR Inten    --      8.7075                18.0707                18.0160

                     43                     44                     45
                      A                      A                      A
 Frequencies --   3134.4439              3141.5266              3144.5753
 Red. masses --      1.1028                 1.1023                 1.1025
 Frc consts  --      6.3837                 6.4098                 6.4235
 IR Inten    --     18.5141                20.9139                 6.5774

                     46                     47                     48
                      A                      A                      A
 Frequencies --   3149.0514              3416.2645              3796.8286
 Red. masses --      1.1015                 1.0745                 1.0662
 Frc consts  --      6.4359                 7.3888                 9.0561
 IR Inten    --     23.7993                14.0318                11.5338

 - Thermochemistry -
 -------------------
 Temperature   298.150 Kelvin.  Pressure   1.00000 Atm.
 Atom     1 has atomic number  6 and mass  12.00000

 Molecular mass:   101.08406 amu.
 Principal axes and moments of inertia in atomic units:
                           1         2         3
     Eigenvalues --   554.88254 767.42324 942.78244
           X            0.99454  -0.10201   0.02194
           Y            0.10026   0.99250   0.06992
           Z           -0.02891  -0.06734   0.99731
 This molecule is an asymmetric top.
 Rotational symmetry number  1.
 Warning -- assumption of classical behavior for rotation
           may cause significant error
 Rotational temperatures (Kelvin)      0.15609     0.11286     0.09187
 Rotational constants (GHZ):           3.25247     2.35169     1.91427
 Zero-point vibrational energy     415326.2 (Joules/Mol)
                                   99.26534 (Kcal/Mol)
 Warning -- explicit consideration of  13 degrees of freedom as
           vibrations may cause significant error
 Vibrational temperatures:     79.76   210.73   310.04   352.29   390.71
          (Kelvin)            413.05   519.82   528.82   546.12   565.31
                              727.26   780.62   867.85   992.54  1238.48
                             1296.66  1361.05  1379.22  1433.17  1471.69
                             1556.94  1572.25  1631.21  1743.01  1785.83
                             1956.91  1986.91  2031.41  2038.26  2057.39
                             2132.77  2148.08  2149.28  2166.19  2175.40
                             2190.43  2489.09  4383.43  4396.46  4403.29
                             4478.53  4503.29  4509.76  4519.95  4524.34
                             4530.78  4915.24  5462.78

 Zero-point correction=                           0.158189 (Hartree/Particle)
 Thermal correction to Energy=                    0.166895
 Thermal correction to Enthalpy=                  0.167839
 Thermal correction to Gibbs Free Energy=         0.125673
 Sum of electronic and zero-point Energies=           -326.975832
 Sum of electronic and thermal Energies=              -326.967126
 Sum of electronic and thermal Enthalpies=            -326.966182
 Sum of electronic and thermal Free Energies=         -327.008349

                     E (Thermal)             CV                S
                      KCal/Mol        Cal/Mol-Kelvin    Cal/Mol-Kelvin
 Total                  104.728             32.091             88.747
 Electronic               0.000              0.000              0.000
 Translational            0.889              2.981             39.750
 Rotational               0.889              2.981             27.487
 Vibrational            102.951             26.129             21.510
 Vibration     1          0.596              1.975              4.613
 Vibration     2          0.617              1.907              2.718
 Vibration     3          0.645              1.817              1.997
 Vibration     4          0.660              1.771              1.767
 Vibration     5          0.675              1.726              1.586
 Vibration     6          0.684              1.698              1.491
 Vibration     7          0.735              1.552              1.117
 Vibration     8          0.740              1.539              1.090
 Vibration     9          0.750              1.514              1.041
 Vibration    10          0.760              1.485              0.989
 Vibration    11          0.861              1.238              0.645
 Vibration    12          0.898              1.156              0.560
 Vibration    13          0.962              1.025              0.444

 Optimization completed.
    -- Stationary point found.
 Normal termination of Gaussian 09 at Thu Sep  8 15:01:49 2022.
