 Gaussian 09, Revision E.01,
 Gaussian 09:  ES64L-G09RevE.01 30-Nov-2015

 ----------------------------
 #P OPT Freq B3LYP/6-31G(d,p)
 ----------------------------

 --------
 Frag_839
 --------
 Symbolic Z-matrix:
 Charge =  0 Multiplicity = 1

 SCF Done:  E(RB3LYP) =  -248.487767037     A.U. after   13 cycles
 SCF Done:  E(RB3LYP) =  -248.487821068     A.U. after    9 cycles
 SCF Done:  E(RB3LYP) =  -248.487826310     A.U. after    9 cycles
 SCF Done:  E(RB3LYP) =  -248.487829765     A.U. after    8 cycles
 SCF Done:  E(RB3LYP) =  -248.487832071     A.U. after    9 cycles
 SCF Done:  E(RB3LYP) =  -248.487833371     A.U. after    9 cycles
 SCF Done:  E(RB3LYP) =  -248.487833703     A.U. after    8 cycles
 SCF Done:  E(RB3LYP) =  -248.487833779     A.U. after    7 cycles
 Optimization completed.
    -- Stationary point found.
 Normal termination of Gaussian 09 at Thu Sep  8 15:07:52 2022.

 ----------------------------------------------------------------------
 #P Geom=AllCheck Guess=TCheck SCRF=Check GenChk RB3LYP/6-31G(d,p) Freq
 ----------------------------------------------------------------------

 Structure from the checkpoint file:  "B3LYP6-31Gdp.Frag_839.chk"
 --------
 Frag_839
 --------
 Charge =  0 Multiplicity = 1

                         Standard orientation:
 ---------------------------------------------------------------------
 Center     Atomic      Atomic             Coordinates (Angstroms)
 Number     Number       Type             X           Y           Z
 ---------------------------------------------------------------------
      1          6           0        1.001364    1.271222    0.135192
      2          6           0        0.390276   -0.056182   -0.330809
      3          8           0        1.193825   -1.170534    0.057760
      4          6           0       -0.960117   -0.275823    0.311004
      5          7           0       -2.026193    0.119230   -0.256847
      6          1           0        1.990671    1.416696   -0.315069
      7          1           0        0.366744    2.111449   -0.160325
      8          1           0        1.117813    1.280077    1.223642
      9          1           0        0.242861   -0.028384   -1.419980
     10          1           0        2.076212   -1.040518   -0.312642
     11          1           0       -0.911408   -0.768740    1.293454
     12          1           0       -2.839282   -0.076227    0.334446
 ---------------------------------------------------------------------

 SCF Done:  E(RB3LYP) =  -248.487833779     A.U. after    1 cycles

 The electronic state is 1-A.
 Alpha  occ. eigenvalues --  -19.14796 -14.32225 -10.24089 -10.23109 -10.18514
 Alpha  occ. eigenvalues --   -1.02232  -0.90122  -0.75757  -0.65976  -0.55839
 Alpha  occ. eigenvalues --   -0.52846  -0.46915  -0.44494  -0.43593  -0.38866
 Alpha  occ. eigenvalues --   -0.37673  -0.33684  -0.31565  -0.27234  -0.26101
 Alpha virt. eigenvalues --   -0.00400   0.07239   0.09841   0.14055   0.14737
 Alpha virt. eigenvalues --    0.16145   0.17589   0.17980   0.22089   0.23265
 Alpha virt. eigenvalues --    0.28371   0.37035   0.51691   0.53753   0.56191

 Mulliken charges:
               1
     1  C   -0.331384
     2  C    0.148544
     3  O   -0.548805
     4  C    0.133332
     5  N   -0.476192
     6  H    0.098531
     7  H    0.125399
     8  H    0.114255
     9  H    0.102709
    10  H    0.306842
    11  H    0.093252
    12  H    0.233518
 Sum of Mulliken charges =  -0.00000

 Dipole moment (field-independent basis, Debye):
    X=              1.2943    Y=              0.5156    Z=              0.7381  Tot=              1.5766
 Quadrupole moment (field-independent basis, Debye-Ang):
   XX=            -26.3779   YY=            -33.0997   ZZ=            -30.7858
   XY=              1.7702   XZ=             -5.3729   YZ=              0.7370

  Exact polarizability:  54.425  -1.132  35.352   0.224  -3.442  36.533
 Approx polarizability:  73.234  -5.784  48.264   4.598  -7.146  53.098

                      1                      2                      3
                      A                      A                      A
 Frequencies --     67.0691               251.9170               262.3984
 Red. masses --      3.2921                 1.0525                 1.0946
 Frc consts  --      0.0087                 0.0394                 0.0444
 IR Inten    --     12.1415                 2.3303               137.7998

                      4                      5                      6
                      A                      A                      A
 Frequencies --    294.2918               375.8434               399.3479
 Red. masses --      2.1926                 2.4880                 2.9585
 Frc consts  --      0.1119                 0.2071                 0.2780
 IR Inten    --     10.9565                18.8753                 3.9550

                      7                      8                      9
                      A                      A                      A
 Frequencies --    559.4972               784.9643               859.2847
 Red. masses --      4.5863                 1.5789                 1.8813
 Frc consts  --      0.8459                 0.5732                 0.8184
 IR Inten    --      5.1001                34.4304                12.3251

                     10                     11                     12
                      A                      A                      A
 Frequencies --    955.0222              1058.3223              1104.3888
 Red. masses --      2.0158                 1.7644                 1.8859
 Frc consts  --      1.0832                 1.1644                 1.3552
 IR Inten    --     10.1647                 4.3650                29.4804

                     13                     14                     15
                      A                      A                      A
 Frequencies --   1122.8415              1128.8959              1205.8778
 Red. masses --      1.3557                 2.0949                 1.1142
 Frc consts  --      1.0071                 1.5729                 0.9546
 IR Inten    --     29.4182               102.2067                71.5757

                     16                     17                     18
                      A                      A                      A
 Frequencies --   1284.2666              1363.7766              1386.1483
 Red. masses --      1.1821                 1.2746                 1.3853
 Frc consts  --      1.1487                 1.3967                 1.5683
 IR Inten    --      6.5222                21.3354                25.9355

                     19                     20                     21
                      A                      A                      A
 Frequencies --   1411.9062              1440.9104              1505.6619
 Red. masses --      1.2690                 1.6005                 1.0439
 Frc consts  --      1.4905                 1.9579                 1.3944
 IR Inten    --      6.8321                17.8574                 4.4610

                     22                     23                     24
                      A                      A                      A
 Frequencies --   1512.7895              1747.7538              3021.8813
 Red. masses --      1.1008                 6.8845                 1.0840
 Frc consts  --      1.4842                12.3903                 5.8322
 IR Inten    --      2.2999                44.6267                16.5209

                     25                     26                     27
                      A                      A                      A
 Frequencies --   3032.0335              3038.7829              3109.4769
 Red. masses --      1.0845                 1.0410                 1.1001
 Frc consts  --      5.8739                 5.6634                 6.2667
 IR Inten    --     56.7343                20.7485                28.8539

                     28                     29                     30
                      A                      A                      A
 Frequencies --   3135.0880              3447.7926              3821.5754
 Red. masses --      1.1029                 1.0761                 1.0664
 Frc consts  --      6.3871                 7.5365                 9.1758
 IR Inten    --     19.5351                 3.4659                15.7040

 - Thermochemistry -
 -------------------
 Temperature   298.150 Kelvin.  Pressure   1.00000 Atm.
 Atom     1 has atomic number  6 and mass  12.00000

 Molecular mass:    73.05276 amu.
 Principal axes and moments of inertia in atomic units:
                           1         2         3
     Eigenvalues --   218.48299 476.15519 629.08281
           X            0.99837   0.05306  -0.02090
           Y           -0.05304   0.99859   0.00166
           Z            0.02096  -0.00054   0.99978
 This molecule is an asymmetric top.
 Rotational symmetry number  1.
 Rotational temperatures (Kelvin)      0.39643     0.18190     0.13768
 Rotational constants (GHZ):           8.26033     3.79024     2.86885
 Zero-point vibrational energy     267304.4 (Joules/Mol)
                                   63.88728 (Kcal/Mol)
 Warning -- explicit consideration of   7 degrees of freedom as
           vibrations may cause significant error
 Vibrational temperatures:     96.50   362.45   377.53   423.42   540.75
          (Kelvin)            574.57   804.99  1129.39  1236.32  1374.06
                             1522.69  1588.97  1615.52  1624.23  1734.99
                             1847.77  1962.17  1994.36  2031.42  2073.15
                             2166.31  2176.56  2514.62  4347.81  4362.41
                             4372.13  4473.84  4510.69  4960.60  5498.39

 Zero-point correction=                           0.101811 (Hartree/Particle)
 Thermal correction to Energy=                    0.108009
 Thermal correction to Enthalpy=                  0.108953
 Thermal correction to Gibbs Free Energy=         0.072380
 Sum of electronic and zero-point Energies=           -248.386023
 Sum of electronic and thermal Energies=              -248.379825
 Sum of electronic and thermal Enthalpies=            -248.378881
 Sum of electronic and thermal Free Energies=         -248.415454

                     E (Thermal)             CV                S
                      KCal/Mol        Cal/Mol-Kelvin    Cal/Mol-Kelvin
 Total                   67.776             20.961             76.974
 Electronic               0.000              0.000              0.000
 Translational            0.889              2.981             38.782
 Rotational               0.889              2.981             25.685
 Vibrational             65.999             14.999             12.507
 Vibration     1          0.598              1.970              4.238
 Vibration     2          0.664              1.760              1.717
 Vibration     3          0.670              1.742              1.646
 Vibration     4          0.689              1.684              1.449
 Vibration     5          0.747              1.522              1.056
 Vibration     6          0.765              1.472              0.965
 Vibration     7          0.915              1.119              0.525

 Normal termination of Gaussian 09 at Thu Sep  8 15:08:00 2022.
