 Gaussian 09, Revision E.01,
 Gaussian 09:  ES64L-G09RevE.01 30-Nov-2015

 ----------------------------
 #P OPT Freq B3LYP/6-31G(d,p)
 ----------------------------

 --------
 Frag_482
 --------
 Symbolic Z-matrix:
 Charge =  0 Multiplicity = 1

 SCF Done:  E(RB3LYP) =  -308.908656857     A.U. after   13 cycles
 SCF Done:  E(RB3LYP) =  -308.908701460     A.U. after   10 cycles
 SCF Done:  E(RB3LYP) =  -308.908703766     A.U. after    7 cycles
 SCF Done:  E(RB3LYP) =  -308.908704183     A.U. after    7 cycles
 SCF Done:  E(RB3LYP) =  -308.908704323     A.U. after    7 cycles
 Optimization completed.
    -- Stationary point found.
 Normal termination of Gaussian 09 at Thu Sep  8 15:11:34 2022.

 ----------------------------------------------------------------------
 #P Geom=AllCheck Guess=TCheck SCRF=Check GenChk RB3LYP/6-31G(d,p) Freq
 ----------------------------------------------------------------------

 Structure from the checkpoint file:  "B3LYP6-31Gdp.Frag_482.chk"
 --------
 Frag_482
 --------
 Charge =  0 Multiplicity = 1

                         Standard orientation:
 ---------------------------------------------------------------------
 Center     Atomic      Atomic             Coordinates (Angstroms)
 Number     Number       Type             X           Y           Z
 ---------------------------------------------------------------------
      1          6           0        0.894916    1.368188    0.569320
      2          6           0        0.679657    0.230105   -0.439236
      3          6           0        1.756917   -0.853609   -0.299501
      4          6           0       -0.725863   -0.382826   -0.332745
      5          8           0       -0.864298   -0.930661    0.963580
      6          8           0       -1.764506    0.533281   -0.610918
      7          1           0        1.894258    1.798514    0.452504
      8          1           0        0.796774    1.004498    1.596049
      9          1           0        0.178956    2.185833    0.423659
     10          1           0        0.733361    0.650145   -1.452291
     11          1           0        2.754879   -0.433196   -0.460421
     12          1           0        1.728119   -1.300527    0.698248
     13          1           0        1.612055   -1.656488   -1.031164
     14          1           0       -0.844451   -1.160571   -1.101275
     15          1           0       -1.750714   -1.314156    1.011461
     16          1           0       -1.706570    1.233832    0.054906
 ---------------------------------------------------------------------

 SCF Done:  E(RB3LYP) =  -308.908704323     A.U. after    1 cycles

 The electronic state is 1-A.
 Alpha  occ. eigenvalues --  -19.14892 -19.14763 -10.27685 -10.18778 -10.17518
 Alpha  occ. eigenvalues --  -10.17065  -1.05726  -0.98820  -0.79311  -0.68407
 Alpha  occ. eigenvalues --   -0.66450  -0.56760  -0.54895  -0.46860  -0.44987
 Alpha  occ. eigenvalues --   -0.44097  -0.40755  -0.39069  -0.37823  -0.37561
 Alpha  occ. eigenvalues --   -0.33724  -0.32994  -0.31386  -0.29989  -0.26946
 Alpha virt. eigenvalues --    0.06976   0.09181   0.11703   0.13977   0.15071
 Alpha virt. eigenvalues --    0.15778   0.16927   0.18367   0.20068   0.21219
 Alpha virt. eigenvalues --    0.22254   0.23846   0.25598   0.26624   0.29746

 Mulliken charges:
               1
     1  C   -0.330383
     2  C   -0.071009
     3  C   -0.312382
     4  C    0.363340
     5  O   -0.532243
     6  O   -0.541957
     7  H    0.105192
     8  H    0.126890
     9  H    0.084969
    10  H    0.097967
    11  H    0.097423
    12  H    0.123919
    13  H    0.095818
    14  H    0.083707
    15  H    0.306981
    16  H    0.301768
 Sum of Mulliken charges =  -0.00000

 Dipole moment (field-independent basis, Debye):
    X=             -0.0232    Y=              0.0966    Z=              0.3358  Tot=              0.3502
 Quadrupole moment (field-independent basis, Debye-Ang):
   XX=            -37.1714   YY=            -35.5573   ZZ=            -39.6646
   XY=              1.8195   XZ=             -3.4683   YZ=              1.5016

  Exact polarizability:  53.534   0.241  51.605  -0.670   1.484  46.672
 Approx polarizability:  68.552  -0.102  68.319   0.538   0.174  67.439

                      1                      2                      3
                      A                      A                      A
 Frequencies --     90.9772               217.6364               230.5961
 Red. masses --      3.2967                 1.0762                 1.2080
 Frc consts  --      0.0161                 0.0300                 0.0378
 IR Inten    --      0.0400                 0.5017                 0.2369

                      4                      5                      6
                      A                      A                      A
 Frequencies --    257.0296               290.0956               320.1771
 Red. masses --      2.9846                 2.2109                 1.2153
 Frc consts  --      0.1162                 0.1096                 0.0734
 IR Inten    --      0.6562                 0.7556               124.4621

                      7                      8                      9
                      A                      A                      A
 Frequencies --    357.9855               387.7807               495.3713
 Red. masses --      2.2893                 1.3309                 2.5011
 Frc consts  --      0.1729                 0.1179                 0.3616
 IR Inten    --     12.7430                35.3096                30.4406

                     10                     11                     12
                      A                      A                      A
 Frequencies --    557.2716               650.3449               792.2172
 Red. masses --      2.6185                 2.9564                 2.7294
 Frc consts  --      0.4791                 0.7367                 1.0093
 IR Inten    --     62.5493                15.0500                12.3332

                     13                     14                     15
                      A                      A                      A
 Frequencies --    926.1849               938.8730               971.7672
 Red. masses --      1.9444                 1.2266                 1.4602
 Frc consts  --      0.9827                 0.6371                 0.8124
 IR Inten    --      2.0383                 4.0929                 2.1081

                     16                     17                     18
                      A                      A                      A
 Frequencies --   1015.4294              1064.0514              1112.0093
 Red. masses --      2.3025                 4.0606                 1.7358
 Frc consts  --      1.3988                 2.7087                 1.2646
 IR Inten    --    118.3899               142.6701                17.0229

                     19                     20                     21
                      A                      A                      A
 Frequencies --   1167.9194              1202.7379              1255.2691
 Red. masses --      2.0822                 1.7563                 1.2627
 Frc consts  --      1.6734                 1.4969                 1.1722
 IR Inten    --     14.7448                39.5188                44.7821

                     22                     23                     24
                      A                      A                      A
 Frequencies --   1295.7894              1352.6348              1382.2665
 Red. masses --      1.3615                 1.3754                 1.3961
 Frc consts  --      1.3469                 1.4826                 1.5717
 IR Inten    --      8.2452                 6.8240                 6.8307

                     25                     26                     27
                      A                      A                      A
 Frequencies --   1410.2543              1420.0620              1438.3308
 Red. masses --      1.2824                 1.2932                 1.2292
 Frc consts  --      1.5026                 1.5365                 1.4983
 IR Inten    --      2.0959                 6.0354                18.5993

                     28                     29                     30
                      A                      A                      A
 Frequencies --   1462.9089              1505.6077              1506.8589
 Red. masses --      1.4119                 1.0421                 1.0534
 Frc consts  --      1.7802                 1.3918                 1.4092
 IR Inten    --     64.3305                 1.1909                 2.7854

                     31                     32                     33
                      A                      A                      A
 Frequencies --   1520.8185              1530.6112              3019.5068
 Red. masses --      1.0512                 1.0649                 1.0851
 Frc consts  --      1.4325                 1.4698                 5.8289
 IR Inten    --      6.3545                10.5703                48.8405

                     34                     35                     36
                      A                      A                      A
 Frequencies --   3039.9168              3041.5050              3046.3803
 Red. masses --      1.0435                 1.0590                 1.0569
 Frc consts  --      5.6813                 5.7718                 5.7788
 IR Inten    --     42.6303                25.3237                17.9012

                     37                     38                     39
                      A                      A                      A
 Frequencies --   3103.6818              3108.3393              3128.6079
 Red. masses --      1.0983                 1.1010                 1.1025
 Frc consts  --      6.2335                 6.2673                 6.3582
 IR Inten    --     26.6521                45.2102                 3.0785

                     40                     41                     42
                      A                      A                      A
 Frequencies --   3133.4663              3791.0894              3808.4133
 Red. masses --      1.1019                 1.0649                 1.0658
 Frc consts  --      6.3744                 9.0179                 9.1082
 IR Inten    --     42.3220                12.5477                22.1817

 - Thermochemistry -
 -------------------
 Temperature   298.150 Kelvin.  Pressure   1.00000 Atm.
 Atom     1 has atomic number  6 and mass  12.00000

 Molecular mass:    90.06808 amu.
 Principal axes and moments of inertia in atomic units:
                           1         2         3
     Eigenvalues --   390.40088 653.48079 771.25354
           X            0.99989   0.00474  -0.01375
           Y           -0.00330   0.99467   0.10307
           Z            0.01417  -0.10301   0.99458
 This molecule is an asymmetric top.
 Rotational symmetry number  1.
 Rotational temperatures (Kelvin)      0.22186     0.13254     0.11230
 Rotational constants (GHZ):           4.62279     2.76174     2.34001
 Zero-point vibrational energy     372928.5 (Joules/Mol)
                                   89.13205 (Kcal/Mol)
 Warning -- explicit consideration of  10 degrees of freedom as
           vibrations may cause significant error
 Vibrational temperatures:    130.90   313.13   331.78   369.81   417.38
          (Kelvin)            460.66   515.06   557.93   712.73   801.79
                              935.70  1139.82  1332.57  1350.83  1398.15
                             1460.97  1530.93  1599.93  1680.37  1730.47
                             1806.05  1864.35  1946.14  1988.77  2029.04
                             2043.15  2069.43  2104.80  2166.23  2168.03
                             2188.12  2202.21  4344.39  4373.76  4376.04
                             4383.06  4465.50  4472.20  4501.36  4508.35
                             5454.53  5479.45

 Zero-point correction=                           0.142041 (Hartree/Particle)
 Thermal correction to Energy=                    0.149626
 Thermal correction to Enthalpy=                  0.150570
 Thermal correction to Gibbs Free Energy=         0.111167
 Sum of electronic and zero-point Energies=           -308.766663
 Sum of electronic and thermal Energies=              -308.759079
 Sum of electronic and thermal Enthalpies=            -308.758134
 Sum of electronic and thermal Free Energies=         -308.797537

                     E (Thermal)             CV                S
                      KCal/Mol        Cal/Mol-Kelvin    Cal/Mol-Kelvin
 Total                   93.892             27.552             82.930
 Electronic               0.000              0.000              0.000
 Translational            0.889              2.981             39.406
 Rotational               0.889              2.981             26.778
 Vibrational             92.114             21.590             16.746
 Vibration     1          0.602              1.956              3.639
 Vibration     2          0.646              1.814              1.979
 Vibration     3          0.652              1.794              1.874
 Vibration     4          0.667              1.751              1.682
 Vibration     5          0.686              1.692              1.473
 Vibration     6          0.706              1.635              1.309
 Vibration     7          0.733              1.559              1.131
 Vibration     8          0.756              1.496              1.009
 Vibration     9          0.851              1.260              0.670
 Vibration    10          0.913              1.124              0.529

 Normal termination of Gaussian 09 at Thu Sep  8 15:11:47 2022.
