 Gaussian 09, Revision D.01,
 Gaussian 09:  ES64L-G09RevD.01 24-Apr-2013

 -------------------------
 #P OPT Freq B3LYP/6-31G**
 -------------------------

 --------
 Frag_102
 --------
 Symbolic Z-matrix:
 Charge =  0 Multiplicity = 1

 SCF Done:  E(RB3LYP) =  -213.819864930     A.U. after   12 cycles
 Optimization completed.
    -- Stationary point found.

 1\1\GINC-FN0\FOpt\RB3LYP\6-31G(d,p)\C4H11N1\LIUJ201281\23-Jul-2021\0\\
 #P OPT Freq B3LYP/6-31G**\\Frag_102\\0,1\C,2.0869,-0.0268,-0.1235\C,0.
 7567,-0.6597,0.2918\C,-0.4769,0.0214,-0.3235\C,-1.762,-0.7631,-0.0129\
 N,-0.5226,1.4285,0.1074\H,2.2415,-0.1144,-1.2052\H,2.101,1.0365,0.1273
 \H,2.9309,-0.5163,0.3734\H,0.7442,-1.7216,0.0148\H,0.6576,-0.6326,1.38
 75\H,-0.3413,0.0392,-1.4147\H,-1.7158,-1.7884,-0.398\H,-2.637,-0.2776,
 -0.46\H,-1.9285,-0.8206,1.0702\H,-1.3026,1.9005,-0.3459\H,-0.72,1.4639
 ,1.1075\\Version=ES64L-G09RevD.01\State=1-A\HF=-213.8198649\RMSD=6.993

 Normal termination of Gaussian 09 at Fri Jul 23 17:49:44 2021.

 ----------------------------------------------------------------------
 #P Geom=AllCheck Guess=TCheck SCRF=Check GenChk RB3LYP/6-31G(d,p) Freq
 ----------------------------------------------------------------------

 Structure from the checkpoint file:  "/vol2/users/liuj201281/HOFBenchmark/IsodesmicSplit/Sample60/Ring26/Running/Gau-473100.chk"
 --------
 Frag_102
 --------
 Charge =  0 Multiplicity = 1

                         Standard orientation:
 ---------------------------------------------------------------------
 Center     Atomic      Atomic             Coordinates (Angstroms)
 Number     Number       Type             X           Y           Z
 ---------------------------------------------------------------------
      1          6           0        2.086900   -0.026803   -0.123502
      2          6           0        0.756691   -0.659684    0.291798
      3          6           0       -0.476900    0.021433   -0.323502
      4          6           0       -1.762011   -0.763049   -0.012902
      5          7           0       -0.522580    1.428533    0.107398
      6          1           0        2.241498   -0.114405   -1.205202
      7          1           0        2.101014    1.036497    0.127298
      8          1           0        2.930893   -0.516315    0.373398
      9          1           0        0.744176   -1.721584    0.014798
     10          1           0        0.657591   -0.632583    1.387498
     11          1           0       -0.341299    0.039231   -1.414702
     12          1           0       -1.715825   -1.788350   -0.398002
     13          1           0       -2.637004   -0.277537   -0.460002
     14          1           0       -1.928511   -0.820547    1.070198
     15          1           0       -1.302574    1.900544   -0.345902
     16          1           0       -0.719980    1.463936    1.107498
 ---------------------------------------------------------------------

 SCF Done:  E(RB3LYP) =  -213.819864930     A.U. after    1 cycles

 The electronic state is 1-A.
 Alpha  occ. eigenvalues --  -14.30653 -10.20743 -10.17415 -10.17188 -10.16110
 Alpha  occ. eigenvalues --   -0.87907  -0.75929  -0.71187  -0.62318  -0.56707
 Alpha  occ. eigenvalues --   -0.48743  -0.44347  -0.42286  -0.40619  -0.40460
 Alpha  occ. eigenvalues --   -0.38167  -0.35351  -0.33356  -0.32550  -0.31485
 Alpha  occ. eigenvalues --   -0.23004
 Alpha virt. eigenvalues --    0.07708   0.12107   0.12757   0.13586   0.15542
 Alpha virt. eigenvalues --    0.17104   0.18066   0.18470   0.18817   0.19242
 Alpha virt. eigenvalues --    0.21214   0.24456   0.25793   0.26617   0.27708

 Mulliken charges:
               1
     1  C   -0.313197
     2  C   -0.158168
     3  C    0.054116
     4  C   -0.314499
     5  N   -0.585977
     6  H    0.095699
     7  H    0.127752
     8  H    0.091269
     9  H    0.087873
    10  H    0.081022
    11  H    0.090429
    12  H    0.098889
    13  H    0.091316
    14  H    0.094028
    15  H    0.231984
    16  H    0.227461
 Sum of Mulliken charges =   0.00000

 Dipole moment (field-independent basis, Debye):
    X=             -1.2359    Y=             -0.4023    Z=              0.2918  Tot=              1.3321
 Quadrupole moment (field-independent basis, Debye-Ang):
   XX=            -33.3654   YY=            -34.9323   ZZ=            -32.4214
   XY=             -2.6385   XZ=              0.1315   YZ=              0.7369

  Exact polarizability:  56.218  -1.073  50.980   0.593   0.450  47.858
 Approx polarizability:  66.383  -2.020  69.316   1.065   1.084  69.850

                      1                      2                      3
                      A                      A                      A
 Frequencies --    114.4181               221.4129               239.9117
 Red. masses --      1.8603                 1.1165                 1.5203
 Frc consts  --      0.0143                 0.0322                 0.0516
 IR Inten    --      0.8890                 0.7302                 2.4439

                      4                      5                      6
                      A                      A                      A
 Frequencies --    261.0772               270.1861               374.7838
 Red. masses --      1.0928                 1.4300                 2.3540
 Frc consts  --      0.0439                 0.0615                 0.1948
 IR Inten    --     33.1323                 9.9485                 4.0717

                      7                      8                      9
                      A                      A                      A
 Frequencies --    452.3882               478.7486               778.2200
 Red. masses --      2.0667                 2.4014                 1.5707
 Frc consts  --      0.2492                 0.3243                 0.5605
 IR Inten    --      4.3381                 4.9486                 3.2678

                     10                     11                     12
                      A                      A                      A
 Frequencies --    811.7744               879.7106               935.1374
 Red. masses --      1.5745                 1.5710                 1.5305
 Frc consts  --      0.6113                 0.7163                 0.7886
 IR Inten    --      2.1618               139.3213                12.9602

                     13                     14                     15
                      A                      A                      A
 Frequencies --    984.3659              1013.8153              1040.6849
 Red. masses --      1.2329                 1.6193                 2.6366
 Frc consts  --      0.7039                 0.9806                 1.6824
 IR Inten    --      2.8199                 4.0223                 7.1076

                     16                     17                     18
                      A                      A                      A
 Frequencies --   1060.7002              1139.9338              1195.3989
 Red. masses --      1.3171                 2.0820                 1.9622
 Frc consts  --      0.8731                 1.5940                 1.6520
 IR Inten    --      2.9670                24.0223                 4.8015

                     19                     20                     21
                      A                      A                      A
 Frequencies --   1250.1071              1331.9447              1334.7954
 Red. masses --      1.5518                 1.3409                 1.2093
 Frc consts  --      1.4288                 1.4016                 1.2695
 IR Inten    --      0.6401                 4.0421                 4.7542

                     22                     23                     24
                      A                      A                      A
 Frequencies --   1390.2500              1414.5376              1421.3309
 Red. masses --      1.3690                 1.3978                 1.2512
 Frc consts  --      1.5590                 1.6478                 1.4892
 IR Inten    --      6.1105                 1.9913                 6.0081

                     25                     26                     27
                      A                      A                      A
 Frequencies --   1424.4157              1496.9501              1506.9162
 Red. masses --      1.2722                 1.0714                 1.0456
 Frc consts  --      1.5208                 1.4145                 1.3989
 IR Inten    --      3.8991                 0.0501                 1.7224

                     28                     29                     30
                      A                      A                      A
 Frequencies --   1509.4374              1513.0801              1525.7255
 Red. masses --      1.0486                 1.0628                 1.0598
 Frc consts  --      1.4077                 1.4336                 1.4535
 IR Inten    --      4.2142                 5.2523                 4.3473

                     31                     32                     33
                      A                      A                      A
 Frequencies --   1664.9058              3007.9878              3020.6579
 Red. masses --      1.0925                 1.0701                 1.0735
 Frc consts  --      1.7842                 5.7044                 5.7713
 IR Inten    --     23.5344                 5.6380                28.0318

                     34                     35                     36
                      A                      A                      A
 Frequencies --   3026.9342              3042.8836              3059.8580
 Red. masses --      1.0411                 1.0402                 1.0947
 Frc consts  --      5.6199                 5.6745                 6.0387
 IR Inten    --     44.6725                32.6232                27.7091

                     37                     38                     39
                      A                      A                      A
 Frequencies --   3096.6474              3101.6414              3105.8472
 Red. masses --      1.1018                 1.1021                 1.1015
 Frc consts  --      6.2247                 6.2469                 6.2603
 IR Inten    --     39.6141                41.6524                52.9176

                     40                     41                     42
                      A                      A                      A
 Frequencies --   3139.2636              3464.7626              3552.4667
 Red. masses --      1.1007                 1.0499                 1.0912
 Frc consts  --      6.3909                 7.4258                 8.1140
 IR Inten    --     23.8407                 2.4521                 0.8754

 - Thermochemistry -
 -------------------
 Temperature   298.150 Kelvin.  Pressure   1.00000 Atm.
 Atom     1 has atomic number  6 and mass  12.00000

 Molecular mass:    73.08915 amu.
 Principal axes and moments of inertia in atomic units:
                           1         2         3
     Eigenvalues --   237.07590 533.04676 690.96066
           X            0.99997   0.00662  -0.00348
           Y           -0.00661   0.99998   0.00082
           Z            0.00349  -0.00079   0.99999
 This molecule is an asymmetric top.
 Rotational symmetry number  1.
 Rotational temperatures (Kelvin)      0.36534     0.16249     0.12535
 Rotational constants (GHZ):           7.61250     3.38571     2.61193
 Zero-point vibrational energy     392710.2 (Joules/Mol)
                                   93.85998 (Kcal/Mol)
 Warning -- explicit consideration of   8 degrees of freedom as
           vibrations may cause significant error
 Vibrational temperatures:    164.62   318.56   345.18   375.63   388.74
          (Kelvin)            539.23   650.88   688.81  1119.68  1167.96
                             1265.71  1345.45  1416.28  1458.65  1497.31
                             1526.11  1640.11  1719.91  1798.62  1916.37
                             1920.47  2000.26  2035.20  2044.98  2049.41
                             2153.77  2168.11  2171.74  2176.98  2195.18
                             2395.43  4327.82  4346.05  4355.08  4378.03
                             4402.45  4455.38  4462.56  4468.62  4516.69
                             4985.01  5111.20

 Zero-point correction=                           0.149575 (Hartree/Particle)
 Thermal correction to Energy=                    0.156437
 Thermal correction to Enthalpy=                  0.157381
 Thermal correction to Gibbs Free Energy=         0.119915
 Sum of electronic and zero-point Energies=           -213.670290
 Sum of electronic and thermal Energies=              -213.663428
 Sum of electronic and thermal Enthalpies=            -213.662484
 Sum of electronic and thermal Free Energies=         -213.699950

                     E (Thermal)             CV                S
                      KCal/Mol        Cal/Mol-Kelvin    Cal/Mol-Kelvin
 Total                   98.166             24.549             78.854
 Electronic               0.000              0.000              0.000
 Translational            0.889              2.981             38.784
 Rotational               0.889              2.981             25.971
 Vibrational             96.388             18.587             14.099
 Vibration     1          0.607              1.937              3.193
 Vibration     2          0.648              1.808              1.948
 Vibration     3          0.657              1.779              1.804
 Vibration     4          0.669              1.744              1.655
 Vibration     5          0.674              1.728              1.595
 Vibration     6          0.746              1.524              1.060
 Vibration     7          0.811              1.356              0.789
 Vibration     8          0.835              1.297              0.713

 1\1\GINC-FN0\Freq\RB3LYP\6-31G(d,p)\C4H11N1\LIUJ201281\23-Jul-2021\0\\
 #P Geom=AllCheck Guess=TCheck SCRF=Check GenChk RB3LYP/6-31G(d,p) Freq
 \\Frag_102\\0,1\C,2.0869,-0.0268,-0.1235\C,0.7567,-0.6597,0.2918\C,-0.
 4769,0.0214,-0.3235\C,-1.762,-0.7631,-0.0129\N,-0.5226,1.4285,0.1074\H
 ,2.2415,-0.1144,-1.2052\H,2.101,1.0365,0.1273\H,2.9309,-0.5163,0.3734\
 H,0.7442,-1.7216,0.0148\H,0.6576,-0.6326,1.3875\H,-0.3413,0.0392,-1.41
 47\H,-1.7158,-1.7884,-0.398\H,-2.637,-0.2776,-0.46\H,-1.9285,-0.8206,1
 .0702\H,-1.3026,1.9005,-0.3459\H,-0.72,1.4639,1.1075\\Version=ES64L-G0

 Normal termination of Gaussian 09 at Fri Jul 23 17:50:00 2021.
