 Gaussian 09, Revision E.01,
 Gaussian 09:  ES64L-G09RevE.01 30-Nov-2015

 ----------------------------
 #P OPT Freq B3LYP/6-31G(d,p)
 ----------------------------

 --------
 Frag_521
 --------
 Symbolic Z-matrix:
 Charge =  0 Multiplicity = 1

 SCF Done:  E(RB3LYP) =  -189.283309506     A.U. after   11 cycles
 SCF Done:  E(RB3LYP) =  -189.283352639     A.U. after    7 cycles
 SCF Done:  E(RB3LYP) =  -189.283354666     A.U. after    7 cycles
 SCF Done:  E(RB3LYP) =  -189.283355702     A.U. after    6 cycles
 Optimization completed.
    -- Stationary point found.
 Normal termination of Gaussian 09 at Thu Sep  8 15:18:54 2022.

 ----------------------------------------------------------------------
 #P Geom=AllCheck Guess=TCheck SCRF=Check GenChk RB3LYP/6-31G(d,p) Freq
 ----------------------------------------------------------------------

 Structure from the checkpoint file:  "B3LYP6-31Gdp.Frag_521.chk"
 --------
 Frag_521
 --------
 Charge =  0 Multiplicity = 1

                         Standard orientation:
 ---------------------------------------------------------------------
 Center     Atomic      Atomic             Coordinates (Angstroms)
 Number     Number       Type             X           Y           Z
 ---------------------------------------------------------------------
      1          6           0       -1.795992   -0.062546    0.089172
      2          7           0       -0.408599    0.372795    0.284771
      3          7           0        0.408599   -0.372795   -0.284771
      4          6           0        1.795992    0.062546   -0.089172
      5          1           0       -2.239897   -0.231701    1.076174
      6          1           0       -1.868387   -0.966888   -0.524126
      7          1           0       -2.346951    0.761911   -0.376149
      8          1           0        2.346951   -0.761911    0.376149
      9          1           0        2.239897    0.231701   -1.076174
     10          1           0        1.868387    0.966888    0.524126
 ---------------------------------------------------------------------

 SCF Done:  E(RB3LYP) =  -189.283355702     A.U. after    1 cycles

 The electronic state is 1-AG.
 Alpha  occ. eigenvalues --  -14.37614 -14.37563 -10.20400 -10.20400  -1.02443
 Alpha  occ. eigenvalues --   -0.78853  -0.68972  -0.56001  -0.46703  -0.46362
 Alpha  occ. eigenvalues --   -0.45852  -0.41885  -0.38586  -0.34809  -0.32233
 Alpha  occ. eigenvalues --   -0.22154
 Alpha virt. eigenvalues --   -0.02812   0.12243   0.12299   0.15633   0.16075
 Alpha virt. eigenvalues --    0.17445   0.18127   0.18475   0.20446   0.39046
 Alpha virt. eigenvalues --    0.52316   0.53216   0.54133   0.55068   0.60614

 Mulliken charges:
               1
     1  C   -0.176750
     2  N   -0.190856
     3  N   -0.190856
     4  C   -0.176750
     5  H    0.126227
     6  H    0.115164
     7  H    0.126216
     8  H    0.126216
     9  H    0.126227
    10  H    0.115164
 Sum of Mulliken charges =  -0.00000

 Dipole moment (field-independent basis, Debye):
    X=             -0.0000    Y=             -0.0000    Z=              0.0000  Tot=              0.0000
 Quadrupole moment (field-independent basis, Debye-Ang):
   XX=            -19.7843   YY=            -26.5737   ZZ=            -25.3593
   XY=              0.0992   XZ=             -0.2659   YZ=             -1.5464

  Exact polarizability:  54.584  -2.012  30.089  -3.372   1.975  29.014
 Approx polarizability:  68.079  -7.428  44.720  -7.317   5.407  41.841

                      1                      2                      3
                     AU                     AG                     AU
 Frequencies --    166.1975               228.8016               290.1160
 Red. masses --      1.0419                 1.6704                 2.3559
 Frc consts  --      0.0170                 0.0515                 0.1168
 IR Inten    --      2.9199                 0.0000                 6.6420

                      4                      5                      6
                     AU                     AG                     AG
 Frequencies --    350.2806               593.5251               926.2452
 Red. masses --      2.5439                 3.1251                 2.2075
 Frc consts  --      0.1839                 0.6486                 1.1159
 IR Inten    --     14.5396                 0.0000                 0.0000

                      7                      8                      9
                     AU                     AG                     AU
 Frequencies --   1018.7960              1038.7927              1138.9314
 Red. masses --      5.9658                 1.2838                 1.4260
 Frc consts  --      3.6483                 0.8162                 1.0898
 IR Inten    --      8.5540                 0.0000                 0.5084

                     10                     11                     12
                     AU                     AG                     AG
 Frequencies --   1144.3202              1216.0883              1417.5168
 Red. masses --      1.4292                 2.3698                 1.2079
 Frc consts  --      1.1026                 2.0649                 1.4300
 IR Inten    --      0.3382                 0.0000                 0.0000

                     13                     14                     15
                     AU                     AG                     AG
 Frequencies --   1420.2380              1483.3223              1486.6190
 Red. masses --      1.1979                 1.0773                 1.0487
 Frc consts  --      1.4236                 1.3966                 1.3656
 IR Inten    --      1.0075                 0.0000                 0.0000

                     16                     17                     18
                     AU                     AU                     AG
 Frequencies --   1487.6571              1490.4146              1678.6676
 Red. masses --      1.0434                 1.0446                 7.9411
 Frc consts  --      1.3605                 1.3672                13.1843
 IR Inten    --     12.1595                21.7190                 0.0000

                     19                     20                     21
                     AU                     AG                     AU
 Frequencies --   3030.6681              3032.0904              3111.4634
 Red. masses --      1.0308                 1.0307                 1.1020
 Frc consts  --      5.5785                 5.5827                 6.2857
 IR Inten    --     47.7875                 0.0000                31.4129

                     22                     23                     24
                     AG                     AU                     AG
 Frequencies --   3111.5433              3125.2709              3125.7382
 Red. masses --      1.1015                 1.1067                 1.1075
 Frc consts  --      6.2831                 6.3686                 6.3754
 IR Inten    --      0.0000                38.3282                 0.0000

 - Thermochemistry -
 -------------------
 Temperature   298.150 Kelvin.  Pressure   1.00000 Atm.
 Atom     1 has atomic number  6 and mass  12.00000

 Molecular mass:    58.05310 amu.
 Principal axes and moments of inertia in atomic units:
                           1         2         3
     Eigenvalues --    43.35216 407.52308 428.50403
           X            0.99694   0.04941   0.06054
           Y           -0.00676   0.82631  -0.56318
           Z           -0.07785   0.56105   0.82412
 This molecule is an asymmetric top.
 Rotational symmetry number  1.
 Rotational temperatures (Kelvin)      1.99791     0.21254     0.20213
 Rotational constants (GHZ):          41.62979     4.42856     4.21173
 Zero-point vibrational energy     221986.9 (Joules/Mol)
                                   53.05613 (Kcal/Mol)
 Warning -- explicit consideration of   5 degrees of freedom as
           vibrations may cause significant error
 Vibrational temperatures:    239.12   329.19   417.41   503.97   853.95
          (Kelvin)           1332.66  1465.82  1494.59  1638.67  1646.42
                             1749.68  2039.49  2043.40  2134.17  2138.91
                             2140.40  2144.37  2415.23  4360.45  4362.50
                             4476.70  4476.81  4496.56  4497.23

 Zero-point correction=                           0.084550 (Hartree/Particle)
 Thermal correction to Energy=                    0.089682
 Thermal correction to Enthalpy=                  0.090627
 Thermal correction to Gibbs Free Energy=         0.057544
 Sum of electronic and zero-point Energies=           -189.198805
 Sum of electronic and thermal Energies=              -189.193673
 Sum of electronic and thermal Enthalpies=            -189.192729
 Sum of electronic and thermal Free Energies=         -189.225812

                     E (Thermal)             CV                S
                      KCal/Mol        Cal/Mol-Kelvin    Cal/Mol-Kelvin
 Total                   56.277             16.353             69.629
 Electronic               0.000              0.000              0.000
 Translational            0.889              2.981             38.097
 Rotational               0.889              2.981             23.541
 Vibrational             54.499             10.392              7.990
 Vibration     1          0.624              1.884              2.478
 Vibration     2          0.651              1.797              1.888
 Vibration     3          0.686              1.692              1.473
 Vibration     4          0.727              1.575              1.165
 Vibration     5          0.951              1.046              0.461

 Optimization completed.
    -- Stationary point found.
 Normal termination of Gaussian 09 at Thu Sep  8 15:19:00 2022.
