 Gaussian 09, Revision E.01,
 Gaussian 09:  ES64L-G09RevE.01 30-Nov-2015

 ----------------------------
 #P OPT Freq B3LYP/6-31G(d,p)
 ----------------------------

 --------
 Frag_678
 --------
 Symbolic Z-matrix:
 Charge =  0 Multiplicity = 1

 SCF Done:  E(RB3LYP) =  -346.983556331     A.U. after   13 cycles
 SCF Done:  E(RB3LYP) =  -346.983627225     A.U. after   11 cycles
 SCF Done:  E(RB3LYP) =  -346.983631225     A.U. after    8 cycles
 SCF Done:  E(RB3LYP) =  -346.983631878     A.U. after    8 cycles
 SCF Done:  E(RB3LYP) =  -346.983631955     A.U. after    7 cycles
 Optimization completed.
    -- Stationary point found.
 Normal termination of Gaussian 09 at Thu Sep  8 15:16:23 2022.

 ----------------------------------------------------------------------
 #P Geom=AllCheck Guess=TCheck SCRF=Check GenChk RB3LYP/6-31G(d,p) Freq
 ----------------------------------------------------------------------

 Structure from the checkpoint file:  "B3LYP6-31Gdp.Frag_678.chk"
 --------
 Frag_678
 --------
 Charge =  0 Multiplicity = 1

                         Standard orientation:
 ---------------------------------------------------------------------
 Center     Atomic      Atomic             Coordinates (Angstroms)
 Number     Number       Type             X           Y           Z
 ---------------------------------------------------------------------
      1          6           0       -1.671511    1.207319    0.116978
      2          6           0       -0.946303    0.089302    0.004178
      3          8           0       -1.495199   -1.160958   -0.071333
      4          6           0        0.576243    0.008376   -0.027535
      5          6           0        1.242392    1.387651    0.043502
      6          6           0        1.066852   -0.892475    1.121304
      7          8           0        0.886829   -0.602817   -1.291094
      8          1           0       -2.757170    1.172252    0.154817
      9          1           0       -1.211376    2.183096    0.167817
     10          1           0       -2.458152   -1.074610   -0.075112
     11          1           0        0.924734    2.010261   -0.796100
     12          1           0        2.329434    1.265945   -0.016885
     13          1           0        1.017624    1.905709    0.980353
     14          1           0        0.811319   -0.465736    2.096218
     15          1           0        0.615462   -1.882565    1.041536
     16          1           0        2.157946   -0.994656    1.075817
     17          1           0        1.831106   -0.810524   -1.279596
 ---------------------------------------------------------------------

 SCF Done:  E(RB3LYP) =  -346.983631955     A.U. after    1 cycles

 The electronic state is 1-A.
 Alpha  occ. eigenvalues --  -19.17005 -19.13546 -10.24684 -10.24123 -10.17578
 Alpha  occ. eigenvalues --  -10.17468 -10.16490  -1.05310  -1.00912  -0.78954
 Alpha  occ. eigenvalues --   -0.72647  -0.69000  -0.63683  -0.55651  -0.49500
 Alpha  occ. eigenvalues --   -0.47844  -0.47396  -0.42306  -0.41808  -0.40550
 Alpha  occ. eigenvalues --   -0.38718  -0.37117  -0.36444  -0.35376  -0.34450
 Alpha  occ. eigenvalues --   -0.31881  -0.26164  -0.22402
 Alpha virt. eigenvalues --    0.03407   0.06921   0.08531   0.12872   0.13836
 Alpha virt. eigenvalues --    0.14618   0.15510   0.16738   0.19034   0.19884
 Alpha virt. eigenvalues --    0.19960   0.22719   0.24721   0.25455   0.27606

 Mulliken charges:
               1
     1  C   -0.342377
     2  C    0.408332
     3  O   -0.535111
     4  C    0.219037
     5  C   -0.319083
     6  C   -0.322586
     7  O   -0.539990
     8  H    0.074583
     9  H    0.099281
    10  H    0.314137
    11  H    0.121282
    12  H    0.088502
    13  H    0.105717
    14  H    0.106495
    15  H    0.137450
    16  H    0.085725
    17  H    0.298606
 Sum of Mulliken charges =  -0.00000

 Dipole moment (field-independent basis, Debye):
    X=              0.2817    Y=              0.4928    Z=              1.1522  Tot=              1.2844
 Quadrupole moment (field-independent basis, Debye-Ang):
   XX=            -33.2481   YY=            -43.8830   ZZ=            -46.4983
   XY=              0.1756   XZ=             -0.8686   YZ=             -0.4927

  Exact polarizability:  68.774  -5.876  64.803  -0.731   1.182  45.339
 Approx polarizability:  90.033 -11.755  97.756  -2.134   5.318  64.953

                      1                      2                      3
                      A                      A                      A
 Frequencies --     69.5242               228.5203               241.7588
 Red. masses --      4.2660                 1.2502                 1.2705
 Frc consts  --      0.0121                 0.0385                 0.0438
 IR Inten    --      0.5547                75.1884                35.5780

                      4                      5                      6
                      A                      A                      A
 Frequencies --    269.1613               275.2762               303.9232
 Red. masses --      1.3761                 2.7758                 1.2331
 Frc consts  --      0.0587                 0.1239                 0.0671
 IR Inten    --      1.8924                 1.5317                 3.6247

                      7                      8                      9
                      A                      A                      A
 Frequencies --    358.6276               383.6314               391.6494
 Red. masses --      2.3938                 2.9752                 2.8708
 Frc consts  --      0.1814                 0.2580                 0.2595
 IR Inten    --      2.7978                 4.3341                 8.6462

                     10                     11                     12
                      A                      A                      A
 Frequencies --    416.5780               499.3879               540.1079
 Red. masses --      1.1681                 2.5317                 3.1788
 Frc consts  --      0.1194                 0.3720                 0.5464
 IR Inten    --     91.2733                 5.8010                26.0763

                     13                     14                     15
                      A                      A                      A
 Frequencies --    669.2928               711.0206               728.7997
 Red. masses --      2.3422                 3.1346                 1.3908
 Frc consts  --      0.6182                 0.9337                 0.4352
 IR Inten    --      3.4901                 1.6051                 0.8074

                     16                     17                     18
                      A                      A                      A
 Frequencies --    820.2609               886.7518               930.7349
 Red. masses --      1.4384                 2.4566                 1.5140
 Frc consts  --      0.5702                 1.1381                 0.7727
 IR Inten    --     56.3235                20.8600                 1.0718

                     19                     20                     21
                      A                      A                      A
 Frequencies --    971.5926               990.0575              1021.9784
 Red. masses --      2.0895                 1.7750                 1.2967
 Frc consts  --      1.1622                 1.0251                 0.7979
 IR Inten    --     12.1417                18.1025                 1.7435

                     22                     23                     24
                      A                      A                      A
 Frequencies --   1142.1359              1167.0310              1202.9908
 Red. masses --      1.5167                 1.9465                 2.7065
 Frc consts  --      1.1657                 1.5619                 2.3077
 IR Inten    --     71.8721               220.6884                49.8241

                     25                     26                     27
                      A                      A                      A
 Frequencies --   1244.4093              1338.7233              1401.4566
 Red. masses --      2.3876                 1.5902                 1.4076
 Frc consts  --      2.1784                 1.6791                 1.6288
 IR Inten    --      6.1299                23.8926                24.0039

                     28                     29                     30
                      A                      A                      A
 Frequencies --   1417.4527              1423.7872              1463.9039
 Red. masses --      1.8662                 1.2523                 1.2028
 Frc consts  --      2.2091                 1.4957                 1.5187
 IR Inten    --      5.4534                13.3812                12.0623

                     31                     32                     33
                      A                      A                      A
 Frequencies --   1495.4079              1503.7207              1510.3720
 Red. masses --      1.0504                 1.0508                 1.0520
 Frc consts  --      1.3840                 1.4000                 1.4139
 IR Inten    --      1.2588                 0.5671                 0.8519

                     34                     35                     36
                      A                      A                      A
 Frequencies --   1531.8409              1728.7884              3039.6171
 Red. masses --      1.1117                 5.7689                 1.0403
 Frc consts  --      1.5370                10.1585                 5.6629
 IR Inten    --      7.5329               103.6235                16.6919

                     37                     38                     39
                      A                      A                      A
 Frequencies --   3049.0527              3108.2555              3117.1472
 Red. masses --      1.0375                 1.0991                 1.0998
 Frc consts  --      5.6827                 6.2564                 6.2960
 IR Inten    --     22.1902                 6.2038                48.4612

                     40                     41                     42
                      A                      A                      A
 Frequencies --   3142.3799              3158.1472              3165.8010
 Red. masses --      1.1031                 1.1005                 1.0683
 Frc consts  --      6.4177                 6.4672                 6.3081
 IR Inten    --     19.4641                10.4630                11.0712

                     43                     44                     45
                      A                      A                      A
 Frequencies --   3281.0922              3801.2719              3811.5114
 Red. masses --      1.1081                 1.0662                 1.0657
 Frc consts  --      7.0282                 9.0767                 9.1215
 IR Inten    --      6.0463                 7.1110                21.4710

 - Thermochemistry -
 -------------------
 Temperature   298.150 Kelvin.  Pressure   1.00000 Atm.
 Atom     1 has atomic number  6 and mass  12.00000

 Molecular mass:   102.06808 amu.
 Principal axes and moments of inertia in atomic units:
                           1         2         3
     Eigenvalues --   541.05980 758.04265 929.16067
           X            0.99951  -0.02370   0.02064
           Y            0.02455   0.99883  -0.04172
           Z           -0.01963   0.04221   0.99892
 This molecule is an asymmetric top.
 Rotational symmetry number  1.
 Warning -- assumption of classical behavior for rotation
           may cause significant error
 Rotational temperatures (Kelvin)      0.16008     0.11426     0.09322
 Rotational constants (GHZ):           3.33557     2.38079     1.94233
 Zero-point vibrational energy     382535.4 (Joules/Mol)
                                   91.42816 (Kcal/Mol)
 Warning -- explicit consideration of  12 degrees of freedom as
           vibrations may cause significant error
 Vibrational temperatures:    100.03   328.79   347.84   387.26   396.06
          (Kelvin)            437.28   515.98   551.96   563.50   599.36
                              718.51   777.09   962.96  1023.00  1048.58
                             1180.17  1275.84  1339.12  1397.90  1424.47
                             1470.40  1643.28  1679.10  1730.83  1790.43
                             1926.12  2016.38  2039.40  2048.51  2106.23
                             2151.56  2163.52  2173.09  2203.97  2487.34
                             4373.33  4386.90  4472.08  4484.87  4521.18
                             4543.86  4554.88  4720.75  5469.18  5483.91

 Zero-point correction=                           0.145700 (Hartree/Particle)
 Thermal correction to Energy=                    0.154134
 Thermal correction to Enthalpy=                  0.155078
 Thermal correction to Gibbs Free Energy=         0.113803
 Sum of electronic and zero-point Energies=           -346.837932
 Sum of electronic and thermal Energies=              -346.829498
 Sum of electronic and thermal Enthalpies=            -346.828554
 Sum of electronic and thermal Free Energies=         -346.869829

                     E (Thermal)             CV                S
                      KCal/Mol        Cal/Mol-Kelvin    Cal/Mol-Kelvin
 Total                   96.720             31.931             86.870
 Electronic               0.000              0.000              0.000
 Translational            0.889              2.981             39.779
 Rotational               0.889              2.981             27.435
 Vibrational             94.943             25.970             19.656
 Vibration     1          0.598              1.969              4.167
 Vibration     2          0.651              1.797              1.891
 Vibration     3          0.658              1.776              1.790
 Vibration     4          0.674              1.730              1.602
 Vibration     5          0.677              1.719              1.563
 Vibration     6          0.695              1.666              1.395
 Vibration     7          0.733              1.558              1.128
 Vibration     8          0.753              1.505              1.025
 Vibration     9          0.759              1.488              0.994
 Vibration    10          0.780              1.434              0.904
 Vibration    11          0.855              1.251              0.660
 Vibration    12          0.895              1.161              0.565

 Optimization completed.
    -- Stationary point found.
 Normal termination of Gaussian 09 at Thu Sep  8 15:16:39 2022.
