 Gaussian 09, Revision E.01,
 Gaussian 09:  ES64L-G09RevE.01 30-Nov-2015

 ----------------------------
 #P OPT Freq B3LYP/6-31G(d,p)
 ----------------------------

 --------
 Frag_868
 --------
 Symbolic Z-matrix:
 Charge =  0 Multiplicity = 1

 SCF Done:  E(RB3LYP) =  -212.595047495     A.U. after   13 cycles
 SCF Done:  E(RB3LYP) =  -212.595074190     A.U. after    8 cycles
 SCF Done:  E(RB3LYP) =  -212.595075052     A.U. after    8 cycles
 SCF Done:  E(RB3LYP) =  -212.595075079     A.U. after    7 cycles
 Optimization completed.
    -- Stationary point found.
 Normal termination of Gaussian 09 at Thu Sep  8 15:03:21 2022.

 ----------------------------------------------------------------------
 #P Geom=AllCheck Guess=TCheck SCRF=Check GenChk RB3LYP/6-31G(d,p) Freq
 ----------------------------------------------------------------------

 Structure from the checkpoint file:  "B3LYP6-31Gdp.Frag_868.chk"
 --------
 Frag_868
 --------
 Charge =  0 Multiplicity = 1

                         Standard orientation:
 ---------------------------------------------------------------------
 Center     Atomic      Atomic             Coordinates (Angstroms)
 Number     Number       Type             X           Y           Z
 ---------------------------------------------------------------------
      1          6           0       -1.503460   -0.891497    0.273076
      2          6           0       -0.450417   -0.002190   -0.417587
      3          6           0       -0.533466    1.454930    0.041852
      4          6           0        0.924263   -0.601710   -0.230158
      5          7           0        1.895390    0.049809    0.272112
      6          1           0       -1.444018   -1.930728   -0.068913
      7          1           0       -2.513431   -0.527123    0.061542
      8          1           0       -1.363160   -0.885743    1.359474
      9          1           0       -0.652273   -0.045503   -1.500695
     10          1           0       -1.528402    1.863481   -0.162652
     11          1           0       -0.341006    1.534497    1.115874
     12          1           0        0.210907    2.072381   -0.466347
     13          1           0        1.007878   -1.650578   -0.560525
     14          1           0        2.734252   -0.536545    0.314360
 ---------------------------------------------------------------------

 SCF Done:  E(RB3LYP) =  -212.595075079     A.U. after    1 cycles

 The electronic state is 1-A.
 Alpha  occ. eigenvalues --  -14.31705 -10.22866 -10.19465 -10.18097 -10.16632
 Alpha  occ. eigenvalues --   -0.89879  -0.78841  -0.68193  -0.63483  -0.53526
 Alpha  occ. eigenvalues --   -0.50112  -0.45194  -0.43354  -0.39525  -0.37978
 Alpha  occ. eigenvalues --   -0.34985  -0.34329  -0.33587  -0.30152  -0.25690
 Alpha virt. eigenvalues --    0.00431   0.08755   0.11760   0.13923   0.14517
 Alpha virt. eigenvalues --    0.15732   0.16991   0.18145   0.19717   0.20958
 Alpha virt. eigenvalues --    0.22658   0.24736   0.28818   0.38531   0.50506

 Mulliken charges:
               1
     1  C   -0.318645
     2  C   -0.092464
     3  C   -0.296560
     4  C    0.140558
     5  N   -0.478022
     6  H    0.099141
     7  H    0.109117
     8  H    0.114234
     9  H    0.102945
    10  H    0.089323
    11  H    0.115004
    12  H    0.117346
    13  H    0.070179
    14  H    0.227843
 Sum of Mulliken charges =  -0.00000

 Dipole moment (field-independent basis, Debye):
    X=             -0.5835    Y=             -1.5823    Z=             -0.6932  Tot=              1.8234
 Quadrupole moment (field-independent basis, Debye-Ang):
   XX=            -31.3463   YY=            -32.1310   ZZ=            -32.5500
   XY=             -3.2989   XZ=             -0.5363   YZ=             -0.2416

  Exact polarizability:  59.194   0.868  49.581   3.786   2.561  39.595
 Approx polarizability:  79.771   5.675  66.923   9.002   5.915  58.583

                      1                      2                      3
                      A                      A                      A
 Frequencies --    101.3628               208.9296               237.8591
 Red. masses --      2.7982                 1.0435                 1.1080
 Frc consts  --      0.0169                 0.0268                 0.0369
 IR Inten    --      5.8705                 0.0401                 1.4411

                      4                      5                      6
                      A                      A                      A
 Frequencies --    283.6626               345.7963               394.1982
 Red. masses --      2.6703                 2.1104                 1.9336
 Frc consts  --      0.1266                 0.1487                 0.1770
 IR Inten    --      6.8824                 2.9581                 9.9845

                      7                      8                      9
                      A                      A                      A
 Frequencies --    614.1039               757.0530               819.3835
 Red. masses --      3.0825                 1.8984                 1.7563
 Frc consts  --      0.6849                 0.6410                 0.6947
 IR Inten    --     12.0466                25.3546                22.1673

                     10                     11                     12
                      A                      A                      A
 Frequencies --    932.8280               943.3255               974.1780
 Red. masses --      1.4054                 1.5214                 1.4382
 Frc consts  --      0.7205                 0.7977                 0.8042
 IR Inten    --      7.6417                11.5057                 0.5612

                     13                     14                     15
                      A                      A                      A
 Frequencies --   1104.2347              1124.2886              1137.2927
 Red. masses --      1.4213                 1.3963                 1.7481
 Frc consts  --      1.0211                 1.0399                 1.3322
 IR Inten    --     16.6505                17.4270                 3.1163

                     16                     17                     18
                      A                      A                      A
 Frequencies --   1197.3779              1250.8492              1324.2251
 Red. masses --      1.6406                 1.1919                 1.3933
 Frc consts  --      1.3858                 1.0987                 1.4395
 IR Inten    --      6.5833                25.3731                 1.3882

                     19                     20                     21
                      A                      A                      A
 Frequencies --   1377.1270              1413.9633              1424.9202
 Red. masses --      1.5507                 1.2553                 1.3503
 Frc consts  --      1.7328                 1.4787                 1.6154
 IR Inten    --      2.1896                 4.0814                 7.0859

                     22                     23                     24
                      A                      A                      A
 Frequencies --   1442.9733              1497.3656              1502.0687
 Red. masses --      1.3610                 1.0413                 1.0502
 Frc consts  --      1.6697                 1.3756                 1.3961
 IR Inten    --     20.0608                 1.0605                 1.2984

                     25                     26                     27
                      A                      A                      A
 Frequencies --   1515.3912              1522.5727              1736.7049
 Red. masses --      1.0444                 1.0684                 6.7186
 Frc consts  --      1.4131                 1.4592                11.9394
 IR Inten    --      6.0299                 5.1126                65.2358

                     28                     29                     30
                      A                      A                      A
 Frequencies --   2984.1881              2996.7723              3039.4314
 Red. masses --      1.0824                 1.0854                 1.0352
 Frc consts  --      5.6795                 5.7431                 5.6344
 IR Inten    --     27.8901                65.6135                30.7277

                     31                     32                     33
                      A                      A                      A
 Frequencies --   3053.3200              3108.9305              3117.7550
 Red. masses --      1.0369                 1.1023                 1.1028
 Frc consts  --      5.6955                 6.2772                 6.3157
 IR Inten    --     18.2878                33.2822                 8.6226

                     34                     35                     36
                      A                      A                      A
 Frequencies --   3124.1111              3139.1315              3442.3555
 Red. masses --      1.1020                 1.1016                 1.0761
 Frc consts  --      6.3371                 6.3956                 7.5130
 IR Inten    --     45.4513                21.1235                 6.2418

 - Thermochemistry -
 -------------------
 Temperature   298.150 Kelvin.  Pressure   1.00000 Atm.
 Atom     1 has atomic number  6 and mass  12.00000

 Molecular mass:    71.07350 amu.
 Principal axes and moments of inertia in atomic units:
                           1         2         3
     Eigenvalues --   243.21874 449.64204 616.21854
           X            0.99989  -0.01213  -0.00831
           Y            0.01216   0.99992   0.00361
           Z            0.00826  -0.00371   0.99996
 This molecule is an asymmetric top.
 Rotational symmetry number  1.
 Rotational temperatures (Kelvin)      0.35611     0.19263     0.14056
 Rotational constants (GHZ):           7.42024     4.01373     2.92874
 Zero-point vibrational energy     330109.7 (Joules/Mol)
                                   78.89811 (Kcal/Mol)
 Warning -- explicit consideration of   7 degrees of freedom as
           vibrations may cause significant error
 Vibrational temperatures:    145.84   300.60   342.23   408.13   497.52
          (Kelvin)            567.16   883.56  1089.23  1178.91  1342.13
                             1357.23  1401.62  1588.75  1617.60  1636.31
                             1722.76  1799.69  1905.26  1981.38  2034.38
                             2050.14  2076.11  2154.37  2161.14  2180.31
                             2190.64  2498.73  4293.58  4311.68  4373.06
                             4393.04  4473.05  4485.75  4494.89  4516.50
                             4952.78

 Zero-point correction=                           0.125732 (Hartree/Particle)
 Thermal correction to Energy=                    0.132079
 Thermal correction to Enthalpy=                  0.133023
 Thermal correction to Gibbs Free Energy=         0.096442
 Sum of electronic and zero-point Energies=           -212.469343
 Sum of electronic and thermal Energies=              -212.462996
 Sum of electronic and thermal Enthalpies=            -212.462052
 Sum of electronic and thermal Free Energies=         -212.498633

                     E (Thermal)             CV                S
                      KCal/Mol        Cal/Mol-Kelvin    Cal/Mol-Kelvin
 Total                   82.881             21.972             76.991
 Electronic               0.000              0.000              0.000
 Translational            0.889              2.981             38.700
 Rotational               0.889              2.981             25.714
 Vibrational             81.103             16.010             12.577
 Vibration     1          0.604              1.948              3.428
 Vibration     2          0.642              1.827              2.053
 Vibration     3          0.656              1.783              1.819
 Vibration     4          0.682              1.704              1.511
 Vibration     5          0.724              1.584              1.185
 Vibration     6          0.761              1.483              0.984
 Vibration     7          0.974              1.002              0.426

 Normal termination of Gaussian 09 at Thu Sep  8 15:03:31 2022.
