 Gaussian 09, Revision E.01,
 Gaussian 09:  ES64L-G09RevE.01 30-Nov-2015

 ----------------------------
 #P OPT Freq B3LYP/6-31G(d,p)
 ----------------------------

 --------
 Frag_633
 --------
 Symbolic Z-matrix:
 Charge =  0 Multiplicity = 1

 SCF Done:  E(RB3LYP) =  -285.625778836     A.U. after   12 cycles
 SCF Done:  E(RB3LYP) =  -285.625841390     A.U. after    9 cycles
 SCF Done:  E(RB3LYP) =  -285.625846828     A.U. after    8 cycles
 SCF Done:  E(RB3LYP) =  -285.625851489     A.U. after    8 cycles
 SCF Done:  E(RB3LYP) =  -285.625852216     A.U. after    7 cycles
 Optimization completed.
    -- Stationary point found.
 Normal termination of Gaussian 09 at Thu Sep  8 15:02:03 2022.

 ----------------------------------------------------------------------
 #P Geom=AllCheck Guess=TCheck SCRF=Check GenChk RB3LYP/6-31G(d,p) Freq
 ----------------------------------------------------------------------

 Structure from the checkpoint file:  "B3LYP6-31Gdp.Frag_633.chk"
 --------
 Frag_633
 --------
 Charge =  0 Multiplicity = 1

                         Standard orientation:
 ---------------------------------------------------------------------
 Center     Atomic      Atomic             Coordinates (Angstroms)
 Number     Number       Type             X           Y           Z
 ---------------------------------------------------------------------
      1          6           0        1.217282   -0.001174    0.846127
      2          6           0       -0.049925    0.000046   -0.034680
      3          7           0       -1.296896   -0.005162    0.685886
      4          8           0       -0.090954    1.181184   -0.812905
      5          8           0       -0.086376   -1.174666   -0.822826
      6          1           0        1.237935    0.885915    1.485390
      7          1           0        1.241431   -0.893362    1.478172
      8          1           0        2.133892    0.003159    0.239082
      9          1           0       -1.357706   -0.835296    1.266045
     10          1           0       -1.361542    0.820973    1.271325
     11          1           0        0.796134    1.343985   -1.158868
     12          1           0        0.802625   -1.334615   -1.165183
 ---------------------------------------------------------------------

 SCF Done:  E(RB3LYP) =  -285.625852216     A.U. after    1 cycles

 The electronic state is 1-A.
 Alpha  occ. eigenvalues --  -19.14493 -19.14488 -14.31118 -10.31328 -10.18951
 Alpha  occ. eigenvalues --   -1.06203  -0.99257  -0.87167  -0.72983  -0.62006
 Alpha  occ. eigenvalues --   -0.54651  -0.48455  -0.46314  -0.44342  -0.42444
 Alpha  occ. eigenvalues --   -0.40533  -0.36614  -0.35274  -0.29126  -0.27633
 Alpha  occ. eigenvalues --   -0.24150
 Alpha virt. eigenvalues --    0.04798   0.10108   0.11754   0.14454   0.14763
 Alpha virt. eigenvalues --    0.14937   0.18773   0.22559   0.24768   0.25419
 Alpha virt. eigenvalues --    0.31578   0.54674   0.57092   0.57585   0.59711

 Mulliken charges:
               1
     1  C   -0.351109
     2  C    0.561347
     3  N   -0.568580
     4  O   -0.517475
     5  O   -0.517495
     6  H    0.114926
     7  H    0.114809
     8  H    0.082649
     9  H    0.245522
    10  H    0.245581
    11  H    0.294906
    12  H    0.294920
 Sum of Mulliken charges =  -0.00000

 Dipole moment (field-independent basis, Debye):
    X=              3.4431    Y=             -0.0033    Z=              1.5995  Tot=              3.7965
 Quadrupole moment (field-independent basis, Debye-Ang):
   XX=            -30.6270   YY=            -30.8583   ZZ=            -27.6356
   XY=              0.0132   XZ=             -5.8034   YZ=             -0.0284

  Exact polarizability:  38.324   0.009  36.450  -4.265  -0.004  34.641
 Approx polarizability:  51.253   0.006  51.616  -6.390   0.013  45.244

                      1                      2                      3
                      A                      A                      A
 Frequencies --    121.4546               231.9246               291.4116
 Red. masses --      1.1281                 1.0374                 1.0426
 Frc consts  --      0.0098                 0.0329                 0.0522
 IR Inten    --     12.6642                90.3196                 0.3744

                      4                      5                      6
                      A                      A                      A
 Frequencies --    340.7159               391.7619               396.4627
 Red. masses --      1.4935                 1.6028                 2.8558
 Frc consts  --      0.1022                 0.1449                 0.2645
 IR Inten    --     45.1430               101.7015                 0.6523

                      7                      8                      9
                      A                      A                      A
 Frequencies --    512.3480               521.4410               556.8799
 Red. masses --      3.0807                 3.7030                 4.0472
 Frc consts  --      0.4765                 0.5932                 0.7395
 IR Inten    --      0.2732                27.2612                 1.9604

                     10                     11                     12
                      A                      A                      A
 Frequencies --    792.2825               820.8855               936.5442
 Red. masses --      2.1829                 2.3779                 2.4542
 Frc consts  --      0.8073                 0.9441                 1.2683
 IR Inten    --    116.5927                95.1860                89.4418

                     13                     14                     15
                      A                      A                      A
 Frequencies --    987.5269              1061.9643              1068.8859
 Red. masses --      1.6735                 1.9772                 1.4121
 Frc consts  --      0.9616                 1.3138                 0.9505
 IR Inten    --     19.3867                40.5154               105.5963

                     16                     17                     18
                      A                      A                      A
 Frequencies --   1214.9288              1239.2068              1334.0928
 Red. masses --      3.6413                 1.1416                 1.8537
 Frc consts  --      3.1667                 1.0328                 1.9438
 IR Inten    --    233.4843                85.4562                96.5179

                     19                     20                     21
                      A                      A                      A
 Frequencies --   1417.0365              1439.3595              1508.8694
 Red. masses --      1.2567                 1.7322                 1.0550
 Frc consts  --      1.4868                 2.1144                 1.4151
 IR Inten    --      1.5555                74.1629                 0.0074

                     22                     23                     24
                      A                      A                      A
 Frequencies --   1511.5911              1643.9206              3018.9469
 Red. masses --      1.1187                 1.1402                 1.0469
 Frc consts  --      1.5061                 1.8154                 5.6217
 IR Inten    --      8.9898                38.0483                26.3265

                     25                     26                     27
                      A                      A                      A
 Frequencies --   3100.1041              3136.7140              3531.1582
 Red. masses --      1.0886                 1.1043                 1.0485
 Frc consts  --      6.1640                 6.4014                 7.7028
 IR Inten    --     27.9182                21.1151                 2.1402

                     28                     29                     30
                      A                      A                      A
 Frequencies --   3632.0518              3820.5019              3822.4882
 Red. masses --      1.0948                 1.0661                 1.0659
 Frc consts  --      8.5094                 9.1687                 9.1760
 IR Inten    --      2.6713                 7.5274                13.6080

 - Thermochemistry -
 -------------------
 Temperature   298.150 Kelvin.  Pressure   1.00000 Atm.
 Atom     1 has atomic number  6 and mass  12.00000

 Molecular mass:    77.04768 amu.
 Principal axes and moments of inertia in atomic units:
                           1         2         3
     Eigenvalues --   349.06820 360.86786 375.90737
           X            0.99168   0.00123  -0.12871
           Y           -0.00190   0.99999  -0.00505
           Z            0.12870   0.00525   0.99167
 This molecule is an asymmetric top.
 Rotational symmetry number  1.
 Rotational temperatures (Kelvin)      0.24813     0.24002     0.23041
 Rotational constants (GHZ):           5.17017     5.00111     4.80103
 Zero-point vibrational energy     265591.7 (Joules/Mol)
                                   63.47793 (Kcal/Mol)
 Warning -- explicit consideration of   9 degrees of freedom as
           vibrations may cause significant error
 Vibrational temperatures:    174.75   333.69   419.28   490.21   563.66
          (Kelvin)            570.42   737.15   750.24   801.22  1139.92
                             1181.07  1347.48  1420.83  1527.93  1537.89
                             1748.01  1782.94  1919.46  2038.80  2070.91
                             2170.92  2174.84  2365.23  4343.59  4460.35
                             4513.03  5080.54  5225.71  5496.84  5499.70

 Zero-point correction=                           0.101159 (Hartree/Particle)
 Thermal correction to Energy=                    0.107601
 Thermal correction to Enthalpy=                  0.108545
 Thermal correction to Gibbs Free Energy=         0.072160
 Sum of electronic and zero-point Energies=           -285.524694
 Sum of electronic and thermal Energies=              -285.518251
 Sum of electronic and thermal Enthalpies=            -285.517307
 Sum of electronic and thermal Free Energies=         -285.553692

                     E (Thermal)             CV                S
                      KCal/Mol        Cal/Mol-Kelvin    Cal/Mol-Kelvin
 Total                   67.521             23.120             76.579
 Electronic               0.000              0.000              0.000
 Translational            0.889              2.981             38.941
 Rotational               0.889              2.981             25.363
 Vibrational             65.743             17.158             12.275
 Vibration     1          0.609              1.931              3.077
 Vibration     2          0.653              1.792              1.864
 Vibration     3          0.687              1.690              1.466
 Vibration     4          0.720              1.594              1.209
 Vibration     5          0.759              1.488              0.993
 Vibration     6          0.763              1.478              0.976
 Vibration     7          0.867              1.223              0.628
 Vibration     8          0.876              1.203              0.607
 Vibration     9          0.912              1.125              0.530

 Normal termination of Gaussian 09 at Thu Sep  8 15:02:12 2022.
