 Gaussian 09, Revision D.01,
 Gaussian 09:  ES64L-G09RevD.01 24-Apr-2013

 -------------------------
 #P OPT Freq B3LYP/6-31G**
 -------------------------

 -------
 Frag_65
 -------
 Symbolic Z-matrix:
 Charge =  0 Multiplicity = 1

 SCF Done:  E(RB3LYP) =  -323.754245988     A.U. after   14 cycles
 Optimization completed.
    -- Stationary point found.
 Normal termination of Gaussian 09 at Fri Jul 23 05:11:18 2021.

 ----------------------------------------------------------------------
 #P Geom=AllCheck Guess=TCheck SCRF=Check GenChk RB3LYP/6-31G(d,p) Freq
 ----------------------------------------------------------------------

 Structure from the checkpoint file:  "/vol2/users/liuj201281/HOFBenchmark/IsodesmicSplit/Sample60/Ring26/Running/Gau-8165.chk"
 -------
 Frag_65
 -------
 Charge =  0 Multiplicity = 1

                         Standard orientation:
 ---------------------------------------------------------------------
 Center     Atomic      Atomic             Coordinates (Angstroms)
 Number     Number       Type             X           Y           Z
 ---------------------------------------------------------------------
      1          6           0        1.308009    1.277306   -0.255496
      2          6           0        0.682707    0.020657    0.363904
      3          7           0        1.376000   -1.177889   -0.096996
      4          6           0       -0.797181   -0.132158    0.034704
      5          8           0       -1.344300   -1.183000   -0.221396
      6          8           0       -1.472172    1.037190    0.117304
      7          1           0        0.808339    2.184167    0.091504
      8          1           0        1.251213    1.227401   -1.345896
      9          1           0        2.364705    1.334787    0.023704
     10          1           0        0.695797    0.146158    1.465204
     11          1           0        2.236310   -1.307223    0.426404
     12          1           0        0.785063   -1.990735    0.056004
     13          1           0       -2.402855    0.822318   -0.063896
 ---------------------------------------------------------------------

 SCF Done:  E(RB3LYP) =  -323.754245988     A.U. after    1 cycles

 The electronic state is 1-A.
 Alpha  occ. eigenvalues --  -19.20190 -19.14438 -14.31216 -10.32258 -10.23328
 Alpha  occ. eigenvalues --  -10.17967  -1.11084  -1.01982  -0.88863  -0.75034
 Alpha  occ. eigenvalues --   -0.66585  -0.58623  -0.51560  -0.49291  -0.47827
 Alpha  occ. eigenvalues --   -0.43967  -0.43192  -0.40830  -0.38072  -0.37437
 Alpha  occ. eigenvalues --   -0.36230  -0.32264  -0.27980  -0.23717
 Alpha virt. eigenvalues --    0.00537   0.07238   0.09090   0.13984   0.14701
 Alpha virt. eigenvalues --    0.15571   0.17415   0.18800   0.21671   0.24150
 Alpha virt. eigenvalues --    0.25740   0.31671   0.37121   0.50938   0.53730

 Mulliken charges:
               1
     1  C   -0.295486
     2  C   -0.018062
     3  N   -0.597076
     4  C    0.593098
     5  O   -0.472671
     6  O   -0.483249
     7  H    0.117701
     8  H    0.124315
     9  H    0.102324
    10  H    0.109480
    11  H    0.237470
    12  H    0.257446
    13  H    0.324709
 Sum of Mulliken charges =   0.00000

 Dipole moment (field-independent basis, Debye):
    X=              0.2039    Y=              1.1418    Z=              1.5789  Tot=              1.9591
 Quadrupole moment (field-independent basis, Debye-Ang):
   XX=            -30.9696   YY=            -37.6732   ZZ=            -36.1235
   XY=             -3.5056   XZ=              2.5560   YZ=             -2.7342

  Exact polarizability:  50.286  -0.319  49.160   1.830   1.501  33.056
 Approx polarizability:  64.364   1.582  73.506   3.304   5.513  47.823

                      1                      2                      3
                      A                      A                      A
 Frequencies --     59.7899               220.8604               234.9381
 Red. masses --      5.3232                 1.0746                 1.1629
 Frc consts  --      0.0112                 0.0309                 0.0378
 IR Inten    --      1.1165                33.1738                16.9546

                      4                      5                      6
                      A                      A                      A
 Frequencies --    268.1507               330.9226               416.9685
 Red. masses --      2.7743                 3.2824                 2.6645
 Frc consts  --      0.1175                 0.2118                 0.2729
 IR Inten    --      0.5763                 1.0744                12.8313

                      7                      8                      9
                      A                      A                      A
 Frequencies --    492.3697               559.8276               634.3885
 Red. masses --      4.6262                 3.1028                 1.4292
 Frc consts  --      0.6608                 0.5729                 0.3389
 IR Inten    --      9.2653                28.3009                67.0481

                     10                     11                     12
                      A                      A                      A
 Frequencies --    732.8119               803.8103               857.6010
 Red. masses --      3.1593                 2.5621                 1.3343
 Frc consts  --      0.9996                 0.9753                 0.5782
 IR Inten    --     69.6230                27.5215               140.9973

                     13                     14                     15
                      A                      A                      A
 Frequencies --    946.7627              1030.2013              1110.9877
 Red. masses --      2.0388                 1.5065                 1.9643
 Frc consts  --      1.0767                 0.9420                 1.4285
 IR Inten    --      9.4480                 1.5939                10.3333

                     16                     17                     18
                      A                      A                      A
 Frequencies --   1149.7437              1194.1523              1243.8211
 Red. masses --      2.6313                 1.7201                 1.2912
 Frc consts  --      2.0494                 1.4451                 1.1769
 IR Inten    --    152.0994               109.8729                11.2002

                     19                     20                     21
                      A                      A                      A
 Frequencies --   1341.0104              1361.3523              1417.1896
 Red. masses --      1.6581                 1.4786                 1.4942
 Frc consts  --      1.7568                 1.6145                 1.7681
 IR Inten    --     29.4220                 6.6375                 7.2224

                     22                     23                     24
                      A                      A                      A
 Frequencies --   1431.2942              1508.2991              1514.4306
 Red. masses --      1.6220                 1.0589                 1.0855
 Frc consts  --      1.9577                 1.4194                 1.4668
 IR Inten    --      7.3789                 6.3578                 8.2123

                     25                     26                     27
                      A                      A                      A
 Frequencies --   1644.2430              1839.2753              2913.3488
 Red. masses --      1.1117                 9.0451                 1.0799
 Frc consts  --      1.7708                18.0285                 5.4003
 IR Inten    --     60.2562               252.8843                55.7190

                     28                     29                     30
                      A                      A                      A
 Frequencies --   3058.2157              3129.7441              3153.0267
 Red. masses --      1.0360                 1.1016                 1.1039
 Frc consts  --      5.7089                 6.3574                 6.4659
 IR Inten    --     19.9611                22.6039                17.3039

                     31                     32                     33
                      A                      A                      A
 Frequencies --   3508.6414              3602.9806              3753.2480
 Red. masses --      1.0491                 1.0939                 1.0642
 Frc consts  --      7.6090                 8.3666                 8.8322
 IR Inten    --      4.2913                 4.2081                54.3126

 - Thermochemistry -
 -------------------
 Temperature   298.150 Kelvin.  Pressure   1.00000 Atm.
 Atom     1 has atomic number  6 and mass  12.00000

 Molecular mass:    89.04768 amu.
 Principal axes and moments of inertia in atomic units:
                           1         2         3
     Eigenvalues --   360.64571 539.15306 845.07697
           X            0.99997   0.00538   0.00476
           Y           -0.00528   0.99974  -0.02210
           Z           -0.00488   0.02207   0.99974
 This molecule is an asymmetric top.
 Rotational symmetry number  1.
 Rotational temperatures (Kelvin)      0.24016     0.16065     0.10249
 Rotational constants (GHZ):           5.00419     3.34736     2.13559
 Zero-point vibrational energy     283900.2 (Joules/Mol)
                                   67.85378 (Kcal/Mol)
 Warning -- explicit consideration of   8 degrees of freedom as
           vibrations may cause significant error
 Vibrational temperatures:     86.02   317.77   338.02   385.81   476.12
          (Kelvin)            599.92   708.41   805.47   912.74  1054.35
                             1156.50  1233.89  1362.18  1482.23  1598.46
                             1654.22  1718.12  1789.58  1929.41  1958.68
                             2039.02  2059.31  2170.10  2178.93  2365.70
                             2646.30  4191.65  4400.08  4503.00  4536.50
                             5048.15  5183.88  5400.08

 Zero-point correction=                           0.108132 (Hartree/Particle)
 Thermal correction to Energy=                    0.114948
 Thermal correction to Enthalpy=                  0.115892
 Thermal correction to Gibbs Free Energy=         0.077538
 Sum of electronic and zero-point Energies=           -323.646114
 Sum of electronic and thermal Energies=              -323.639298
 Sum of electronic and thermal Enthalpies=            -323.638354
 Sum of electronic and thermal Free Energies=         -323.676708

                     E (Thermal)             CV                S
                      KCal/Mol        Cal/Mol-Kelvin    Cal/Mol-Kelvin
 Total                   72.131             23.966             80.723
 Electronic               0.000              0.000              0.000
 Translational            0.889              2.981             39.372
 Rotational               0.889              2.981             26.599
 Vibrational             70.353             18.005             14.752
 Vibration     1          0.597              1.973              4.464
 Vibration     2          0.648              1.809              1.952
 Vibration     3          0.655              1.787              1.841
 Vibration     4          0.673              1.732              1.608
 Vibration     5          0.713              1.614              1.256
 Vibration     6          0.780              1.433              0.902
 Vibration     7          0.848              1.267              0.677
 Vibration     8          0.915              1.118              0.524

 Optimization completed.
    -- Stationary point found.
 Normal termination of Gaussian 09 at Fri Jul 23 05:12:10 2021.
