 Gaussian 09, Revision E.01,
 Gaussian 09:  ES64L-G09RevE.01 30-Nov-2015

 ----------------------------
 #P OPT Freq B3LYP/6-31G(d,p)
 ----------------------------

 --------
 Frag_882
 --------
 Symbolic Z-matrix:
 Charge =  0 Multiplicity = 1

 SCF Done:  E(RB3LYP) =  -260.650429699     A.U. after   14 cycles
 SCF Done:  E(RB3LYP) =  -260.650500758     A.U. after   10 cycles
 SCF Done:  E(RB3LYP) =  -260.650509393     A.U. after    8 cycles
 SCF Done:  E(RB3LYP) =  -260.650511776     A.U. after    9 cycles
 SCF Done:  E(RB3LYP) =  -260.650512641     A.U. after    8 cycles
 SCF Done:  E(RB3LYP) =  -260.650512847     A.U. after    7 cycles
 Optimization completed.
    -- Stationary point found.
 Normal termination of Gaussian 09 at Thu Sep  8 15:05:22 2022.

 ----------------------------------------------------------------------
 #P Geom=AllCheck Guess=TCheck SCRF=Check GenChk RB3LYP/6-31G(d,p) Freq
 ----------------------------------------------------------------------

 Structure from the checkpoint file:  "B3LYP6-31Gdp.Frag_882.chk"
 --------
 Frag_882
 --------
 Charge =  0 Multiplicity = 1

                         Standard orientation:
 ---------------------------------------------------------------------
 Center     Atomic      Atomic             Coordinates (Angstroms)
 Number     Number       Type             X           Y           Z
 ---------------------------------------------------------------------
      1          7           0        1.998027   -0.100359    0.088090
      2          6           0        0.864520   -0.653347   -0.059109
      3          7           0       -0.383047   -0.032458   -0.266869
      4          7           0       -1.488435   -0.833365    0.091400
      5          7           0       -0.412179    1.348366    0.012363
      6          1           0        1.876582    0.918370    0.078394
      7          1           0        0.763354   -1.738388   -0.080700
      8          1           0       -1.773669   -0.649026    1.057124
      9          1           0       -2.269003   -0.606313   -0.519084
     10          1           0       -1.058703    1.801462   -0.627122
     11          1           0       -0.726248    1.518684    0.971147
 ---------------------------------------------------------------------

 SCF Done:  E(RB3LYP) =  -260.650512847     A.U. after    1 cycles

 The electronic state is 1-A.
 Alpha  occ. eigenvalues --  -14.40535 -14.37130 -14.36896 -14.28777 -10.23849
 Alpha  occ. eigenvalues --   -1.03539  -0.88718  -0.87474  -0.75110  -0.59086
 Alpha  occ. eigenvalues --   -0.54668  -0.53322  -0.49765  -0.49055  -0.40177
 Alpha  occ. eigenvalues --   -0.34207  -0.31908  -0.26822  -0.25015  -0.23269
 Alpha virt. eigenvalues --    0.02506   0.06211   0.09489   0.11679   0.14868
 Alpha virt. eigenvalues --    0.15718   0.16032   0.18836   0.25414   0.29969
 Alpha virt. eigenvalues --    0.38214   0.54709   0.58481   0.60413   0.62054

 Mulliken charges:
               1
     1  N   -0.528800
     2  C    0.308426
     3  N   -0.246594
     4  N   -0.437312
     5  N   -0.442773
     6  H    0.234043
     7  H    0.118451
     8  H    0.236824
     9  H    0.256577
    10  H    0.261497
    11  H    0.239659
 Sum of Mulliken charges =  -0.00000

 Dipole moment (field-independent basis, Debye):
    X=             -4.9532    Y=              1.8739    Z=              0.7820  Tot=              5.3532
 Quadrupole moment (field-independent basis, Debye-Ang):
   XX=            -32.4900   YY=            -29.5116   ZZ=            -28.7390
   XY=             -1.3371   XZ=             -0.8556   YZ=              0.2170

  Exact polarizability:  51.716   2.161  40.239   0.592   0.443  26.999
 Approx polarizability:  75.994   6.611  55.237   3.349   0.898  39.146

                      1                      2                      3
                      A                      A                      A
 Frequencies --    165.0570               280.4740               337.0044
 Red. masses --      2.6055                 1.7858                 2.9392
 Frc consts  --      0.0418                 0.0828                 0.1967
 IR Inten    --     16.6670                12.4608                 6.6237

                      4                      5                      6
                      A                      A                      A
 Frequencies --    372.3563               444.2791               469.3130
 Red. masses --      1.1746                 1.3883                 2.4944
 Frc consts  --      0.0960                 0.1615                 0.3237
 IR Inten    --      1.6832                41.0732                11.9255

                      7                      8                      9
                      A                      A                      A
 Frequencies --    634.7452               806.7651               851.5355
 Red. masses --      3.5794                 2.7015                 1.8561
 Frc consts  --      0.8497                 1.0360                 0.7930
 IR Inten    --     45.8286               123.4762               111.2856

                     10                     11                     12
                      A                      A                      A
 Frequencies --    878.5400               922.3915              1108.4492
 Red. masses --      2.0065                 1.7280                 1.0853
 Frc consts  --      0.9125                 0.8662                 0.7857
 IR Inten    --     29.0865                48.4344                57.1690

                     13                     14                     15
                      A                      A                      A
 Frequencies --   1155.4155              1248.9069              1278.2721
 Red. masses --      2.4725                 1.7609                 1.1770
 Frc consts  --      1.9448                 1.6183                 1.1331
 IR Inten    --     29.3271                96.3447                 1.6766

                     16                     17                     18
                      A                      A                      A
 Frequencies --   1313.4528              1344.4433              1412.9051
 Red. masses --      1.8211                 1.4969                 1.2728
 Frc consts  --      1.8510                 1.5941                 1.4971
 IR Inten    --     36.1056                45.9790                29.1416

                     19                     20                     21
                      A                      A                      A
 Frequencies --   1660.3341              1695.4094              1745.9753
 Red. masses --      1.1231                 1.4224                 2.7413
 Frc consts  --      1.8241                 2.4089                 4.9235
 IR Inten    --      4.2967                28.9844               170.9697

                     22                     23                     24
                      A                      A                      A
 Frequencies --   3168.9014              3401.7484              3414.8618
 Red. masses --      1.0911                 1.0532                 1.0540
 Frc consts  --      6.4557                 7.1809                 7.2413
 IR Inten    --     15.0972                24.2754                 5.5398

                     25                     26                     27
                      A                      A                      A
 Frequencies --   3440.5002              3546.4553              3561.3843
 Red. masses --      1.0714                 1.0877                 1.0893
 Frc consts  --      7.4723                 8.0604                 8.1400
 IR Inten    --      0.3853                 1.1961                 1.1413

 - Thermochemistry -
 -------------------
 Temperature   298.150 Kelvin.  Pressure   1.00000 Atm.
 Atom     1 has atomic number  7 and mass  14.00307

 Molecular mass:    74.05925 amu.
 Principal axes and moments of inertia in atomic units:
                           1         2         3
     Eigenvalues --   195.46901 422.68011 589.51617
           X            0.99998  -0.00216  -0.00622
           Y            0.00219   0.99999   0.00428
           Z            0.00621  -0.00430   0.99997
 This molecule is an asymmetric top.
 Rotational symmetry number  1.
 Rotational temperatures (Kelvin)      0.44311     0.20492     0.14692
 Rotational constants (GHZ):           9.23288     4.26976     3.06139
 Zero-point vibrational energy     243200.1 (Joules/Mol)
                                   58.12621 (Kcal/Mol)
 Warning -- explicit consideration of   6 degrees of freedom as
           vibrations may cause significant error
 Vibrational temperatures:    237.48   403.54   484.87   535.74   639.22
          (Kelvin)            675.24   913.26  1160.75  1225.17  1264.02
                             1327.11  1594.81  1662.38  1796.90  1839.15
                             1889.76  1934.35  2032.85  2388.85  2439.31
                             2512.07  4559.34  4894.35  4913.22  4950.11
                             5102.55  5124.03

 Zero-point correction=                           0.092630 (Hartree/Particle)
 Thermal correction to Energy=                    0.098250
 Thermal correction to Enthalpy=                  0.099194
 Thermal correction to Gibbs Free Energy=         0.064327
 Sum of electronic and zero-point Energies=           -260.557883
 Sum of electronic and thermal Energies=              -260.552263
 Sum of electronic and thermal Enthalpies=            -260.551319
 Sum of electronic and thermal Free Energies=         -260.586186

                     E (Thermal)             CV                S
                      KCal/Mol        Cal/Mol-Kelvin    Cal/Mol-Kelvin
 Total                   61.653             19.871             73.384
 Electronic               0.000              0.000              0.000
 Translational            0.889              2.981             38.823
 Rotational               0.889              2.981             25.391
 Vibrational             59.875             13.910              9.170
 Vibration     1          0.623              1.885              2.491
 Vibration     2          0.680              1.710              1.531
 Vibration     3          0.718              1.602              1.226
 Vibration     4          0.744              1.529              1.070
 Vibration     5          0.804              1.374              0.813
 Vibration     6          0.826              1.318              0.739

 Optimization completed.
    -- Stationary point found.
 Normal termination of Gaussian 09 at Thu Sep  8 15:05:30 2022.
