 Gaussian 09, Revision E.01,
 Gaussian 09:  ES64L-G09RevE.01 30-Nov-2015

 ----------------------------
 #P OPT Freq B3LYP/6-31G(d,p)
 ----------------------------

 --------
 Frag_886
 --------
 Symbolic Z-matrix:
 Charge =  0 Multiplicity = 1

 SCF Done:  E(RB3LYP) =  -384.122284426     A.U. after   13 cycles
 SCF Done:  E(RB3LYP) =  -384.122346545     A.U. after   10 cycles
 SCF Done:  E(RB3LYP) =  -384.122346621     A.U. after   10 cycles
 SCF Done:  E(RB3LYP) =  -384.122352322     A.U. after    9 cycles
 SCF Done:  E(RB3LYP) =  -384.122353548     A.U. after    7 cycles
 SCF Done:  E(RB3LYP) =  -384.122354573     A.U. after    8 cycles
 SCF Done:  E(RB3LYP) =  -384.122354916     A.U. after    7 cycles
 SCF Done:  E(RB3LYP) =  -384.122355203     A.U. after    7 cycles
 SCF Done:  E(RB3LYP) =  -384.122355334     A.U. after    7 cycles
 SCF Done:  E(RB3LYP) =  -384.122355392     A.U. after    6 cycles
 SCF Done:  E(RB3LYP) =  -384.122355424     A.U. after    6 cycles
 Optimization completed.
    -- Stationary point found.
 Normal termination of Gaussian 09 at Thu Sep  8 15:17:27 2022.

 ----------------------------------------------------------------------
 #P Geom=AllCheck Guess=TCheck SCRF=Check GenChk RB3LYP/6-31G(d,p) Freq
 ----------------------------------------------------------------------

 Structure from the checkpoint file:  "B3LYP6-31Gdp.Frag_886.chk"
 --------
 Frag_886
 --------
 Charge =  0 Multiplicity = 1

                         Standard orientation:
 ---------------------------------------------------------------------
 Center     Atomic      Atomic             Coordinates (Angstroms)
 Number     Number       Type             X           Y           Z
 ---------------------------------------------------------------------
      1          6           0       -1.416011   -1.131417   -0.635145
      2          6           0       -0.628607    0.005457    0.038254
      3          6           0       -1.284775    1.361832   -0.219118
      4          8           0       -0.610641   -0.176091    1.449375
      5          6           0        0.830151    0.002431   -0.486402
      6          8           0        1.620378    1.069581    0.005857
      7          8           0        1.425832   -1.179067   -0.009819
      8          1           0       -2.430735   -1.158401   -0.229014
      9          1           0       -0.938777   -2.095588   -0.440700
     10          1           0       -1.481263   -0.994767   -1.720758
     11          1           0       -2.312215    1.350134    0.153816
     12          1           0       -1.314089    1.597340   -1.289088
     13          1           0       -0.742940    2.147528    0.313457
     14          1           0        0.079222   -0.836785    1.617544
     15          1           0        0.823844    0.022717   -1.591921
     16          1           0        1.446227    1.853838   -0.529868
     17          1           0        2.381624   -1.031215   -0.032304
 ---------------------------------------------------------------------

 SCF Done:  E(RB3LYP) =  -384.122355424     A.U. after    1 cycles

 The electronic state is 1-A.
 Alpha  occ. eigenvalues --  -19.16349 -19.16044 -19.12485 -10.28783 -10.23570
 Alpha  occ. eigenvalues --  -10.17484 -10.16843  -1.07501  -1.00434  -0.99890
 Alpha  occ. eigenvalues --   -0.77743  -0.68855  -0.67126  -0.56354  -0.54771
 Alpha  occ. eigenvalues --   -0.52337  -0.49482  -0.44865  -0.41826  -0.40065
 Alpha  occ. eigenvalues --   -0.38578  -0.38037  -0.36868  -0.35335  -0.34786
 Alpha  occ. eigenvalues --   -0.33305  -0.31017  -0.27535  -0.24994
 Alpha virt. eigenvalues --    0.05982   0.08503   0.11060   0.13122   0.14007
 Alpha virt. eigenvalues --    0.15674   0.16695   0.17653   0.18876   0.20016
 Alpha virt. eigenvalues --    0.21380   0.23223   0.23880   0.26091   0.26652

 Mulliken charges:
               1
     1  C   -0.313416
     2  C    0.267258
     3  C   -0.327944
     4  O   -0.560864
     5  C    0.386142
     6  O   -0.546045
     7  O   -0.547861
     8  H    0.111247
     9  H    0.116888
    10  H    0.087664
    11  H    0.120964
    12  H    0.087919
    13  H    0.113283
    14  H    0.312332
    15  H    0.061326
    16  H    0.311740
    17  H    0.319367
 Sum of Mulliken charges =   0.00000

 Dipole moment (field-independent basis, Debye):
    X=              1.1294    Y=              0.6763    Z=             -2.4450  Tot=              2.7769
 Quadrupole moment (field-independent basis, Debye-Ang):
   XX=            -40.3299   YY=            -40.9385   ZZ=            -44.2777
   XY=             -0.6903   XZ=              0.1440   YZ=             -3.4136

  Exact polarizability:  56.516  -1.092  55.285   1.490  -1.683  49.926
 Approx polarizability:  73.206  -1.750  74.542   1.932  -3.198  73.285

                      1                      2                      3
                      A                      A                      A
 Frequencies --     97.5105               201.9302               222.8229
 Red. masses --      4.1610                 1.0886                 1.6579
 Frc consts  --      0.0233                 0.0262                 0.0485
 IR Inten    --      2.7105                72.2621                 6.5012

                      4                      5                      6
                      A                      A                      A
 Frequencies --    244.1873               258.0287               295.7481
 Red. masses --      1.2894                 1.6611                 1.8185
 Frc consts  --      0.0453                 0.0652                 0.0937
 IR Inten    --      1.1418                13.8054                 5.1595

                      7                      8                      9
                      A                      A                      A
 Frequencies --    319.1161               351.1650               373.9918
 Red. masses --      1.5547                 2.2254                 3.3579
 Frc consts  --      0.0933                 0.1617                 0.2767
 IR Inten    --    102.9142                12.2404                 5.3088

                     10                     11                     12
                      A                      A                      A
 Frequencies --    396.3880               422.5968               514.5412
 Red. masses --      2.2129                 1.2047                 3.6727
 Frc consts  --      0.2049                 0.1268                 0.5729
 IR Inten    --     22.4058               107.1907                 7.2238

                     13                     14                     15
                      A                      A                      A
 Frequencies --    542.8124               643.3309               816.0634
 Red. masses --      2.6784                 4.3866                 4.0184
 Frc consts  --      0.4650                 1.0697                 1.5767
 IR Inten    --     36.5236                 8.9753                35.7188

                     16                     17                     18
                      A                      A                      A
 Frequencies --    880.8851               937.2093               984.1388
 Red. masses --      2.0738                 1.4771                 2.1278
 Frc consts  --      0.9481                 0.7644                 1.2142
 IR Inten    --      2.4817                 1.9397                43.2462

                     19                     20                     21
                      A                      A                      A
 Frequencies --   1009.7306              1047.9207              1076.7407
 Red. masses --      1.3719                 2.6479                 3.0786
 Frc consts  --      0.8241                 1.7132                 2.1029
 IR Inten    --     12.2744                57.7799               126.7732

                     22                     23                     24
                      A                      A                      A
 Frequencies --   1168.5013              1206.2612              1220.4614
 Red. masses --      1.7371                 1.8978                 2.1553
 Frc consts  --      1.3974                 1.6270                 1.8915
 IR Inten    --     60.9484                76.5225                38.2416

                     25                     26                     27
                      A                      A                      A
 Frequencies --   1266.7246              1299.1826              1386.5333
 Red. masses --      1.4008                 1.6475                 1.2740
 Frc consts  --      1.3243                 1.6384                 1.4430
 IR Inten    --     54.2005                52.4322                68.3113

                     28                     29                     30
                      A                      A                      A
 Frequencies --   1406.5786              1422.1602              1431.4957
 Red. masses --      1.3356                 1.3120                 1.4916
 Frc consts  --      1.5568                 1.5634                 1.8008
 IR Inten    --     15.2093                26.1414                21.4911

                     31                     32                     33
                      A                      A                      A
 Frequencies --   1452.0371              1494.7004              1505.2853
 Red. masses --      1.4857                 1.0561                 1.0534
 Frc consts  --      1.8456                 1.3902                 1.4063
 IR Inten    --     33.0051                 1.3287                 2.7611

                     34                     35                     36
                      A                      A                      A
 Frequencies --   1515.2261              1529.9630              2944.2309
 Red. masses --      1.0889                 1.0672                 1.0838
 Frc consts  --      1.4729                 1.4718                 5.5353
 IR Inten    --      5.6450                 4.7265                81.7733

                     37                     38                     39
                      A                      A                      A
 Frequencies --   3043.4392              3050.3326              3117.4215
 Red. masses --      1.0377                 1.0377                 1.0988
 Frc consts  --      5.6631                 5.6887                 6.2916
 IR Inten    --     16.0746                22.7028                12.1335

                     40                     41                     42
                      A                      A                      A
 Frequencies --   3124.7821              3138.7506              3140.9207
 Red. masses --      1.0993                 1.1037                 1.1028
 Frc consts  --      6.3244                 6.4065                 6.4101
 IR Inten    --     35.6554                13.0203                25.8045

                     43                     44                     45
                      A                      A                      A
 Frequencies --   3763.1063              3810.9880              3834.7425
 Red. masses --      1.0650                 1.0656                 1.0660
 Frc consts  --      8.8858                 9.1187                 9.2358
 IR Inten    --     43.3323                42.7287                23.0018

 - Thermochemistry -
 -------------------
 Temperature   298.150 Kelvin.  Pressure   1.00000 Atm.
 Atom     1 has atomic number  6 and mass  12.00000

 Molecular mass:   106.06299 amu.
 Principal axes and moments of inertia in atomic units:
                           1         2         3
     Eigenvalues --   542.42830 766.60685 936.39450
           X            0.99967  -0.00600   0.02479
           Y            0.00634   0.99989  -0.01372
           Z           -0.02471   0.01388   0.99960
 This molecule is an asymmetric top.
 Rotational symmetry number  1.
 Warning -- assumption of classical behavior for rotation
           may cause significant error
 Rotational temperatures (Kelvin)      0.15968     0.11298     0.09250
 Rotational constants (GHZ):           3.32715     2.35419     1.92733
 Zero-point vibrational energy     382270.8 (Joules/Mol)
                                   91.36491 (Kcal/Mol)
 Warning -- explicit consideration of  13 degrees of freedom as
           vibrations may cause significant error
 Vibrational temperatures:    140.30   290.53   320.59   351.33   371.25
          (Kelvin)            425.51   459.14   505.25   538.09   570.31
                              608.02   740.31   780.98   925.61  1174.13
                             1267.40  1348.43  1415.95  1452.78  1507.72
                             1549.19  1681.21  1735.54  1755.97  1822.53
                             1869.23  1994.91  2023.75  2046.17  2059.60
                             2089.15  2150.54  2165.77  2180.07  2201.27
                             4236.09  4378.82  4388.74  4485.27  4495.86
                             4515.96  4519.08  5414.26  5483.15  5517.33

 Zero-point correction=                           0.145599 (Hartree/Particle)
 Thermal correction to Energy=                    0.154328
 Thermal correction to Enthalpy=                  0.155273
 Thermal correction to Gibbs Free Energy=         0.113524
 Sum of electronic and zero-point Energies=           -383.976756
 Sum of electronic and thermal Energies=              -383.968027
 Sum of electronic and thermal Enthalpies=            -383.967083
 Sum of electronic and thermal Free Energies=         -384.008831

                     E (Thermal)             CV                S
                      KCal/Mol        Cal/Mol-Kelvin    Cal/Mol-Kelvin
 Total                   96.843             32.418             87.867
 Electronic               0.000              0.000              0.000
 Translational            0.889              2.981             39.894
 Rotational               0.889              2.981             27.456
 Vibrational             95.065             26.457             20.517
 Vibration     1          0.603              1.951              3.503
 Vibration     2          0.639              1.837              2.115
 Vibration     3          0.649              1.806              1.936
 Vibration     4          0.660              1.772              1.772
 Vibration     5          0.667              1.749              1.675
 Vibration     6          0.690              1.682              1.441
 Vibration     7          0.705              1.637              1.315
 Vibration     8          0.728              1.573              1.161
 Vibration     9          0.745              1.525              1.063
 Vibration    10          0.763              1.478              0.976
 Vibration    11          0.785              1.421              0.883
 Vibration    12          0.870              1.218              0.623
 Vibration    13          0.898              1.155              0.559

 Optimization completed.
    -- Stationary point found.
 Normal termination of Gaussian 09 at Thu Sep  8 15:17:43 2022.
