 Gaussian 09, Revision E.01,
 Gaussian 09:  ES64L-G09RevE.01 30-Nov-2015

 ----------------------------
 #P OPT Freq B3LYP/6-31G(d,p)
 ----------------------------

 --------
 Frag_776
 --------
 Symbolic Z-matrix:
 Charge =  0 Multiplicity = 1

 SCF Done:  E(RB3LYP) =  -226.358142490     A.U. after   13 cycles
 SCF Done:  E(RB3LYP) =  -226.358196754     A.U. after   10 cycles
 SCF Done:  E(RB3LYP) =  -226.358206625     A.U. after    9 cycles
 SCF Done:  E(RB3LYP) =  -226.358208090     A.U. after    8 cycles
 Optimization completed.
    -- Stationary point found.
 Normal termination of Gaussian 09 at Thu Sep  8 15:17:58 2022.

 ----------------------------------------------------------------------
 #P Geom=AllCheck Guess=TCheck SCRF=Check GenChk RB3LYP/6-31G(d,p) Freq
 ----------------------------------------------------------------------

 Structure from the checkpoint file:  "B3LYP6-31Gdp.Frag_776.chk"
 --------
 Frag_776
 --------
 Charge =  0 Multiplicity = 1

                         Standard orientation:
 ---------------------------------------------------------------------
 Center     Atomic      Atomic             Coordinates (Angstroms)
 Number     Number       Type             X           Y           Z
 ---------------------------------------------------------------------
      1          6           0       -1.263240   -0.453774    0.054698
      2          7           0        0.037883    0.009795   -0.423397
      3          7           0        1.118610   -0.754416    0.096381
      4          8           0        0.155506    1.323813    0.166624
      5          1           0       -1.428293   -1.464513   -0.327328
      6          1           0       -1.315893   -0.463652    1.156005
      7          1           0       -2.039956    0.208415   -0.332369
      8          1           0        0.901358   -1.116779    1.031285
      9          1           0        1.259085   -1.537473   -0.536232
     10          1           0        0.863643    1.718487   -0.363426
 ---------------------------------------------------------------------

 SCF Done:  E(RB3LYP) =  -226.358208090     A.U. after    1 cycles

 The electronic state is 1-A.
 Alpha  occ. eigenvalues --  -19.15849 -14.39994 -14.34441 -10.20652  -1.06130
 Alpha  occ. eigenvalues --   -0.91432  -0.77222  -0.63886  -0.52811  -0.49508
 Alpha  occ. eigenvalues --   -0.46429  -0.43029  -0.39380  -0.38595  -0.30455
 Alpha  occ. eigenvalues --   -0.26053  -0.22292
 Alpha virt. eigenvalues --    0.07471   0.10024   0.12718   0.14448   0.15740
 Alpha virt. eigenvalues --    0.16347   0.17557   0.19458   0.25445   0.54298
 Alpha virt. eigenvalues --    0.56006   0.58139   0.65887   0.69557   0.70265

 Mulliken charges:
               1
     1  C   -0.139220
     2  N   -0.144457
     3  N   -0.424356
     4  O   -0.425609
     5  H    0.106804
     6  H    0.095289
     7  H    0.129948
     8  H    0.225530
     9  H    0.255481
    10  H    0.320590
 Sum of Mulliken charges =  -0.00000

 Dipole moment (field-independent basis, Debye):
    X=             -0.2872    Y=             -1.6577    Z=             -0.1135  Tot=              1.6862
 Quadrupole moment (field-independent basis, Debye-Ang):
   XX=            -24.6944   YY=            -21.1791   ZZ=            -25.2261
   XY=              0.9558   XZ=             -0.7880   YZ=             -1.6154

  Exact polarizability:  32.554  -1.016  35.549  -0.542  -0.847  26.874
 Approx polarizability:  40.851  -2.361  48.397  -1.045  -0.324  38.380

                      1                      2                      3
                      A                      A                      A
 Frequencies --    275.5193               285.8735               298.0517
 Red. masses --      1.0926                 1.0964                 1.1213
 Frc consts  --      0.0489                 0.0528                 0.0587
 IR Inten    --    100.3866                13.8942                55.8942

                      4                      5                      6
                      A                      A                      A
 Frequencies --    435.5349               470.5776               557.8123
 Red. masses --      2.4299                 2.6857                 3.5305
 Frc consts  --      0.2716                 0.3504                 0.6472
 IR Inten    --      3.3483                14.1304                 4.7080

                      7                      8                      9
                      A                      A                      A
 Frequencies --    820.0984               844.4814              1017.4514
 Red. masses --      3.2643                 3.8911                 1.5526
 Frc consts  --      1.2935                 1.6349                 0.9469
 IR Inten    --     91.9271                41.2472                68.1878

                     10                     11                     12
                      A                      A                      A
 Frequencies --   1103.7034              1145.0297              1214.7017
 Red. masses --      3.5040                 1.3183                 1.9044
 Frc consts  --      2.5149                 1.0183                 1.6556
 IR Inten    --     11.0013                 5.0135                18.3261

                     13                     14                     15
                      A                      A                      A
 Frequencies --   1329.1176              1404.9255              1448.6522
 Red. masses --      1.2557                 1.3031                 1.1993
 Frc consts  --      1.3070                 1.5154                 1.4829
 IR Inten    --      7.7820                43.9893                 1.0592

                     16                     17                     18
                      A                      A                      A
 Frequencies --   1489.9931              1511.3179              1652.4399
 Red. masses --      1.0478                 1.0472                 1.0900
 Frc consts  --      1.3705                 1.4092                 1.7536
 IR Inten    --      3.8689                 4.7769                15.5247

                     19                     20                     21
                      A                      A                      A
 Frequencies --   2986.3984              3105.9322              3152.7808
 Red. masses --      1.0521                 1.0815                 1.1046
 Frc consts  --      5.5282                 6.1471                 6.4688
 IR Inten    --     49.0202                27.4440                17.9978

                     22                     23                     24
                      A                      A                      A
 Frequencies --   3374.8816              3566.1468              3790.5580
 Red. masses --      1.0550                 1.0861                 1.0673
 Frc consts  --      7.0799                 8.1381                 9.0349
 IR Inten    --     18.6085                 1.6229                29.5649

 - Thermochemistry -
 -------------------
 Temperature   298.150 Kelvin.  Pressure   1.00000 Atm.
 Atom     1 has atomic number  6 and mass  12.00000

 Molecular mass:    62.04801 amu.
 Principal axes and moments of inertia in atomic units:
                           1         2         3
     Eigenvalues --   189.25024 196.09223 341.48571
           X            0.83703   0.54704  -0.01125
           Y           -0.54713   0.83662  -0.02676
           Z           -0.00522   0.02855   0.99958
 This molecule is an asymmetric top.
 Rotational symmetry number  1.
 Rotational temperatures (Kelvin)      0.45767     0.44170     0.25364
 Rotational constants (GHZ):           9.53627     9.20353     5.28497
 Zero-point vibrational energy     222995.8 (Joules/Mol)
                                   53.29726 (Kcal/Mol)
 Warning -- explicit consideration of   6 degrees of freedom as
           vibrations may cause significant error
 Vibrational temperatures:    396.41   411.31   428.83   626.64   677.06
          (Kelvin)            802.57  1179.94  1215.02  1463.88  1587.98
                             1647.44  1747.68  1912.30  2021.37  2084.28
                             2143.77  2174.45  2377.49  4296.76  4468.74
                             4536.14  4855.70  5130.88  5453.76

 Zero-point correction=                           0.084935 (Hartree/Particle)
 Thermal correction to Energy=                    0.090058
 Thermal correction to Enthalpy=                  0.091002
 Thermal correction to Gibbs Free Energy=         0.057918
 Sum of electronic and zero-point Energies=           -226.273273
 Sum of electronic and thermal Energies=              -226.268150
 Sum of electronic and thermal Enthalpies=            -226.267206
 Sum of electronic and thermal Free Energies=         -226.300290

                     E (Thermal)             CV                S
                      KCal/Mol        Cal/Mol-Kelvin    Cal/Mol-Kelvin
 Total                   56.512             17.683             69.632
 Electronic               0.000              0.000              0.000
 Translational            0.889              2.981             38.295
 Rotational               0.889              2.981             24.053
 Vibrational             54.735             11.721              7.283
 Vibration     1          0.677              1.719              1.561
 Vibration     2          0.684              1.700              1.498
 Vibration     3          0.691              1.677              1.428
 Vibration     4          0.796              1.393              0.841
 Vibration     5          0.828              1.315              0.736
 Vibration     6          0.913              1.123              0.528

 Optimization completed.
    -- Stationary point found.
 Normal termination of Gaussian 09 at Thu Sep  8 15:18:05 2022.
