 Gaussian 09, Revision E.01,
 Gaussian 09:  ES64L-G09RevE.01 30-Nov-2015

 --------------------------------
 #P OPT=calcfc Freq B3LYP/6-31G**
 --------------------------------

 --------
 Frag_308
 --------
 Symbolic Z-matrix:
 Charge =  0 Multiplicity = 1

 SCF Done:  E(RB3LYP) =  -244.665753868     A.U. after   13 cycles
 SCF Done:  E(RB3LYP) =  -244.684653085     A.U. after   14 cycles
 SCF Done:  E(RB3LYP) =  -244.686392740     A.U. after   13 cycles
 SCF Done:  E(RB3LYP) =  -244.685415040     A.U. after   12 cycles
 SCF Done:  E(RB3LYP) =  -244.686622983     A.U. after   11 cycles
 SCF Done:  E(RB3LYP) =  -244.686958846     A.U. after   13 cycles
 SCF Done:  E(RB3LYP) =  -244.664468450     A.U. after   13 cycles
 SCF Done:  E(RB3LYP) =  -244.687579264     A.U. after   11 cycles
 SCF Done:  E(RB3LYP) =  -244.688525998     A.U. after   12 cycles
 SCF Done:  E(RB3LYP) =  -244.688575717     A.U. after   11 cycles
 SCF Done:  E(RB3LYP) =  -244.688643478     A.U. after   11 cycles
 SCF Done:  E(RB3LYP) =  -244.688640259     A.U. after   11 cycles
 SCF Done:  E(RB3LYP) =  -244.688679396     A.U. after   10 cycles
 SCF Done:  E(RB3LYP) =  -244.688680744     A.U. after    9 cycles
 SCF Done:  E(RB3LYP) =  -244.688680914     A.U. after    7 cycles
 Optimization completed.
    -- Stationary point found.
 Normal termination of Gaussian 09 at Fri Sep 10 20:59:43 2021.

 ----------------------------------------------------------------------
 #P Geom=AllCheck Guess=TCheck SCRF=Check GenChk RB3LYP/6-31G(d,p) Freq
 ----------------------------------------------------------------------

 Structure from the checkpoint file:  "/public/home/users/caep010/.cache/gau_scr/Gau-11564.chk"
 --------
 Frag_308
 --------
 Charge =  0 Multiplicity = 1

                         Standard orientation:
 ---------------------------------------------------------------------
 Center     Atomic      Atomic             Coordinates (Angstroms)
 Number     Number       Type             X           Y           Z
 ---------------------------------------------------------------------
      1          6           0       -1.921458   -0.114902   -0.011805
      2          7           0       -0.631328   -0.775671    0.028868
      3          6           0        0.427175   -0.055528    0.007053
      4          7           0        0.516201    1.335071    0.079524
      5          7           0        1.683760   -0.664467   -0.098563
      6          1           0       -2.198727    0.319111    0.961464
      7          1           0       -1.989280    0.694181   -0.761747
      8          1           0       -2.693489   -0.846946   -0.266532
      9          1           0        1.270677    1.732841   -0.465045
     10          1           0       -0.357073    1.824724   -0.054694
     11          1           0        1.587459   -1.668945   -0.009772
     12          1           0        2.365710   -0.296922    0.556036
 ---------------------------------------------------------------------

 SCF Done:  E(RB3LYP) =  -244.688680914     A.U. after    1 cycles

 The electronic state is 1-A.
 Alpha  occ. eigenvalues --  -14.34473 -14.33194 -14.28248 -10.27027 -10.19375
 Alpha  occ. eigenvalues --   -0.96534  -0.86431  -0.85082  -0.67794  -0.57862
 Alpha  occ. eigenvalues --   -0.52326  -0.51511  -0.44837  -0.43064  -0.42307
 Alpha  occ. eigenvalues --   -0.38915  -0.35814  -0.26686  -0.23565  -0.21651
 Alpha virt. eigenvalues --    0.05454   0.07147   0.10748   0.13544   0.15325
 Alpha virt. eigenvalues --    0.16557   0.18022   0.20740   0.21874   0.27634
 Alpha virt. eigenvalues --    0.33764   0.44549   0.55602   0.56340   0.59233

 Mulliken charges:
               1
     1  C   -0.189043
     2  N   -0.468058
     3  C    0.572452
     4  N   -0.629805
     5  N   -0.624613
     6  H    0.101297
     7  H    0.072418
     8  H    0.111517
     9  H    0.264586
    10  H    0.264849
    11  H    0.268657
    12  H    0.255742
 Sum of Mulliken charges =  -0.00000

 Dipole moment (field-independent basis, Debye):
    X=              1.0801    Y=              2.0280    Z=              0.0728  Tot=              2.2988
 Quadrupole moment (field-independent basis, Debye-Ang):
   XX=            -26.5469   YY=            -28.6353   ZZ=            -32.5491
   XY=             -1.9320   XZ=              1.7713   YZ=             -2.3280

  Exact polarizability:  58.996   2.196  43.286   0.221  -0.229  26.572
 Approx polarizability:  79.940   8.386  63.688  -0.503   0.533  37.024

                      1                      2                      3
                      A                      A                      A
 Frequencies --    113.9951               230.6526               304.5056
 Red. masses --      1.1145                 2.5171                 2.4712
 Frc consts  --      0.0085                 0.0789                 0.1350
 IR Inten    --      2.0270                 9.0567                 3.5655

                      4                      5                      6
                      A                      A                      A
 Frequencies --    387.4111               411.6746               467.7107
 Red. masses --      1.0807                 1.2316                 2.3534
 Frc consts  --      0.0956                 0.1230                 0.3033
 IR Inten    --     51.8979                 7.9021                 2.3877

                      7                      8                      9
                      A                      A                      A
 Frequencies --    572.6314               595.7493               695.0219
 Red. masses --      1.6680                 2.3103                 1.9978
 Frc consts  --      0.3222                 0.4831                 0.5686
 IR Inten    --    156.1954                78.7635               138.0917

                     10                     11                     12
                      A                      A                      A
 Frequencies --    800.7455               890.3420              1047.3906
 Red. masses --      1.9517                 3.9634                 2.7903
 Frc consts  --      0.7373                 1.8511                 1.8035
 IR Inten    --    249.6920                 6.0675                21.9008

                     13                     14                     15
                      A                      A                      A
 Frequencies --   1103.8021              1117.2818              1147.6802
 Red. masses --      1.3778                 1.3389                 1.3998
 Frc consts  --      0.9891                 0.9847                 1.0863
 IR Inten    --     12.6207                 1.5073                 1.6267

                     16                     17                     18
                      A                      A                      A
 Frequencies --   1261.5257              1416.0760              1455.3290
 Red. masses --      1.9510                 3.2475                 1.2124
 Frc consts  --      1.8293                 3.8369                 1.5129
 IR Inten    --      3.9131                90.4738                54.3230

                     19                     20                     21
                      A                      A                      A
 Frequencies --   1504.8360              1523.0629              1633.3983
 Red. masses --      1.0559                 1.0490                 1.1900
 Frc consts  --      1.4088                 1.4337                 1.8707
 IR Inten    --      1.9199                 2.9489                41.5196

                     22                     23                     24
                      A                      A                      A
 Frequencies --   1649.8779              1770.2223              2945.4856
 Red. masses --      1.1889                 5.3901                 1.0528
 Frc consts  --      1.9068                 9.9519                 5.3818
 IR Inten    --    106.9397               365.1653                86.0292

                     25                     26                     27
                      A                      A                      A
 Frequencies --   3012.1266              3097.4640              3538.2801
 Red. masses --      1.0896                 1.0923                 1.0486
 Frc consts  --      5.8247                 6.1748                 7.7347
 IR Inten    --     67.2913                40.3598                 8.7914

                     28                     29                     30
                      A                      A                      A
 Frequencies --   3568.7221              3650.9898              3680.7914
 Red. masses --      1.0480                 1.0958                 1.0978
 Frc consts  --      7.8636                 8.6057                 8.7633
 IR Inten    --      9.5740                15.6531                16.3525

 - Thermochemistry -
 -------------------
 Temperature   298.150 Kelvin.  Pressure   1.00000 Atm.
 Atom     1 has atomic number  6 and mass  12.00000

 Molecular mass:    73.06400 amu.
 Principal axes and moments of inertia in atomic units:
                           1         2         3
     Eigenvalues --   187.93054 442.56927 613.85841
           X            0.99971  -0.02272   0.00737
           Y            0.02287   0.99950  -0.02200
           Z           -0.00686   0.02216   0.99973
 This molecule is an asymmetric top.
 Rotational symmetry number  1.
 Rotational temperatures (Kelvin)      0.46088     0.19571     0.14110
 Rotational constants (GHZ):           9.60324     4.07787     2.94000
 Zero-point vibrational energy     272717.4 (Joules/Mol)
                                   65.18101 (Kcal/Mol)
 Warning -- explicit consideration of   8 degrees of freedom as
           vibrations may cause significant error
 Vibrational temperatures:    164.01   331.86   438.12   557.40   592.31
          (Kelvin)            672.93   823.89   857.15   999.98  1152.09
                             1281.00  1506.96  1588.12  1607.52  1651.25
                             1815.05  2037.41  2093.89  2165.12  2191.35
                             2350.09  2373.80  2546.95  4237.89  4333.77
                             4456.55  5090.79  5134.59  5252.95  5295.83

 Zero-point correction=                           0.103873 (Hartree/Particle)
 Thermal correction to Energy=                    0.109939
 Thermal correction to Enthalpy=                  0.110884
 Thermal correction to Gibbs Free Energy=         0.075092
 Sum of electronic and zero-point Energies=           -244.584808
 Sum of electronic and thermal Energies=              -244.578741
 Sum of electronic and thermal Enthalpies=            -244.577797
 Sum of electronic and thermal Free Energies=         -244.613589

                     E (Thermal)             CV                S
                      KCal/Mol        Cal/Mol-Kelvin    Cal/Mol-Kelvin
 Total                   68.988             21.485             75.331
 Electronic               0.000              0.000              0.000
 Translational            0.889              2.981             38.783
 Rotational               0.889              2.981             25.438
 Vibrational             67.211             15.524             11.110
 Vibration     1          0.607              1.938              3.200
 Vibration     2          0.652              1.794              1.874
 Vibration     3          0.695              1.665              1.392
 Vibration     4          0.756              1.497              1.010
 Vibration     5          0.776              1.445              0.921
 Vibration     6          0.825              1.322              0.744
 Vibration     7          0.929              1.090              0.499
 Vibration     8          0.954              1.041              0.457

 Optimization completed.
    -- Stationary point found.
 Normal termination of Gaussian 09 at Fri Sep 10 20:59:51 2021.
