 Gaussian 09, Revision E.01,
 Gaussian 09:  ES64L-G09RevE.01 30-Nov-2015

 ----------------------------
 #P OPT Freq B3LYP/6-31G(d,p)
 ----------------------------

 --------
 Frag_502
 --------
 Symbolic Z-matrix:
 Charge =  0 Multiplicity = 1

 SCF Done:  E(RB3LYP) =  -269.115585247     A.U. after   12 cycles
 SCF Done:  E(RB3LYP) =  -269.115610577     A.U. after    8 cycles
 SCF Done:  E(RB3LYP) =  -269.115614955     A.U. after    7 cycles
 SCF Done:  E(RB3LYP) =  -269.115615886     A.U. after    7 cycles
 Optimization completed.
    -- Stationary point found.
 Normal termination of Gaussian 09 at Thu Sep  8 15:20:54 2022.

 ----------------------------------------------------------------------
 #P Geom=AllCheck Guess=TCheck SCRF=Check GenChk RB3LYP/6-31G(d,p) Freq
 ----------------------------------------------------------------------

 Structure from the checkpoint file:  "B3LYP6-31Gdp.Frag_502.chk"
 --------
 Frag_502
 --------
 Charge =  0 Multiplicity = 1

                         Standard orientation:
 ---------------------------------------------------------------------
 Center     Atomic      Atomic             Coordinates (Angstroms)
 Number     Number       Type             X           Y           Z
 ---------------------------------------------------------------------
      1          6           0        1.655705   -0.689151   -0.699104
      2          7           0        0.652381    0.295720   -0.325302
      3          6           0        1.012817    1.032903    0.884945
      4          7           0       -0.652381   -0.295720   -0.325302
      5          6           0       -1.655705    0.689151   -0.699104
      6          6           0       -1.012817   -1.032903    0.884945
      7          1           0        1.826418   -1.471384    0.064368
      8          1           0        1.345361   -1.174249   -1.626393
      9          1           0        2.610198   -0.178413   -0.865686
     10          1           0        1.186604    0.395679    1.770033
     11          1           0        1.933035    1.592658    0.690708
     12          1           0        0.229772    1.756268    1.129037
     13          1           0       -1.345361    1.174249   -1.626393
     14          1           0       -1.826418    1.471384    0.064368
     15          1           0       -2.610198    0.178413   -0.865686
     16          1           0       -1.933035   -1.592658    0.690708
     17          1           0       -1.186604   -0.395679    1.770033
     18          1           0       -0.229772   -1.756268    1.129038
 ---------------------------------------------------------------------

 SCF Done:  E(RB3LYP) =  -269.115615886     A.U. after    1 cycles

 The electronic state is 1-A.
 Alpha  occ. eigenvalues --  -14.34152 -14.34139 -10.19823 -10.19822 -10.19394
 Alpha  occ. eigenvalues --  -10.19394  -0.97047  -0.82733  -0.70223  -0.69974
 Alpha  occ. eigenvalues --   -0.65425  -0.56288  -0.49034  -0.46481  -0.46341
 Alpha  occ. eigenvalues --   -0.42454  -0.41871  -0.40502  -0.38456  -0.37641
 Alpha  occ. eigenvalues --   -0.36138  -0.35993  -0.35626  -0.21594  -0.20781
 Alpha virt. eigenvalues --    0.08024   0.11817   0.13578   0.13996   0.14403
 Alpha virt. eigenvalues --    0.14883   0.17458   0.17557   0.18224   0.18693
 Alpha virt. eigenvalues --    0.19493   0.20018   0.21870   0.22340   0.26178

 Mulliken charges:
               1
     1  C   -0.137283
     2  N   -0.294601
     3  C   -0.163488
     4  N   -0.294601
     5  C   -0.137283
     6  C   -0.163488
     7  H    0.073279
     8  H    0.119510
     9  H    0.100695
    10  H    0.082065
    11  H    0.110085
    12  H    0.109738
    13  H    0.119510
    14  H    0.073279
    15  H    0.100695
    16  H    0.110085
    17  H    0.082065
    18  H    0.109738
 Sum of Mulliken charges =  -0.00000

 Dipole moment (field-independent basis, Debye):
    X=             -0.0000    Y=              0.0000    Z=              0.9919  Tot=              0.9919
 Quadrupole moment (field-independent basis, Debye-Ang):
   XX=            -37.3207   YY=            -39.6005   ZZ=            -40.4360
   XY=             -0.2031   XZ=              0.0000   YZ=              0.0000

  Exact polarizability:  66.985   0.198  56.639   0.000  -0.000  55.270
 Approx polarizability:  85.318   0.672  77.353   0.000  -0.000  76.927

                      1                      2                      3
                      A                      A                      A
 Frequencies --    127.3299               235.6842               240.5037
 Red. masses --      2.4199                 1.1054                 1.0769
 Frc consts  --      0.0231                 0.0362                 0.0367
 IR Inten    --      0.1483                 0.3246                 0.8691

                      4                      5                      6
                      A                      A                      A
 Frequencies --    255.4778               268.3126               285.8088
 Red. masses --      1.0545                 1.1129                 2.1635
 Frc consts  --      0.0406                 0.0472                 0.1041
 IR Inten    --      0.8230                 0.5782                 2.4754

                      7                      8                      9
                      A                      A                      A
 Frequencies --    294.8148               358.7438               440.4353
 Red. masses --      2.1798                 2.1765                 2.1047
 Frc consts  --      0.1116                 0.1650                 0.2405
 IR Inten    --      2.7973                 0.7363                 1.5310

                     10                     11                     12
                      A                      A                      A
 Frequencies --    505.9874               508.4451               735.3120
 Red. masses --      3.0841                 2.9024                 4.0414
 Frc consts  --      0.4652                 0.4421                 1.2874
 IR Inten    --      8.9297                11.6445                12.1921

                     13                     14                     15
                      A                      A                      A
 Frequencies --    912.7976              1019.6973              1038.9647
 Red. masses --      3.3816                 2.4658                 1.5940
 Frc consts  --      1.6601                 1.5106                 1.0138
 IR Inten    --     27.9796                 4.6867                 5.3588

                     16                     17                     18
                      A                      A                      A
 Frequencies --   1045.2090              1115.4128              1124.7270
 Red. masses --      1.5806                 1.2425                 1.2312
 Frc consts  --      1.0174                 0.9108                 0.9176
 IR Inten    --     15.2060                 8.4632                 2.7947

                     19                     20                     21
                      A                      A                      A
 Frequencies --   1173.8554              1191.1748              1236.7856
 Red. masses --      1.4555                 1.5291                 2.3031
 Frc consts  --      1.1817                 1.2783                 2.0756
 IR Inten    --      6.1938                 8.9900                 2.9869

                     22                     23                     24
                      A                      A                      A
 Frequencies --   1261.2855              1266.2847              1300.6634
 Red. masses --      2.9440                 2.3636                 2.7749
 Frc consts  --      2.7594                 2.2330                 2.7659
 IR Inten    --      2.3531                 6.8324                 1.3910

                     25                     26                     27
                      A                      A                      A
 Frequencies --   1441.2436              1442.9317              1462.3489
 Red. masses --      1.1620                 1.1541                 1.1859
 Frc consts  --      1.4221                 1.4157                 1.4942
 IR Inten    --      0.0169                 0.1522                 1.0434

                     28                     29                     30
                      A                      A                      A
 Frequencies --   1469.1930              1492.4178              1494.0694
 Red. masses --      1.1308                 1.0617                 1.0484
 Frc consts  --      1.4381                 1.3932                 1.3788
 IR Inten    --      2.7988                14.5216                 4.2880

                     31                     32                     33
                      A                      A                      A
 Frequencies --   1506.3142              1513.0909              1514.7319
 Red. masses --      1.0494                 1.0908                 1.0594
 Frc consts  --      1.4029                 1.4714                 1.4321
 IR Inten    --      0.8305                 9.4512                18.3652

                     34                     35                     36
                      A                      A                      A
 Frequencies --   1521.2012              1527.5737              1531.3165
 Red. masses --      1.0514                 1.0433                 1.0565
 Frc consts  --      1.4335                 1.4344                 1.4596
 IR Inten    --      3.0081                 3.8417                 0.0241

                     37                     38                     39
                      A                      A                      A
 Frequencies --   2940.0713              2940.6480              2955.7180
 Red. masses --      1.0606                 1.0603                 1.0571
 Frc consts  --      5.4017                 5.4024                 5.4412
 IR Inten    --    133.5516                 3.2286                28.8027

                     40                     41                     42
                      A                      A                      A
 Frequencies --   2969.5970              3073.7523              3074.5784
 Red. masses --      1.0586                 1.0746                 1.0755
 Frc consts  --      5.5002                 5.9820                 5.9900
 IR Inten    --    142.7452                35.0776                20.2975

                     43                     44                     45
                      A                      A                      A
 Frequencies --   3080.8997              3080.9956              3124.6350
 Red. masses --      1.0753                 1.0744                 1.1029
 Frc consts  --      6.0139                 6.0090                 6.3445
 IR Inten    --     81.6948                 6.8164                 3.7294

                     46                     47                     48
                      A                      A                      A
 Frequencies --   3125.1687              3142.8840              3143.2068
 Red. masses --      1.1025                 1.1008                 1.1004
 Frc consts  --      6.3440                 6.4065                 6.4053
 IR Inten    --     48.3188                19.6829                22.5068

 - Thermochemistry -
 -------------------
 Temperature   298.150 Kelvin.  Pressure   1.00000 Atm.
 Atom     1 has atomic number  6 and mass  12.00000

 Molecular mass:    88.10005 amu.
 Principal axes and moments of inertia in atomic units:
                           1         2         3
     Eigenvalues --   387.10334 668.03189 697.13675
           X            0.99981  -0.01972   0.00000
           Y            0.01972   0.99981  -0.00000
           Z           -0.00000   0.00000   1.00000
 This molecule is an asymmetric top.
 Rotational symmetry number  1.
 Rotational temperatures (Kelvin)      0.22375     0.12966     0.12424
 Rotational constants (GHZ):           4.66217     2.70158     2.58879
 Zero-point vibrational energy     433719.9 (Joules/Mol)
                                  103.66154 (Kcal/Mol)
 Warning -- explicit consideration of  11 degrees of freedom as
           vibrations may cause significant error
 Vibrational temperatures:    183.20   339.10   346.03   367.58   386.04
          (Kelvin)            411.21   424.17   516.15   633.69   728.00
                              731.54  1057.95  1313.31  1467.12  1494.84
                             1503.82  1604.83  1618.23  1688.91  1713.83
                             1779.46  1814.71  1821.90  1871.36  2073.63
                             2076.05  2103.99  2113.84  2147.25  2149.63
                             2167.25  2177.00  2179.36  2188.67  2197.84
                             2203.22  4230.10  4230.93  4252.61  4272.58
                             4422.44  4423.63  4432.72  4432.86  4495.65
                             4496.42  4521.90  4522.37

 Zero-point correction=                           0.165195 (Hartree/Particle)
 Thermal correction to Energy=                    0.173027
 Thermal correction to Enthalpy=                  0.173971
 Thermal correction to Gibbs Free Energy=         0.134416
 Sum of electronic and zero-point Energies=           -268.950421
 Sum of electronic and thermal Energies=              -268.942589
 Sum of electronic and thermal Enthalpies=            -268.941645
 Sum of electronic and thermal Free Energies=         -268.981200

                     E (Thermal)             CV                S
                      KCal/Mol        Cal/Mol-Kelvin    Cal/Mol-Kelvin
 Total                  108.576             28.548             83.251
 Electronic               0.000              0.000              0.000
 Translational            0.889              2.981             39.340
 Rotational               0.889              2.981             26.691
 Vibrational            106.799             22.586             17.219
 Vibration     1          0.611              1.926              2.986
 Vibration     2          0.655              1.786              1.835
 Vibration     3          0.658              1.778              1.799
 Vibration     4          0.666              1.754              1.692
 Vibration     5          0.673              1.731              1.607
 Vibration     6          0.684              1.700              1.499
 Vibration     7          0.689              1.683              1.446
 Vibration     8          0.734              1.557              1.128
 Vibration     9          0.800              1.382              0.825
 Vibration    10          0.861              1.237              0.643
 Vibration    11          0.864              1.231              0.637

 Optimization completed.
    -- Stationary point found.
 Normal termination of Gaussian 09 at Thu Sep  8 15:21:09 2022.
