 Gaussian 09, Revision E.01,
 Gaussian 09:  ES64L-G09RevE.01 30-Nov-2015

 ----------------------------
 #P OPT Freq B3LYP/6-31G(d,p)
 ----------------------------

 --------
 Frag_636
 --------
 Symbolic Z-matrix:
 Charge =  0 Multiplicity = 1

 SCF Done:  E(RB3LYP) =  -338.550710992     A.U. after   14 cycles
 SCF Done:  E(RB3LYP) =  -338.550820324     A.U. after   11 cycles
 SCF Done:  E(RB3LYP) =  -338.550835440     A.U. after   11 cycles
 SCF Done:  E(RB3LYP) =  -338.550839106     A.U. after    9 cycles
 SCF Done:  E(RB3LYP) =  -338.550841896     A.U. after    9 cycles
 SCF Done:  E(RB3LYP) =  -338.550842563     A.U. after    8 cycles
 Optimization completed.
    -- Stationary point found.
 Normal termination of Gaussian 09 at Thu Sep  8 15:12:02 2022.

 ----------------------------------------------------------------------
 #P Geom=AllCheck Guess=TCheck SCRF=Check GenChk RB3LYP/6-31G(d,p) Freq
 ----------------------------------------------------------------------

 Structure from the checkpoint file:  "B3LYP6-31Gdp.Frag_636.chk"
 --------
 Frag_636
 --------
 Charge =  0 Multiplicity = 1

                         Standard orientation:
 ---------------------------------------------------------------------
 Center     Atomic      Atomic             Coordinates (Angstroms)
 Number     Number       Type             X           Y           Z
 ---------------------------------------------------------------------
      1          7           0       -1.352511    1.149396   -0.320761
      2          6           0       -0.743683    0.066727   -0.029686
      3          8           0       -1.421292   -1.039030    0.309574
      4          6           0        0.750652   -0.135214   -0.012937
      5          7           0        1.266814   -1.247968   -0.318799
      6          8           0        1.475094    0.987616    0.278182
      7          1           0       -0.704636    1.877667   -0.620834
      8          1           0       -2.362993   -0.818114    0.210476
      9          1           0        2.288346   -1.182903   -0.280022
     10          1           0        0.906924    1.635588    0.720983
 ---------------------------------------------------------------------

 SCF Done:  E(RB3LYP) =  -338.550842563     A.U. after    2 cycles

 The electronic state is 1-A.
 Alpha  occ. eigenvalues --  -19.20774 -19.20033 -14.33342 -14.32754 -10.30920
 Alpha  occ. eigenvalues --  -10.30409  -1.10196  -1.08645  -0.91001  -0.90484
 Alpha  occ. eigenvalues --   -0.69346  -0.61452  -0.57162  -0.53253  -0.50151
 Alpha  occ. eigenvalues --   -0.45702  -0.41690  -0.40621  -0.38398  -0.31414
 Alpha  occ. eigenvalues --   -0.29872  -0.28604  -0.28183
 Alpha virt. eigenvalues --   -0.04191   0.04437   0.06579   0.08558   0.12025
 Alpha virt. eigenvalues --    0.13464   0.21371   0.27880   0.29515   0.38576
 Alpha virt. eigenvalues --    0.45788   0.52827   0.54240   0.56713   0.57607

 Mulliken charges:
               1
     1  N   -0.561806
     2  C    0.465460
     3  O   -0.466391
     4  C    0.449667
     5  N   -0.502021
     6  O   -0.509994
     7  H    0.230440
     8  H    0.331977
     9  H    0.244584
    10  H    0.318082
 Sum of Mulliken charges =  -0.00000

 Dipole moment (field-independent basis, Debye):
    X=              0.0926    Y=              2.0739    Z=              0.8569  Tot=              2.2458
 Quadrupole moment (field-independent basis, Debye-Ang):
   XX=            -31.6980   YY=            -35.3350   ZZ=            -33.9792
   XY=              2.8213   XZ=             -0.3912   YZ=              0.6306

  Exact polarizability:  46.732  -6.210  51.234  -0.772   0.379  21.799
 Approx polarizability:  63.324 -14.256  92.615  -0.912   0.700  32.709

                      1                      2                      3
                      A                      A                      A
 Frequencies --     86.3909               268.1585               341.6637
 Red. masses --      7.1199                 5.3376                 3.2450
 Frc consts  --      0.0313                 0.2261                 0.2232
 IR Inten    --      0.6998                 5.0828                16.9561

                      4                      5                      6
                      A                      A                      A
 Frequencies --    415.8341               453.8259               569.0791
 Red. masses --      4.0297                 1.2189                 2.2411
 Frc consts  --      0.4105                 0.1479                 0.4276
 IR Inten    --     43.1010               129.5781                35.5031

                      7                      8                      9
                      A                      A                      A
 Frequencies --    594.7118               627.9919               780.6976
 Red. masses --      2.8619                 1.7867                 8.9947
 Frc consts  --      0.5964                 0.4151                 3.2300
 IR Inten    --     25.4489               100.4706                 7.1878

                     10                     11                     12
                      A                      A                      A
 Frequencies --    794.6088               866.7813               925.7215
 Red. masses --      3.9416                 1.1445                 1.2308
 Frc consts  --      1.4663                 0.5066                 0.6214
 IR Inten    --     59.1068                15.9524                88.8392

                     13                     14                     15
                      A                      A                      A
 Frequencies --   1088.8862              1116.1449              1220.8127
 Red. masses --      2.6114                 1.5673                 1.1868
 Frc consts  --      1.8243                 1.1504                 1.0421
 IR Inten    --     73.4576               165.4219               100.2868

                     16                     17                     18
                      A                      A                      A
 Frequencies --   1252.1036              1344.7069              1484.0261
 Red. masses --      1.5046                 2.0067                 3.5474
 Frc consts  --      1.3898                 2.1379                 4.6031
 IR Inten    --    144.9950               174.8997                76.5149

                     19                     20                     21
                      A                      A                      A
 Frequencies --   1721.4022              1781.7883              3470.0211
 Red. masses --      8.5885                 8.0306                 1.0744
 Frc consts  --     14.9944                15.0213                 7.6220
 IR Inten    --    265.8435                57.4647                 2.2044

                     22                     23                     24
                      A                      A                      A
 Frequencies --   3512.3286              3750.4237              3780.5759
 Red. masses --      1.0756                 1.0640                 1.0657
 Frc consts  --      7.8179                 8.8175                 8.9744
 IR Inten    --      2.3066                54.9563                40.3969

 - Thermochemistry -
 -------------------
 Temperature   298.150 Kelvin.  Pressure   1.00000 Atm.
 Atom     1 has atomic number  7 and mass  14.00307

 Molecular mass:    88.02728 amu.
 Principal axes and moments of inertia in atomic units:
                           1         2         3
     Eigenvalues --   315.81108 526.81548 794.89750
           X            0.99995  -0.00985  -0.00036
           Y            0.00985   0.99995   0.00229
           Z            0.00033  -0.00229   1.00000
 This molecule is an asymmetric top.
 Rotational symmetry number  1.
 Rotational temperatures (Kelvin)      0.27426     0.16441     0.10896
 Rotational constants (GHZ):           5.71462     3.42576     2.27041
 Zero-point vibrational energy     192890.0 (Joules/Mol)
                                   46.10181 (Kcal/Mol)
 Warning -- explicit consideration of   7 degrees of freedom as
           vibrations may cause significant error
 Vibrational temperatures:    124.30   385.82   491.58   598.29   652.95
          (Kelvin)            818.78   855.66   903.54  1123.25  1143.26
                             1247.10  1331.91  1566.66  1605.88  1756.47
                             1801.50  1934.73  2135.18  2476.71  2563.59
                             4992.58  5053.45  5396.02  5439.40

 Zero-point correction=                           0.073468 (Hartree/Particle)
 Thermal correction to Energy=                    0.079305
 Thermal correction to Enthalpy=                  0.080249
 Thermal correction to Gibbs Free Energy=         0.044000
 Sum of electronic and zero-point Energies=           -338.477375
 Sum of electronic and thermal Energies=              -338.471537
 Sum of electronic and thermal Enthalpies=            -338.470593
 Sum of electronic and thermal Free Energies=         -338.506842

                     E (Thermal)             CV                S
                      KCal/Mol        Cal/Mol-Kelvin    Cal/Mol-Kelvin
 Total                   49.765             20.691             76.292
 Electronic               0.000              0.000              0.000
 Translational            0.889              2.981             39.338
 Rotational               0.889              2.981             26.383
 Vibrational             47.987             14.729             10.571
 Vibration     1          0.601              1.959              3.740
 Vibration     2          0.673              1.732              1.608
 Vibration     3          0.721              1.592              1.204
 Vibration     4          0.779              1.436              0.906
 Vibration     5          0.812              1.352              0.784
 Vibration     6          0.925              1.098              0.506
 Vibration     7          0.952              1.043              0.459

 Optimization completed.
    -- Stationary point found.
 Normal termination of Gaussian 09 at Thu Sep  8 15:12:10 2022.
