 Gaussian 09, Revision E.01,
 Gaussian 09:  ES64L-G09RevE.01 30-Nov-2015

 ----------------------------
 #P OPT Freq B3LYP/6-31G(d,p)
 ----------------------------

 --------
 Frag_637
 --------
 Symbolic Z-matrix:
 Charge =  0 Multiplicity = 1

 SCF Done:  E(RB3LYP) =  -308.469823524     A.U. after   14 cycles
 SCF Done:  E(RB3LYP) =  -308.469847553     A.U. after   10 cycles
 SCF Done:  E(RB3LYP) =  -308.469852289     A.U. after    8 cycles
 SCF Done:  E(RB3LYP) =  -308.469854543     A.U. after    7 cycles
 SCF Done:  E(RB3LYP) =  -308.469854691     A.U. after    7 cycles
 SCF Done:  E(RB3LYP) =  -308.469854853     A.U. after    6 cycles
 Optimization completed.
    -- Stationary point found.
 Normal termination of Gaussian 09 at Thu Sep  8 15:18:10 2022.

 ----------------------------------------------------------------------
 #P Geom=AllCheck Guess=TCheck SCRF=Check GenChk RB3LYP/6-31G(d,p) Freq
 ----------------------------------------------------------------------

 Structure from the checkpoint file:  "B3LYP6-31Gdp.Frag_637.chk"
 --------
 Frag_637
 --------
 Charge =  0 Multiplicity = 1

                         Standard orientation:
 ---------------------------------------------------------------------
 Center     Atomic      Atomic             Coordinates (Angstroms)
 Number     Number       Type             X           Y           Z
 ---------------------------------------------------------------------
      1          6           0        1.592220   -1.154498   -0.074747
      2          7           0        0.820762    0.045220   -0.399620
      3          6           0        1.535775    1.239457    0.029536
      4          6           0       -0.609408   -0.028900   -0.015770
      5          6           0       -1.319092    1.284579   -0.408446
      6          6           0       -0.841509   -0.311971    1.484205
      7          7           0       -1.153582   -1.171199   -0.770928
      8          1           0        1.863012   -1.230681    0.994334
      9          1           0        2.525356   -1.142372   -0.648965
     10          1           0        1.019166   -2.038603   -0.352807
     11          1           0        2.552201    1.198381   -0.375171
     12          1           0        1.627358    1.342846    1.127754
     13          1           0        1.068258    2.145493   -0.360343
     14          1           0       -2.401359    1.146783   -0.319962
     15          1           0       -1.047455    2.131106    0.229315
     16          1           0       -1.088597    1.543866   -1.447160
     17          1           0       -0.375371    0.457993    2.106477
     18          1           0       -0.431742   -1.285173    1.763025
     19          1           0       -1.912289   -0.317926    1.717030
     20          1           0       -1.072788   -0.965462   -1.765182
     21          1           0       -2.143931   -1.276400   -0.563168
 ---------------------------------------------------------------------

 SCF Done:  E(RB3LYP) =  -308.469854853     A.U. after    1 cycles

 The electronic state is 1-A.
 Alpha  occ. eigenvalues --  -14.31368 -14.30493 -10.24096 -10.19426 -10.18336
 Alpha  occ. eigenvalues --  -10.17150 -10.16779  -0.92539  -0.85289  -0.73965
 Alpha  occ. eigenvalues --   -0.69678  -0.67634  -0.63536  -0.53695  -0.49170
 Alpha  occ. eigenvalues --   -0.46470  -0.45277  -0.43691  -0.41960  -0.39569
 Alpha  occ. eigenvalues --   -0.38978  -0.37863  -0.36921  -0.35884  -0.34840
 Alpha  occ. eigenvalues --   -0.34507  -0.33534  -0.23234  -0.20084
 Alpha virt. eigenvalues --    0.07322   0.11336   0.12505   0.13775   0.14235
 Alpha virt. eigenvalues --    0.15241   0.15673   0.17042   0.18388   0.18972
 Alpha virt. eigenvalues --    0.19545   0.20187   0.20661   0.21981   0.22592

 Mulliken charges:
               1
     1  C   -0.163443
     2  N   -0.411330
     3  C   -0.155829
     4  C    0.278434
     5  C   -0.320497
     6  C   -0.307270
     7  N   -0.583433
     8  H    0.072987
     9  H    0.095504
    10  H    0.136051
    11  H    0.102897
    12  H    0.076738
    13  H    0.105410
    14  H    0.090469
    15  H    0.101671
    16  H    0.106273
    17  H    0.101730
    18  H    0.116366
    19  H    0.090738
    20  H    0.237100
    21  H    0.229437
 Sum of Mulliken charges =  -0.00000

 Dipole moment (field-independent basis, Debye):
    X=             -0.8611    Y=              0.8552    Z=              0.1454  Tot=              1.2223
 Quadrupole moment (field-independent basis, Debye-Ang):
   XX=            -42.7246   YY=            -47.9812   ZZ=            -46.1394
   XY=              0.5640   XZ=              1.2062   YZ=              0.0519

  Exact polarizability:  75.634   0.555  68.131   0.108   0.540  63.923
 Approx polarizability:  98.702   2.250  93.133  -0.265   1.985  91.346

                      1                      2                      3
                      A                      A                      A
 Frequencies --    104.1725               213.8591               217.2550
 Red. masses --      2.4756                 1.1401                 1.0659
 Frc consts  --      0.0158                 0.0307                 0.0296
 IR Inten    --      0.7022                 2.5398                 1.2659

                      4                      5                      6
                      A                      A                      A
 Frequencies --    266.5403               269.5249               290.7621
 Red. masses --      1.0708                 2.0339                 1.2910
 Frc consts  --      0.0448                 0.0871                 0.0643
 IR Inten    --      1.0967                 1.0883                11.7774

                      7                      8                      9
                      A                      A                      A
 Frequencies --    301.5203               336.0326               365.9066
 Red. masses --      1.1881                 1.6999                 2.2249
 Frc consts  --      0.0636                 0.1131                 0.1755
 IR Inten    --     17.3691                11.3001                 1.7996

                     10                     11                     12
                      A                      A                      A
 Frequencies --    390.3246               421.7705               481.2629
 Red. masses --      2.6698                 2.0759                 2.2007
 Frc consts  --      0.2397                 0.2176                 0.3003
 IR Inten    --      0.9082                 3.8503                 0.7645

                     13                     14                     15
                      A                      A                      A
 Frequencies --    502.4658               514.1718               700.0701
 Red. masses --      2.8596                 2.9477                 3.4861
 Frc consts  --      0.4254                 0.4591                 1.0066
 IR Inten    --     12.3052                12.2877                 5.0732

                     16                     17                     18
                      A                      A                      A
 Frequencies --    833.3828               900.2111               917.2265
 Red. masses --      2.6057                 1.5613                 1.4298
 Frc consts  --      1.0663                 0.7455                 0.7087
 IR Inten    --     34.9558                87.7578                15.2536

                     19                     20                     21
                      A                      A                      A
 Frequencies --    958.7113               998.8970              1018.6342
 Red. masses --      1.6603                 2.2707                 1.3330
 Frc consts  --      0.8991                 1.3349                 0.8149
 IR Inten    --      3.5865                47.2901                12.5196

                     22                     23                     24
                      A                      A                      A
 Frequencies --   1071.1416              1084.4216              1127.1593
 Red. masses --      1.5325                 1.4765                 1.2397
 Frc consts  --      1.0360                 1.0230                 0.9280
 IR Inten    --      7.3548                10.4537                 8.1802

                     25                     26                     27
                      A                      A                      A
 Frequencies --   1186.0050              1194.4504              1248.0684
 Red. masses --      1.7007                 2.1209                 2.5658
 Frc consts  --      1.4094                 1.7828                 2.3548
 IR Inten    --     13.8364                 0.8936                52.2147

                     28                     29                     30
                      A                      A                      A
 Frequencies --   1284.3590              1292.3889              1340.9129
 Red. masses --      3.5251                 2.1217                 1.9716
 Frc consts  --      3.4261                 2.0879                 2.0887
 IR Inten    --     47.1083                18.1002                26.9952

                     31                     32                     33
                      A                      A                      A
 Frequencies --   1405.8316              1423.4971              1443.6612
 Red. masses --      1.2880                 1.2535                 1.1511
 Frc consts  --      1.4998                 1.4966                 1.4135
 IR Inten    --     14.0232                12.2869                 1.8949

                     34                     35                     36
                      A                      A                      A
 Frequencies --   1479.1435              1493.4884              1496.1583
 Red. masses --      1.1650                 1.0502                 1.0496
 Frc consts  --      1.5017                 1.3801                 1.3843
 IR Inten    --      3.8957                 5.7343                 2.3061

                     37                     38                     39
                      A                      A                      A
 Frequencies --   1505.9092              1509.3881              1522.3686
 Red. masses --      1.0523                 1.0487                 1.0545
 Frc consts  --      1.4060                 1.4077                 1.4399
 IR Inten    --      7.7324                 0.7193                 9.0504

                     40                     41                     42
                      A                      A                      A
 Frequencies --   1525.2019              1528.6815              1535.9286
 Red. masses --      1.0512                 1.0620                 1.0574
 Frc consts  --      1.4408                 1.4622                 1.4697
 IR Inten    --      2.1068                 4.6611                 3.7807

                     43                     44                     45
                      A                      A                      A
 Frequencies --   1642.6476              2933.4713              2949.9539
 Red. masses --      1.1035                 1.0618                 1.0611
 Frc consts  --      1.7543                 5.3832                 5.4406
 IR Inten    --     33.5876                56.0858               107.6248

                     46                     47                     48
                      A                      A                      A
 Frequencies --   3040.9606              3050.2828              3067.8401
 Red. masses --      1.0355                 1.0385                 1.0793
 Frc consts  --      5.6417                 5.6928                 5.9850
 IR Inten    --     16.4906                20.7764                41.2757

                     49                     50                     51
                      A                      A                      A
 Frequencies --   3078.4168              3110.0749              3117.0913
 Red. masses --      1.0735                 1.1008                 1.1006
 Frc consts  --      5.9940                 6.2733                 6.3008
 IR Inten    --     48.8410                 0.6025                62.8430

                     52                     53                     54
                      A                      A                      A
 Frequencies --   3120.1917              3136.6573              3145.0599
 Red. masses --      1.1033                 1.0979                 1.1016
 Frc consts  --      6.3286                 6.3642                 6.4200
 IR Inten    --     24.7675                25.3199                24.1094

                     55                     56                     57
                      A                      A                      A
 Frequencies --   3161.9953              3480.9846              3575.6599
 Red. masses --      1.0959                 1.0491                 1.0927
 Frc consts  --      6.4559                 7.4901                 8.2313
 IR Inten    --      6.9314                 1.1421                 0.1754

 - Thermochemistry -
 -------------------
 Temperature   298.150 Kelvin.  Pressure   1.00000 Atm.
 Atom     1 has atomic number  6 and mass  12.00000

 Molecular mass:   102.11570 amu.
 Principal axes and moments of inertia in atomic units:
                           1         2         3
     Eigenvalues --   574.23299 779.78191 936.84890
           X            0.99959  -0.02773   0.00737
           Y            0.02789   0.99936  -0.02226
           Z           -0.00675   0.02245   0.99973
 This molecule is an asymmetric top.
 Rotational symmetry number  1.
 Warning -- assumption of classical behavior for rotation
           may cause significant error
 Rotational temperatures (Kelvin)      0.15083     0.11107     0.09245
 Rotational constants (GHZ):           3.14287     2.31442     1.92640
 Zero-point vibrational energy     510280.0 (Joules/Mol)
                                  121.95985 (Kcal/Mol)
 Warning -- explicit consideration of  14 degrees of freedom as
           vibrations may cause significant error
 Vibrational temperatures:    149.88   307.70   312.58   383.49   387.79
          (Kelvin)            418.34   433.82   483.48   526.46   561.59
                              606.83   692.43   722.94   739.78  1007.24
                             1199.05  1295.20  1319.68  1379.37  1437.19
                             1465.59  1541.13  1560.24  1621.73  1706.39
                             1718.55  1795.69  1847.90  1859.46  1929.27
                             2022.68  2048.09  2077.10  2128.15  2148.79
                             2152.64  2166.66  2171.67  2190.35  2194.42
                             2199.43  2209.86  2363.40  4220.61  4244.32
                             4375.26  4388.67  4413.93  4429.15  4474.70
                             4484.79  4489.25  4512.94  4525.03  4549.40
                             5008.35  5144.57

 Zero-point correction=                           0.194355 (Hartree/Particle)
 Thermal correction to Energy=                    0.203389
 Thermal correction to Enthalpy=                  0.204334
 Thermal correction to Gibbs Free Energy=         0.162253
 Sum of electronic and zero-point Energies=           -308.275499
 Sum of electronic and thermal Energies=              -308.266465
 Sum of electronic and thermal Enthalpies=            -308.265521
 Sum of electronic and thermal Free Energies=         -308.307602

                     E (Thermal)             CV                S
                      KCal/Mol        Cal/Mol-Kelvin    Cal/Mol-Kelvin
 Total                  127.629             34.627             88.567
 Electronic               0.000              0.000              0.000
 Translational            0.889              2.981             39.780
 Rotational               0.889              2.981             27.530
 Vibrational            125.851             28.666             21.256
 Vibration     1          0.605              1.946              3.375
 Vibration     2          0.644              1.820              2.010
 Vibration     3          0.646              1.815              1.982
 Vibration     4          0.672              1.734              1.619
 Vibration     5          0.674              1.729              1.599
 Vibration     6          0.687              1.691              1.470
 Vibration     7          0.694              1.671              1.408
 Vibration     8          0.717              1.604              1.231
 Vibration     9          0.739              1.542              1.097
 Vibration    10          0.758              1.491              0.999
 Vibration    11          0.784              1.423              0.886
 Vibration    12          0.838              1.292              0.707
 Vibration    13          0.858              1.245              0.652
 Vibration    14          0.869              1.219              0.624

 Optimization completed.
    -- Stationary point found.
 Normal termination of Gaussian 09 at Thu Sep  8 15:18:32 2022.
