 Gaussian 09, Revision E.01,
 Gaussian 09:  ES64L-G09RevE.01 30-Nov-2015

 ----------------------------
 #P OPT Freq B3LYP/6-31G(d,p)
 ----------------------------

 --------
 Frag_683
 --------
 Symbolic Z-matrix:
 Charge =  0 Multiplicity = 1

 SCF Done:  E(RB3LYP) =  -343.167010376     A.U. after   14 cycles
 SCF Done:  E(RB3LYP) =  -343.167078852     A.U. after   11 cycles
 SCF Done:  E(RB3LYP) =  -343.167082331     A.U. after    8 cycles
 SCF Done:  E(RB3LYP) =  -343.167086702     A.U. after    9 cycles
 SCF Done:  E(RB3LYP) =  -343.167088015     A.U. after    7 cycles
 SCF Done:  E(RB3LYP) =  -343.167089080     A.U. after    8 cycles
 SCF Done:  E(RB3LYP) =  -343.167089464     A.U. after    8 cycles
 SCF Done:  E(RB3LYP) =  -343.167089547     A.U. after    7 cycles
 Optimization completed.
    -- Stationary point found.
 Normal termination of Gaussian 09 at Thu Sep  8 14:59:39 2022.

 ----------------------------------------------------------------------
 #P Geom=AllCheck Guess=TCheck SCRF=Check GenChk RB3LYP/6-31G(d,p) Freq
 ----------------------------------------------------------------------

 Structure from the checkpoint file:  "B3LYP6-31Gdp.Frag_683.chk"
 --------
 Frag_683
 --------
 Charge =  0 Multiplicity = 1

                         Standard orientation:
 ---------------------------------------------------------------------
 Center     Atomic      Atomic             Coordinates (Angstroms)
 Number     Number       Type             X           Y           Z
 ---------------------------------------------------------------------
      1          6           0       -1.594741    1.286126    0.081861
      2          6           0       -0.950172    0.110855    0.002998
      3          7           0       -1.574472   -1.135130    0.052752
      4          6           0        0.582892    0.008788   -0.032379
      5          6           0        1.122790   -0.424140    1.340282
      6          7           0        1.281930    1.211106   -0.456076
      7          8           0        0.852763   -1.005673   -1.010088
      8          1           0       -2.678155    1.335366    0.132422
      9          1           0       -1.056587    2.223001    0.134952
     10          1           0       -1.108338   -1.828697   -0.519382
     11          1           0       -2.573381   -1.110343   -0.106269
     12          1           0        0.659935   -1.367363    1.634072
     13          1           0        2.208612   -0.552979    1.286620
     14          1           0        0.894462    0.323746    2.106318
     15          1           0        0.780239    1.645582   -1.227309
     16          1           0        1.333716    1.889501    0.298149
     17          1           0        1.800572   -0.934039   -1.192164
 ---------------------------------------------------------------------

 SCF Done:  E(RB3LYP) =  -343.167089547     A.U. after    1 cycles

 The electronic state is 1-A.
 Alpha  occ. eigenvalues --  -19.14133 -14.32597 -14.31900 -10.26913 -10.21313
 Alpha  occ. eigenvalues --  -10.17296 -10.15386  -1.02646  -0.89975  -0.87637
 Alpha  occ. eigenvalues --   -0.73711  -0.71253  -0.62668  -0.54263  -0.52065
 Alpha  occ. eigenvalues --   -0.49404  -0.47991  -0.45944  -0.42992  -0.41396
 Alpha  occ. eigenvalues --   -0.39110  -0.37317  -0.36059  -0.34017  -0.31690
 Alpha  occ. eigenvalues --   -0.27873  -0.24991  -0.20007
 Alpha virt. eigenvalues --    0.04304   0.07340   0.10831   0.11402   0.14375
 Alpha virt. eigenvalues --    0.15012   0.15897   0.17050   0.17677   0.18770
 Alpha virt. eigenvalues --    0.20183   0.24142   0.24603   0.27972   0.29351

 Mulliken charges:
               1
     1  C   -0.336269
     2  C    0.329839
     3  N   -0.639661
     4  C    0.316164
     5  C   -0.301327
     6  N   -0.606343
     7  O   -0.559564
     8  H    0.074979
     9  H    0.064922
    10  H    0.277599
    11  H    0.249203
    12  H    0.128359
    13  H    0.101707
    14  H    0.101924
    15  H    0.246073
    16  H    0.243400
    17  H    0.308995
 Sum of Mulliken charges =  -0.00000

 Dipole moment (field-independent basis, Debye):
    X=              0.0473    Y=              0.3279    Z=             -0.0932  Tot=              0.3442
 Quadrupole moment (field-independent basis, Debye-Ang):
   XX=            -39.7029   YY=            -40.5381   ZZ=            -44.6311
   XY=              1.2087   XZ=              1.7293   YZ=              1.3056

  Exact polarizability:  65.433  -4.221  69.280  -0.544   1.404  44.532
 Approx polarizability:  85.701  -7.941 108.369  -2.531   4.076  62.041

                      1                      2                      3
                      A                      A                      A
 Frequencies --     83.6593               232.3126               245.9319
 Red. masses --      3.8934                 1.2642                 1.4737
 Frc consts  --      0.0161                 0.0402                 0.0525
 IR Inten    --      2.5991                15.1798                 3.5887

                      4                      5                      6
                      A                      A                      A
 Frequencies --    269.8514               300.2485               361.3798
 Red. masses --      1.3099                 2.9560                 1.3635
 Frc consts  --      0.0562                 0.1570                 0.1049
 IR Inten    --     30.7934                13.9243                66.6145

                      7                      8                      9
                      A                      A                      A
 Frequencies --    367.0149               383.3412               423.6650
 Red. masses --      2.8293                 2.2370                 1.2022
 Frc consts  --      0.2245                 0.1937                 0.1271
 IR Inten    --      5.3489                 8.5749                29.4859

                     10                     11                     12
                      A                      A                      A
 Frequencies --    482.0727               512.0949               551.8672
 Red. masses --      2.3204                 2.3948                 2.7762
 Frc consts  --      0.3177                 0.3700                 0.4982
 IR Inten    --     17.1618                 7.3422                61.6242

                     13                     14                     15
                      A                      A                      A
 Frequencies --    640.2875               693.5836               718.6084
 Red. masses --      1.7801                 1.3925                 3.0553
 Frc consts  --      0.4300                 0.3947                 0.9296
 IR Inten    --    146.6960                49.1455                 3.5723

                     16                     17                     18
                      A                      A                      A
 Frequencies --    758.3666               806.6311               860.2680
 Red. masses --      1.4707                 1.5419                 1.5957
 Frc consts  --      0.4984                 0.5911                 0.6958
 IR Inten    --     49.6255                81.1361               151.5813

                     19                     20                     21
                      A                      A                      A
 Frequencies --    925.4065               985.1148               990.9509
 Red. masses --      2.3228                 1.4725                 1.5351
 Frc consts  --      1.1720                 0.8420                 0.8882
 IR Inten    --     43.9431                20.4760                 8.7289

                     22                     23                     24
                      A                      A                      A
 Frequencies --   1007.6771              1114.7421              1138.1936
 Red. masses --      1.9866                 1.6956                 1.4668
 Frc consts  --      1.1885                 1.2415                 1.1196
 IR Inten    --     31.1135               134.7594                21.5438

                     25                     26                     27
                      A                      A                      A
 Frequencies --   1232.3728              1317.0983              1322.3342
 Red. masses --      3.3699                 1.8143                 1.7075
 Frc consts  --      3.0155                 1.8544                 1.7591
 IR Inten    --     42.8247                76.7968                33.5174

                     28                     29                     30
                      A                      A                      A
 Frequencies --   1403.6612              1418.4877              1453.8224
 Red. masses --      1.7672                 1.6112                 1.1836
 Frc consts  --      2.0515                 1.9101                 1.4739
 IR Inten    --     24.7408                 1.2472                 1.1016

                     31                     32                     33
                      A                      A                      A
 Frequencies --   1497.5916              1510.7609              1646.6126
 Red. masses --      1.0511                 1.0720                 1.1534
 Frc consts  --      1.3889                 1.4415                 1.8425
 IR Inten    --      1.8915                 2.6630                54.7065

                     34                     35                     36
                      A                      A                      A
 Frequencies --   1662.8981              1722.8609              3050.8791
 Red. masses --      1.1138                 5.0620                 1.0366
 Frc consts  --      1.8146                 8.8527                 5.6847
 IR Inten    --     27.8021                96.3170                16.5015

                     37                     38                     39
                      A                      A                      A
 Frequencies --   3122.0859              3158.8013              3171.1893
 Red. masses --      1.1031                 1.1012                 1.0624
 Frc consts  --      6.3351                 6.4739                 6.2948
 IR Inten    --     26.1454                10.5540                 6.8016

                     40                     41                     42
                      A                      A                      A
 Frequencies --   3263.4847              3502.0720              3550.8120
 Red. masses --      1.1124                 1.0495                 1.0468
 Frc consts  --      6.9805                 7.5839                 7.7765
 IR Inten    --     12.4941                 0.2220                18.2933

                     43                     44                     45
                      A                      A                      A
 Frequencies --   3597.1720              3660.1429              3799.9522
 Red. masses --      1.0928                 1.0983                 1.0654
 Frc consts  --      8.3313                 8.6692                 9.0643
 IR Inten    --      1.9181                18.0981                26.0466

 - Thermochemistry -
 -------------------
 Temperature   298.150 Kelvin.  Pressure   1.00000 Atm.
 Atom     1 has atomic number  6 and mass  12.00000

 Molecular mass:   102.07931 amu.
 Principal axes and moments of inertia in atomic units:
                           1         2         3
     Eigenvalues --   538.20743 753.66327 913.96241
           X            0.99940  -0.01125   0.03274
           Y            0.01200   0.99966  -0.02298
           Z           -0.03247   0.02336   0.99920
 This molecule is an asymmetric top.
 Rotational symmetry number  1.
 Warning -- assumption of classical behavior for rotation
           may cause significant error
 Rotational temperatures (Kelvin)      0.16093     0.11492     0.09477
 Rotational constants (GHZ):           3.35324     2.39463     1.97463
 Zero-point vibrational energy     388298.0 (Joules/Mol)
                                   92.80546 (Kcal/Mol)
 Warning -- explicit consideration of  12 degrees of freedom as
           vibrations may cause significant error
 Vibrational temperatures:    120.37   334.25   353.84   388.26   431.99
          (Kelvin)            519.94   528.05   551.54   609.56   693.59
                              736.79   794.01   921.23   997.91  1033.92
                             1091.12  1160.56  1237.73  1331.45  1417.36
                             1425.76  1449.82  1603.86  1637.60  1773.11
                             1895.01  1902.54  2019.55  2040.88  2091.72
                             2154.70  2173.65  2369.11  2392.54  2478.81
                             4389.53  4491.98  4544.80  4562.63  4695.42
                             5038.69  5108.82  5175.52  5266.12  5467.28

 Zero-point correction=                           0.147895 (Hartree/Particle)
 Thermal correction to Energy=                    0.156193
 Thermal correction to Enthalpy=                  0.157137
 Thermal correction to Gibbs Free Energy=         0.116321
 Sum of electronic and zero-point Energies=           -343.019195
 Sum of electronic and thermal Energies=              -343.010897
 Sum of electronic and thermal Enthalpies=            -343.009953
 Sum of electronic and thermal Free Energies=         -343.050769

                     E (Thermal)             CV                S
                      KCal/Mol        Cal/Mol-Kelvin    Cal/Mol-Kelvin
 Total                   98.012             32.206             85.904
 Electronic               0.000              0.000              0.000
 Translational            0.889              2.981             39.779
 Rotational               0.889              2.981             27.408
 Vibrational             96.235             26.245             18.717
 Vibration     1          0.601              1.960              3.803
 Vibration     2          0.653              1.792              1.861
 Vibration     3          0.660              1.770              1.760
 Vibration     4          0.674              1.729              1.597
 Vibration     5          0.693              1.673              1.416
 Vibration     6          0.736              1.552              1.116
 Vibration     7          0.740              1.540              1.092
 Vibration     8          0.753              1.506              1.026
 Vibration     9          0.786              1.419              0.880
 Vibration    10          0.838              1.290              0.704
 Vibration    11          0.867              1.223              0.629
 Vibration    12          0.907              1.136              0.540

 Optimization completed.
    -- Stationary point found.
 Normal termination of Gaussian 09 at Thu Sep  8 14:59:55 2022.
