 Gaussian 09, Revision E.01,
 Gaussian 09:  ES64L-G09RevE.01 30-Nov-2015

 ----------------------------
 #P OPT Freq B3LYP/6-31G(d,p)
 ----------------------------

 --------
 Frag_713
 --------
 Symbolic Z-matrix:
 Charge =  0 Multiplicity = 1

 SCF Done:  E(RB3LYP) =  -300.430418896     A.U. after   14 cycles
 SCF Done:  E(RB3LYP) =  -300.430523060     A.U. after   11 cycles
 SCF Done:  E(RB3LYP) =  -300.430536483     A.U. after   10 cycles
 SCF Done:  E(RB3LYP) =  -300.430541398     A.U. after    9 cycles
 SCF Done:  E(RB3LYP) =  -300.430543449     A.U. after    8 cycles
 SCF Done:  E(RB3LYP) =  -300.430543715     A.U. after    8 cycles
 Optimization completed.
    -- Stationary point found.
 Normal termination of Gaussian 09 at Thu Sep  8 15:16:33 2022.

 ----------------------------------------------------------------------
 #P Geom=AllCheck Guess=TCheck SCRF=Check GenChk RB3LYP/6-31G(d,p) Freq
 ----------------------------------------------------------------------

 Structure from the checkpoint file:  "B3LYP6-31Gdp.Frag_713.chk"
 --------
 Frag_713
 --------
 Charge =  0 Multiplicity = 1

                         Standard orientation:
 ---------------------------------------------------------------------
 Center     Atomic      Atomic             Coordinates (Angstroms)
 Number     Number       Type             X           Y           Z
 ---------------------------------------------------------------------
      1          7           0        1.697025   -0.481470    0.081890
      2          6           0        0.466535    0.127412   -0.010148
      3          8           0        0.287304    1.340677   -0.005491
      4          7           0       -0.606637   -0.762027   -0.117228
      5          8           0       -1.856107   -0.107322    0.010636
      6          1           0        2.472462    0.151722   -0.051960
      7          1           0        1.803267   -1.386819   -0.354290
      8          1           0       -0.581130   -1.520385    0.559787
      9          1           0       -1.576111    0.828646    0.113556
 ---------------------------------------------------------------------

 SCF Done:  E(RB3LYP) =  -300.430543715     A.U. after    1 cycles

 The electronic state is 1-A.
 Alpha  occ. eigenvalues --  -19.17454 -19.13384 -14.40430 -14.37146 -10.32695
 Alpha  occ. eigenvalues --   -1.09569  -1.03241  -0.93049  -0.83465  -0.62460
 Alpha  occ. eigenvalues --   -0.57335  -0.53671  -0.50675  -0.44646  -0.43177
 Alpha  occ. eigenvalues --   -0.38048  -0.35528  -0.29883  -0.28414  -0.23675
 Alpha virt. eigenvalues --    0.02574   0.05518   0.09343   0.11596   0.12518
 Alpha virt. eigenvalues --    0.17179   0.25148   0.34778   0.36974   0.54370
 Alpha virt. eigenvalues --    0.57460   0.59926   0.63847   0.65910   0.67880

 Mulliken charges:
               1
     1  N   -0.623711
     2  C    0.686774
     3  O   -0.522610
     4  N   -0.276753
     5  O   -0.448595
     6  H    0.288536
     7  H    0.276993
     8  H    0.281688
     9  H    0.337678
 Sum of Mulliken charges =  -0.00000

 Dipole moment (field-independent basis, Debye):
    X=              2.7594    Y=             -2.3514    Z=              0.3234  Tot=              3.6398
 Quadrupole moment (field-independent basis, Debye-Ang):
   XX=            -26.2795   YY=            -27.8096   ZZ=            -29.5038
   XY=             -3.3011   XZ=             -2.9381   YZ=             -0.5476

  Exact polarizability:  40.609  -1.912  35.257   0.118  -0.205  16.188
 Approx polarizability:  54.328  -2.864  59.048   1.705   0.178  22.796

                      1                      2                      3
                      A                      A                      A
 Frequencies --    175.1120               313.2797               402.2320
 Red. masses --      4.2776                 4.7158                 1.1593
 Frc consts  --      0.0773                 0.2727                 0.1105
 IR Inten    --     12.8299                32.4168                79.3334

                      4                      5                      6
                      A                      A                      A
 Frequencies --    429.2874               467.2452               505.2396
 Red. masses --      1.0773                 2.7984                 1.4914
 Frc consts  --      0.1170                 0.3600                 0.2243
 IR Inten    --    104.1092                39.4889               160.9349

                      7                      8                      9
                      A                      A                      A
 Frequencies --    622.0395               704.9181               771.8650
 Red. masses --      1.7539                 3.6556                 4.6505
 Frc consts  --      0.3998                 1.0703                 1.6324
 IR Inten    --    113.3228                49.5812               115.4209

                     10                     11                     12
                      A                      A                      A
 Frequencies --    981.6871              1090.1397              1128.7443
 Red. masses --      2.2606                 5.0736                 2.1043
 Frc consts  --      1.2836                 3.5525                 1.5796
 IR Inten    --     37.2467                18.3263                 6.8967

                     13                     14                     15
                      A                      A                      A
 Frequencies --   1337.2186              1435.4124              1540.0044
 Red. masses --      1.3547                 2.1243                 1.3296
 Frc consts  --      1.4272                 2.5789                 1.8578
 IR Inten    --      3.5185               335.4672                31.1765

                     16                     17                     18
                      A                      A                      A
 Frequencies --   1630.1748              1803.6878              3531.9499
 Red. masses --      1.2155                 7.2315                 1.0761
 Frc consts  --      1.9031                13.8612                 7.9089
 IR Inten    --    106.6816               250.8048                 8.4951

                     19                     20                     21
                      A                      A                      A
 Frequencies --   3561.5556              3584.1126              3705.6715
 Red. masses --      1.0658                 1.0469                 1.1011
 Frc consts  --      7.9656                 7.9235                 8.9084
 IR Inten    --     81.1200                37.0874                40.5826

 - Thermochemistry -
 -------------------
 Temperature   298.150 Kelvin.  Pressure   1.00000 Atm.
 Atom     1 has atomic number  7 and mass  14.00307

 Molecular mass:    76.02728 amu.
 Principal axes and moments of inertia in atomic units:
                           1         2         3
     Eigenvalues --   164.56134 419.88823 579.22158
           X            0.99929  -0.03616  -0.01069
           Y            0.03610   0.99933  -0.00561
           Z            0.01089   0.00522   0.99993
 This molecule is an asymmetric top.
 Rotational symmetry number  1.
 Rotational temperatures (Kelvin)      0.52633     0.20628     0.14953
 Rotational constants (GHZ):          10.96698     4.29815     3.11580
 Zero-point vibrational energy     177774.5 (Joules/Mol)
                                   42.48913 (Kcal/Mol)
 Warning -- explicit consideration of   6 degrees of freedom as
           vibrations may cause significant error
 Vibrational temperatures:    251.95   450.74   578.72   617.65   672.26
          (Kelvin)            726.93   894.98  1014.22  1110.54  1412.43
                             1568.47  1624.01  1923.96  2065.24  2215.72
                             2345.46  2595.10  5081.68  5124.28  5156.73
                             5331.63

 Zero-point correction=                           0.067711 (Hartree/Particle)
 Thermal correction to Energy=                    0.073065
 Thermal correction to Enthalpy=                  0.074009
 Thermal correction to Gibbs Free Energy=         0.039679
 Sum of electronic and zero-point Energies=           -300.362833
 Sum of electronic and thermal Energies=              -300.357479
 Sum of electronic and thermal Enthalpies=            -300.356535
 Sum of electronic and thermal Free Energies=         -300.390864

                     E (Thermal)             CV                S
                      KCal/Mol        Cal/Mol-Kelvin    Cal/Mol-Kelvin
 Total                   45.849             18.724             72.253
 Electronic               0.000              0.000              0.000
 Translational            0.889              2.981             38.901
 Rotational               0.889              2.981             25.196
 Vibrational             44.071             12.762              8.156
 Vibration     1          0.627              1.873              2.380
 Vibration     2          0.701              1.648              1.345
 Vibration     3          0.768              1.465              0.954
 Vibration     4          0.791              1.406              0.861
 Vibration     5          0.825              1.323              0.745
 Vibration     6          0.860              1.238              0.645

 Normal termination of Gaussian 09 at Thu Sep  8 15:16:40 2022.
