 Gaussian 09, Revision E.01,
 Gaussian 09:  ES64L-G09RevE.01 30-Nov-2015

 ----------------------------
 #P OPT Freq B3LYP/6-31G(d,p)
 ----------------------------

 ---------
 Frag_1164
 ---------
 Symbolic Z-matrix:
 Charge =  0 Multiplicity = 1

 SCF Done:  E(RB3LYP) =  -285.203461826     A.U. after   12 cycles
 SCF Done:  E(RB3LYP) =  -285.203488696     A.U. after    9 cycles
 SCF Done:  E(RB3LYP) =  -285.203491458     A.U. after    7 cycles
 SCF Done:  E(RB3LYP) =  -285.203491826     A.U. after    7 cycles
 Optimization completed.
    -- Stationary point found.
 Normal termination of Gaussian 09 at Thu Sep  8 14:52:57 2022.

 ----------------------------------------------------------------------
 #P Geom=AllCheck Guess=TCheck SCRF=Check GenChk RB3LYP/6-31G(d,p) Freq
 ----------------------------------------------------------------------

 Structure from the checkpoint file:  "B3LYP6-31Gdp.Frag_1164.chk"
 ---------
 Frag_1164
 ---------
 Charge =  0 Multiplicity = 1

                         Standard orientation:
 ---------------------------------------------------------------------
 Center     Atomic      Atomic             Coordinates (Angstroms)
 Number     Number       Type             X           Y           Z
 ---------------------------------------------------------------------
      1          6           0       -2.083752    0.019284   -0.042673
      2          7           0       -0.830989   -0.471925   -0.620624
      3          6           0        0.424518   -0.026128    0.013626
      4          6           0        0.599360    1.501104    0.087582
      5          7           0        0.394153   -0.557600    1.373298
      6          7           0        1.563338   -0.568209   -0.740841
      7          1           0       -2.103729   -0.231840    1.019110
      8          1           0       -2.242797    1.106303   -0.135254
      9          1           0       -2.922001   -0.485618   -0.533584
     10          1           0       -0.788158   -0.224166   -1.606053
     11          1           0        0.573731    1.943323   -0.914937
     12          1           0        1.561386    1.753916    0.542847
     13          1           0       -0.195074    1.948873    0.687048
     14          1           0        0.257873   -1.565490    1.312622
     15          1           0        1.308709   -0.408267    1.793311
     16          1           0        1.354209   -1.539609   -0.970340
     17          1           0        1.669576   -0.078855   -1.628810
 ---------------------------------------------------------------------

 SCF Done:  E(RB3LYP) =  -285.203491826     A.U. after    1 cycles

 The electronic state is 1-A.
 Alpha  occ. eigenvalues --  -14.31212 -14.30783 -14.30287 -10.26201 -10.19149
 Alpha  occ. eigenvalues --  -10.16995  -0.94199  -0.84765  -0.83133  -0.71316
 Alpha  occ. eigenvalues --   -0.65975  -0.56946  -0.50732  -0.47419  -0.46985
 Alpha  occ. eigenvalues --   -0.44328  -0.41474  -0.39678  -0.38617  -0.36995
 Alpha  occ. eigenvalues --   -0.35852  -0.35396  -0.25378  -0.23405  -0.21985
 Alpha virt. eigenvalues --    0.06695   0.11689   0.12420   0.13331   0.14965
 Alpha virt. eigenvalues --    0.15282   0.17032   0.17590   0.19365   0.19902
 Alpha virt. eigenvalues --    0.20450   0.23225   0.24358   0.27002   0.27692

 Mulliken charges:
               1
     1  C   -0.171390
     2  N   -0.495602
     3  C    0.334469
     4  C   -0.299916
     5  N   -0.567385
     6  N   -0.584416
     7  H    0.136576
     8  H    0.080977
     9  H    0.098709
    10  H    0.220842
    11  H    0.084888
    12  H    0.111112
    13  H    0.119493
    14  H    0.236176
    15  H    0.241180
    16  H    0.229894
    17  H    0.224394
 Sum of Mulliken charges =  -0.00000

 Dipole moment (field-independent basis, Debye):
    X=             -0.0195    Y=              0.1532    Z=             -1.4387  Tot=              1.4469
 Quadrupole moment (field-independent basis, Debye-Ang):
   XX=            -40.5090   YY=            -37.4875   ZZ=            -36.2456
   XY=             -0.7431   XZ=              0.9837   YZ=             -1.0929

  Exact polarizability:  58.874   0.144  52.542  -0.132  -0.761  53.460
 Approx polarizability:  75.228   0.525  71.310  -0.491  -1.074  75.802

                      1                      2                      3
                      A                      A                      A
 Frequencies --    126.3326               206.5432               244.3288
 Red. masses --      1.7778                 1.1518                 1.1319
 Frc consts  --      0.0167                 0.0289                 0.0398
 IR Inten    --      0.8126                 1.2913                11.6580

                      4                      5                      6
                      A                      A                      A
 Frequencies --    265.0379               311.6737               322.6352
 Red. masses --      2.5360                 1.1311                 1.0941
 Frc consts  --      0.1050                 0.0647                 0.0671
 IR Inten    --      0.9573                44.6834                28.9267

                      7                      8                      9
                      A                      A                      A
 Frequencies --    372.7701               396.1775               465.6685
 Red. masses --      2.5945                 2.3626                 2.4914
 Frc consts  --      0.2124                 0.2185                 0.3183
 IR Inten    --      4.5528                10.2957                12.6054

                     10                     11                     12
                      A                      A                      A
 Frequencies --    511.5326               535.9467               732.2144
 Red. masses --      2.5256                 2.7968                 2.5237
 Frc consts  --      0.3894                 0.4733                 0.7972
 IR Inten    --     14.5756                12.9923                75.4756

                     13                     14                     15
                      A                      A                      A
 Frequencies --    804.9273               881.3129               896.5998
 Red. masses --      1.7815                 1.6339                 1.5665
 Frc consts  --      0.6801                 0.7477                 0.7419
 IR Inten    --     71.4826               138.3910                58.0420

                     16                     17                     18
                      A                      A                      A
 Frequencies --    929.2065               989.0743               995.4837
 Red. masses --      1.8116                 1.4368                 1.4669
 Frc consts  --      0.9216                 0.8281                 0.8565
 IR Inten    --     68.1008                12.7341                41.9651

                     19                     20                     21
                      A                      A                      A
 Frequencies --   1082.1534              1108.8456              1162.9008
 Red. masses --      1.4871                 2.8675                 1.4991
 Frc consts  --      1.0261                 2.0773                 1.1945
 IR Inten    --     11.8511                29.5454                37.2950

                     22                     23                     24
                      A                      A                      A
 Frequencies --   1175.1874              1234.6341              1312.2024
 Red. masses --      1.4725                 2.2966                 2.3348
 Frc consts  --      1.1982                 2.0626                 2.3686
 IR Inten    --     15.7270                82.5786                52.2815

                     25                     26                     27
                      A                      A                      A
 Frequencies --   1366.9948              1419.3688              1455.4500
 Red. masses --      1.5962                 1.3725                 1.1636
 Frc consts  --      1.7573                 1.6291                 1.4523
 IR Inten    --     11.9901                22.3170                 3.6150

                     28                     29                     30
                      A                      A                      A
 Frequencies --   1481.9688              1498.4822              1512.3502
 Red. masses --      1.2394                 1.0501                 1.0954
 Frc consts  --      1.6038                 1.3892                 1.4762
 IR Inten    --     15.5018                 0.1997                 2.6947

                     31                     32                     33
                      A                      A                      A
 Frequencies --   1519.9910              1538.4089              1652.4327
 Red. masses --      1.0791                 1.0557                 1.1019
 Frc consts  --      1.4689                 1.4721                 1.7727
 IR Inten    --      7.7929                 7.3522                34.5899

                     34                     35                     36
                      A                      A                      A
 Frequencies --   1661.5752              2978.9115              3048.4369
 Red. masses --      1.1040                 1.0571                 1.0395
 Frc consts  --      1.7958                 5.5270                 5.6913
 IR Inten    --     27.4143                78.6170                18.6284

                     37                     38                     39
                      A                      A                      A
 Frequencies --   3080.7742              3117.7693              3148.1896
 Red. masses --      1.0810                 1.0997                 1.0986
 Frc consts  --      6.0449                 6.2984                 6.4151
 IR Inten    --     48.0893                26.4167                11.4078

                     40                     41                     42
                      A                      A                      A
 Frequencies --   3152.8080              3459.6567              3483.8396
 Red. masses --      1.1010                 1.0488                 1.0499
 Frc consts  --      6.4483                 7.3962                 7.5081
 IR Inten    --     17.8078                 2.9219                 0.1992

                     43                     44                     45
                      A                      A                      A
 Frequencies --   3519.3410              3549.6159              3576.1627
 Red. masses --      1.0743                 1.0922                 1.0915
 Frc consts  --      7.8398                 8.1081                 8.2242
 IR Inten    --      1.0845                 1.6701                 0.5087

 - Thermochemistry -
 -------------------
 Temperature   298.150 Kelvin.  Pressure   1.00000 Atm.
 Atom     1 has atomic number  6 and mass  12.00000

 Molecular mass:    89.09530 amu.
 Principal axes and moments of inertia in atomic units:
                           1         2         3
     Eigenvalues --   393.19089 665.50875 675.15638
           X            1.00000  -0.00182  -0.00185
           Y            0.00150   0.98720  -0.15949
           Z            0.00211   0.15948   0.98720
 This molecule is an asymmetric top.
 Rotational symmetry number  1.
 Rotational temperatures (Kelvin)      0.22028     0.13015     0.12829
 Rotational constants (GHZ):           4.58999     2.71182     2.67307
 Zero-point vibrational energy     408440.5 (Joules/Mol)
                                   97.61962 (Kcal/Mol)
 Warning -- explicit consideration of  11 degrees of freedom as
           vibrations may cause significant error
 Vibrational temperatures:    181.76   297.17   351.53   381.33   448.43
          (Kelvin)            464.20   536.33   570.01   669.99   735.98
                              771.11  1053.49  1158.11  1268.01  1290.01
                             1336.92  1423.06  1432.28  1556.98  1595.38
                             1673.15  1690.83  1776.36  1887.96  1966.80
                             2042.15  2094.07  2132.22  2155.98  2175.93
                             2186.93  2213.42  2377.48  2390.63  4285.98
                             4386.02  4432.54  4485.77  4529.54  4536.18
                             4977.67  5012.46  5063.54  5107.10  5145.29

 Zero-point correction=                           0.155567 (Hartree/Particle)
 Thermal correction to Energy=                    0.163287
 Thermal correction to Enthalpy=                  0.164232
 Thermal correction to Gibbs Free Energy=         0.124960
 Sum of electronic and zero-point Energies=           -285.047925
 Sum of electronic and thermal Energies=              -285.040204
 Sum of electronic and thermal Enthalpies=            -285.039260
 Sum of electronic and thermal Free Energies=         -285.078532

                     E (Thermal)             CV                S
                      KCal/Mol        Cal/Mol-Kelvin    Cal/Mol-Kelvin
 Total                  102.464             29.012             82.655
 Electronic               0.000              0.000              0.000
 Translational            0.889              2.981             39.374
 Rotational               0.889              2.981             26.671
 Vibrational            100.687             23.050             16.609
 Vibration     1          0.611              1.927              3.001
 Vibration     2          0.641              1.831              2.074
 Vibration     3          0.660              1.772              1.771
 Vibration     4          0.671              1.737              1.628
 Vibration     5          0.700              1.651              1.353
 Vibration     6          0.708              1.630              1.297
 Vibration     7          0.744              1.528              1.068
 Vibration     8          0.763              1.478              0.977
 Vibration     9          0.823              1.326              0.750
 Vibration    10          0.867              1.224              0.630
 Vibration    11          0.891              1.171              0.574

 Optimization completed.
    -- Stationary point found.
 Normal termination of Gaussian 09 at Thu Sep  8 14:53:12 2022.
