 Gaussian 09, Revision E.01,
 Gaussian 09:  ES64L-G09RevE.01 30-Nov-2015

 ----------------------------
 #P OPT Freq B3LYP/6-31G(d,p)
 ----------------------------

 --------
 Frag_855
 --------
 Symbolic Z-matrix:
 Charge =  0 Multiplicity = 1

 SCF Done:  E(RB3LYP) =  -269.057282957     A.U. after   14 cycles
 SCF Done:  E(RB3LYP) =  -269.057331651     A.U. after    9 cycles
 SCF Done:  E(RB3LYP) =  -269.057333553     A.U. after    8 cycles
 SCF Done:  E(RB3LYP) =  -269.057335340     A.U. after    8 cycles
 SCF Done:  E(RB3LYP) =  -269.057335354     A.U. after    7 cycles
 Optimization completed.
    -- Stationary point found.
 Normal termination of Gaussian 09 at Thu Sep  8 15:05:25 2022.

 ----------------------------------------------------------------------
 #P Geom=AllCheck Guess=TCheck SCRF=Check GenChk RB3LYP/6-31G(d,p) Freq
 ----------------------------------------------------------------------

 Structure from the checkpoint file:  "B3LYP6-31Gdp.Frag_855.chk"
 --------
 Frag_855
 --------
 Charge =  0 Multiplicity = 1

                         Standard orientation:
 ---------------------------------------------------------------------
 Center     Atomic      Atomic             Coordinates (Angstroms)
 Number     Number       Type             X           Y           Z
 ---------------------------------------------------------------------
      1          6           0       -2.136466    0.012300   -0.069292
      2          6           0       -0.866855   -0.043260    0.779635
      3          7           0        0.477655   -0.004926    0.064429
      4          6           0        0.612115   -1.178314   -0.866424
      5          6           0        0.609769    1.255012   -0.722315
      6          7           0        1.569639    0.059716    1.015971
      7          1           0       -2.213837    0.939105   -0.644513
      8          1           0       -3.004688   -0.028822    0.597061
      9          1           0       -2.217449   -0.832308   -0.759855
     10          1           0       -0.801847    0.788254    1.482990
     11          1           0       -0.835864   -0.965912    1.365742
     12          1           0        1.622074   -1.131509   -1.269887
     13          1           0       -0.135776   -1.173799   -1.668336
     14          1           0        0.508470   -2.085337   -0.268568
     15          1           0        1.626417    1.268819   -1.111384
     16          1           0       -0.125231    1.299707   -1.528685
     17          1           0        0.490190    2.084393   -0.026820
     18          1           0        1.445100   -0.820548    1.539839
 ---------------------------------------------------------------------

 SCF Done:  E(RB3LYP) =  -269.057335354     A.U. after    1 cycles

 The electronic state is 1-A.
 Alpha  occ. eigenvalues --  -14.43929 -14.22591 -10.22547 -10.21996 -10.21635
 Alpha  occ. eigenvalues --  -10.19722  -0.99138  -0.77624  -0.73399  -0.72858
 Alpha  occ. eigenvalues --   -0.66388  -0.59016  -0.50387  -0.49769  -0.46521
 Alpha  occ. eigenvalues --   -0.45083  -0.41251  -0.40879  -0.40312  -0.38589
 Alpha  occ. eigenvalues --   -0.37069  -0.36190  -0.35898  -0.21780  -0.13196
 Alpha virt. eigenvalues --    0.06296   0.10041   0.11561   0.12720   0.12891
 Alpha virt. eigenvalues --    0.13326   0.13620   0.15671   0.16643   0.17645
 Alpha virt. eigenvalues --    0.18548   0.19337   0.21305   0.21683   0.23017

 Mulliken charges:
               1
     1  C   -0.347208
     2  C   -0.024884
     3  N   -0.267148
     4  C   -0.148599
     5  C   -0.134215
     6  N   -0.589877
     7  H    0.118489
     8  H    0.122496
     9  H    0.114738
    10  H    0.136041
    11  H    0.112490
    12  H    0.144584
    13  H    0.097352
    14  H    0.121112
    15  H    0.146998
    16  H    0.101164
    17  H    0.141793
    18  H    0.154677
 Sum of Mulliken charges =  -0.00000

 Dipole moment (field-independent basis, Debye):
    X=             -3.7583    Y=             -0.8663    Z=             -2.5430  Tot=              4.6197
 Quadrupole moment (field-independent basis, Debye-Ang):
   XX=            -45.7437   YY=            -36.7881   ZZ=            -40.6276
   XY=             -1.5728   XZ=             -5.5884   YZ=             -1.9141

  Exact polarizability:  66.131   0.264  57.044   3.006  -0.765  59.191
 Approx polarizability:  90.127   2.264  79.997   8.419  -0.660  85.747

                      1                      2                      3
                      A                      A                      A
 Frequencies --    106.0870               211.1528               265.9277
 Red. masses --      1.6950                 1.0326                 1.3237
 Frc consts  --      0.0112                 0.0271                 0.0552
 IR Inten    --      1.0343                 1.6393                 7.8099

                      4                      5                      6
                      A                      A                      A
 Frequencies --    279.6707               300.8474               369.6468
 Red. masses --      2.2153                 1.0994                 2.2376
 Frc consts  --      0.1021                 0.0586                 0.1801
 IR Inten    --      3.7429                 0.2676                 2.1304

                      7                      8                      9
                      A                      A                      A
 Frequencies --    389.2984               411.8278               467.5064
 Red. masses --      2.3602                 1.2203                 2.9438
 Frc consts  --      0.2108                 0.1219                 0.3791
 IR Inten    --      3.2811                49.9849                30.2134

                     10                     11                     12
                      A                      A                      A
 Frequencies --    486.1143               505.9696               713.1291
 Red. masses --      2.7365                 2.5673                 3.1838
 Frc consts  --      0.3810                 0.3872                 0.9540
 IR Inten    --     21.3885                13.7907                 2.3877

                     13                     14                     15
                      A                      A                      A
 Frequencies --    788.1251               801.1883               885.2660
 Red. masses --      5.0635                 1.1887                 2.0307
 Frc consts  --      1.8531                 0.4496                 0.9376
 IR Inten    --      9.3034                 5.9525                 1.1804

                     16                     17                     18
                      A                      A                      A
 Frequencies --    964.9880              1014.2698              1078.5661
 Red. masses --      2.0909                 3.0009                 1.2219
 Frc consts  --      1.1472                 1.8189                 0.8375
 IR Inten    --      1.4958                15.6773                 1.1619

                     19                     20                     21
                      A                      A                      A
 Frequencies --   1107.7534              1117.8001              1194.9962
 Red. masses --      1.7359                 1.4615                 1.5956
 Frc consts  --      1.2551                 1.0759                 1.3425
 IR Inten    --     10.4610                 6.3141                 5.7988

                     22                     23                     24
                      A                      A                      A
 Frequencies --   1221.5736              1263.1080              1320.9891
 Red. masses --      1.7198                 1.8169                 1.2541
 Frc consts  --      1.5120                 1.7079                 1.2894
 IR Inten    --      3.4967                 0.6474                 1.7919

                     25                     26                     27
                      A                      A                      A
 Frequencies --   1363.4338              1414.3748              1421.6358
 Red. masses --      1.2329                 1.1678                 1.2301
 Frc consts  --      1.3503                 1.3764                 1.4648
 IR Inten    --      1.1870                 2.0280                 5.6509

                     28                     29                     30
                      A                      A                      A
 Frequencies --   1446.8716              1469.7539              1478.2481
 Red. masses --      1.1879                 1.1397                 1.0662
 Frc consts  --      1.4652                 1.4505                 1.3727
 IR Inten    --      8.8263                 6.8435                 4.5003

                     31                     32                     33
                      A                      A                      A
 Frequencies --   1489.7884              1502.2268              1511.5250
 Red. masses --      1.0728                 1.0590                 1.0450
 Frc consts  --      1.4029                 1.4081                 1.4068
 IR Inten    --      1.9662                16.2281                 7.8483

                     34                     35                     36
                      A                      A                      A
 Frequencies --   1513.9311              1523.6548              1527.3801
 Red. masses --      1.0891                 1.0532                 1.1631
 Frc consts  --      1.4707                 1.4406                 1.5986
 IR Inten    --      9.1846                 6.7791                19.6254

                     37                     38                     39
                      A                      A                      A
 Frequencies --   3031.6813              3051.2676              3079.2934
 Red. masses --      1.0427                 1.0364                 1.0363
 Frc consts  --      5.6466                 5.6850                 5.7896
 IR Inten    --     44.4888                18.9925                30.3933

                     40                     41                     42
                      A                      A                      A
 Frequencies --   3086.0758              3117.0182              3126.7986
 Red. masses --      1.0631                 1.1009                 1.1003
 Frc consts  --      5.9655                 6.3017                 6.3379
 IR Inten    --      2.2064                19.4024                15.8973

                     43                     44                     45
                      A                      A                      A
 Frequencies --   3139.9631              3154.4450              3177.5821
 Red. masses --      1.0940                 1.1041                 1.1029
 Frc consts  --      6.3549                 6.4732                 6.5609
 IR Inten    --     18.5983                20.2731                12.3463

                     46                     47                     48
                      A                      A                      A
 Frequencies --   3188.2368              3196.3147              3324.1696
 Red. masses --      1.1047                 1.1057                 1.0739
 Frc consts  --      6.6159                 6.6554                 6.9916
 IR Inten    --      5.3355                 6.0755                69.1813

 - Thermochemistry -
 -------------------
 Temperature   298.150 Kelvin.  Pressure   1.00000 Atm.
 Atom     1 has atomic number  6 and mass  12.00000

 Molecular mass:    88.10005 amu.
 Principal axes and moments of inertia in atomic units:
                           1         2         3
     Eigenvalues --   382.75186 682.80345 690.36475
           X            0.99958  -0.02220  -0.01872
           Y            0.01137   0.89244  -0.45102
           Z            0.02672   0.45062   0.89232
 This molecule is an asymmetric top.
 Rotational symmetry number  1.
 Rotational temperatures (Kelvin)      0.22629     0.12685     0.12546
 Rotational constants (GHZ):           4.71517     2.64313     2.61419
 Zero-point vibrational energy     434253.2 (Joules/Mol)
                                  103.78901 (Kcal/Mol)
 Warning -- explicit consideration of  11 degrees of freedom as
           vibrations may cause significant error
 Vibrational temperatures:    152.64   303.80   382.61   402.38   432.85
          (Kelvin)            531.84   560.11   592.53   672.64   699.41
                              727.98  1026.03  1133.93  1152.73  1273.70
                             1388.40  1459.31  1551.81  1593.81  1608.26
                             1719.33  1757.57  1817.33  1900.61  1961.67
                             2034.97  2045.41  2081.72  2114.65  2126.87
                             2143.47  2161.37  2174.74  2178.21  2192.20
                             2197.56  4361.91  4390.09  4430.41  4440.17
                             4484.69  4498.76  4517.70  4538.54  4571.83
                             4587.16  4598.78  4782.73

 Zero-point correction=                           0.165398 (Hartree/Particle)
 Thermal correction to Energy=                    0.173088
 Thermal correction to Enthalpy=                  0.174033
 Thermal correction to Gibbs Free Energy=         0.134784
 Sum of electronic and zero-point Energies=           -268.891937
 Sum of electronic and thermal Energies=              -268.884247
 Sum of electronic and thermal Enthalpies=            -268.883303
 Sum of electronic and thermal Free Energies=         -268.922552

                     E (Thermal)             CV                S
                      KCal/Mol        Cal/Mol-Kelvin    Cal/Mol-Kelvin
 Total                  108.615             29.132             82.606
 Electronic               0.000              0.000              0.000
 Translational            0.889              2.981             39.340
 Rotational               0.889              2.981             26.692
 Vibrational            106.837             23.171             16.574
 Vibration     1          0.605              1.944              3.339
 Vibration     2          0.643              1.824              2.034
 Vibration     3          0.672              1.736              1.623
 Vibration     4          0.680              1.711              1.536
 Vibration     5          0.693              1.672              1.412
 Vibration     6          0.742              1.535              1.081
 Vibration     7          0.757              1.493              1.003
 Vibration     8          0.776              1.445              0.920
 Vibration     9          0.825              1.322              0.745
 Vibration    10          0.842              1.281              0.694
 Vibration    11          0.861              1.237              0.643

 Optimization completed.
    -- Stationary point found.
 Normal termination of Gaussian 09 at Thu Sep  8 15:05:41 2022.
