 Gaussian 09, Revision E.01,
 Gaussian 09:  ES64L-G09RevE.01 30-Nov-2015

 ----------------------------
 #P OPT Freq B3LYP/6-31G(d,p)
 ----------------------------

 --------
 Frag_910
 --------
 Symbolic Z-matrix:
 Charge =  0 Multiplicity = 1

 SCF Done:  E(RB3LYP) =  -303.815179363     A.U. after   14 cycles
 SCF Done:  E(RB3LYP) =  -303.815243163     A.U. after   11 cycles
 SCF Done:  E(RB3LYP) =  -303.815247372     A.U. after    9 cycles
 SCF Done:  E(RB3LYP) =  -303.815248875     A.U. after    8 cycles
 Optimization completed.
    -- Stationary point found.
 Normal termination of Gaussian 09 at Thu Sep  8 15:18:31 2022.

 ----------------------------------------------------------------------
 #P Geom=AllCheck Guess=TCheck SCRF=Check GenChk RB3LYP/6-31G(d,p) Freq
 ----------------------------------------------------------------------

 Structure from the checkpoint file:  "B3LYP6-31Gdp.Frag_910.chk"
 --------
 Frag_910
 --------
 Charge =  0 Multiplicity = 1

                         Standard orientation:
 ---------------------------------------------------------------------
 Center     Atomic      Atomic             Coordinates (Angstroms)
 Number     Number       Type             X           Y           Z
 ---------------------------------------------------------------------
      1          6           0       -1.038523   -1.274614   -0.432188
      2          6           0       -0.312882    0.000094    0.025583
      3          6           0       -1.038095    1.276636   -0.427895
      4          8           0       -0.117264   -0.002111    1.426919
      5          7           0        0.984366    0.001101   -0.686957
      6          7           0        1.984067   -0.000443    0.052283
      7          1           0       -1.114914   -1.315664   -1.521446
      8          1           0       -0.491731   -2.153444   -0.080661
      9          1           0       -2.050230   -1.300514   -0.012926
     10          1           0       -0.490866    2.153979   -0.073384
     11          1           0       -1.114683    1.321453   -1.517005
     12          1           0       -2.049598    1.301551   -0.008160
     13          1           0       -0.992268   -0.008889    1.836461
     14          1           0        2.800378    0.001111   -0.588522
 ---------------------------------------------------------------------

 SCF Done:  E(RB3LYP) =  -303.815248875     A.U. after    1 cycles

 The electronic state is 1-A.
 Alpha  occ. eigenvalues --  -19.14623 -14.37949 -14.37093 -10.26916 -10.18480
 Alpha  occ. eigenvalues --  -10.18466  -1.04657  -1.00163  -0.79660  -0.70066
 Alpha  occ. eigenvalues --   -0.68003  -0.56348  -0.51412  -0.47504  -0.45358
 Alpha  occ. eigenvalues --   -0.42228  -0.40416  -0.40270  -0.38484  -0.37167
 Alpha  occ. eigenvalues --   -0.34796  -0.33465  -0.27284  -0.22329
 Alpha virt. eigenvalues --   -0.03387   0.06499   0.11049   0.12479   0.13695
 Alpha virt. eigenvalues --    0.15779   0.15950   0.18783   0.19278   0.20931
 Alpha virt. eigenvalues --    0.23552   0.24828   0.25584   0.39026   0.49611

 Mulliken charges:
               1
     1  C   -0.312776
     2  C    0.376265
     3  C   -0.312239
     4  O   -0.522815
     5  N   -0.228208
     6  N   -0.235603
     7  H    0.119208
     8  H    0.126722
     9  H    0.095625
    10  H    0.126702
    11  H    0.119009
    12  H    0.095615
    13  H    0.303223
    14  H    0.249273
 Sum of Mulliken charges =  -0.00000

 Dipole moment (field-independent basis, Debye):
    X=             -1.9499    Y=             -0.0082    Z=             -0.7316  Tot=              2.0827
 Quadrupole moment (field-independent basis, Debye-Ang):
   XX=            -31.9884   YY=            -35.8995   ZZ=            -38.2415
   XY=              0.0221   XZ=             -4.7243   YZ=             -0.0140

  Exact polarizability:  63.677   0.011  42.260  -0.764  -0.017  44.884
 Approx polarizability:  88.511   0.012  54.395   3.170  -0.036  67.592

                      1                      2                      3
                      A                      A                      A
 Frequencies --    100.4616               202.3608               230.7889
 Red. masses --      5.7550                 1.0426                 1.0302
 Frc consts  --      0.0342                 0.0252                 0.0323
 IR Inten    --      0.3462               109.4829                 9.6320

                      4                      5                      6
                      A                      A                      A
 Frequencies --    260.1409               311.7126               356.6596
 Red. masses --      1.0552                 2.9661                 3.2084
 Frc consts  --      0.0421                 0.1698                 0.2405
 IR Inten    --      0.0389                 2.2591                 5.5884

                      7                      8                      9
                      A                      A                      A
 Frequencies --    360.3351               418.7077               480.5153
 Red. masses --      3.5780                 2.6744                 3.3486
 Frc consts  --      0.2737                 0.2762                 0.4555
 IR Inten    --      4.7878                 1.3513                 3.7755

                     10                     11                     12
                      A                      A                      A
 Frequencies --    630.1882               760.1777               855.7245
 Red. masses --      4.0969                 4.6791                 2.7318
 Frc consts  --      0.9586                 1.5931                 1.1786
 IR Inten    --     10.4407                10.4073                31.0785

                     13                     14                     15
                      A                      A                      A
 Frequencies --    912.1174               946.2599               990.9747
 Red. masses --      1.5614                 1.1867                 1.8421
 Frc consts  --      0.7654                 0.6261                 1.0658
 IR Inten    --     13.9867                11.0238                 7.4108

                     16                     17                     18
                      A                      A                      A
 Frequencies --   1033.7217              1123.0772              1237.5367
 Red. masses --      1.3229                 1.3968                 2.9751
 Frc consts  --      0.8329                 1.0380                 2.6845
 IR Inten    --      3.7968                83.8571                61.1252

                     19                     20                     21
                      A                      A                      A
 Frequencies --   1245.3346              1343.2910              1402.0136
 Red. masses --      3.1460                 1.6905                 1.2700
 Frc consts  --      2.8747                 1.7973                 1.4708
 IR Inten    --     90.5768                41.4247                10.7311

                     22                     23                     24
                      A                      A                      A
 Frequencies --   1418.8299              1490.3499              1491.7228
 Red. masses --      1.2308                 1.2694                 1.0482
 Frc consts  --      1.4598                 1.6612                 1.3742
 IR Inten    --      6.1465                18.5778                 0.2201

                     25                     26                     27
                      A                      A                      A
 Frequencies --   1496.3520              1507.7269              1521.4501
 Red. masses --      1.0489                 1.0683                 1.0792
 Frc consts  --      1.3837                 1.4308                 1.4719
 IR Inten    --      0.4055                 4.9618                 8.0652

                     28                     29                     30
                      A                      A                      A
 Frequencies --   1664.3848              3047.9503              3052.2711
 Red. masses --      9.9408                 1.0365                 1.0368
 Frc consts  --     16.2247                 5.6735                 5.6909
 IR Inten    --      4.1690                11.0968                21.7502

                     31                     32                     33
                      A                      A                      A
 Frequencies --   3123.5142              3127.9652              3146.0085
 Red. masses --      1.1002                 1.1002                 1.1041
 Frc consts  --      6.3241                 6.3420                 6.4387
 IR Inten    --      6.9310                30.8140                 7.6140

                     34                     35                     36
                      A                      A                      A
 Frequencies --   3148.7548              3234.1307              3819.9913
 Red. masses --      1.1037                 1.0744                 1.0662
 Frc consts  --      6.4476                 6.6214                 9.1666
 IR Inten    --     24.1274                47.8514                15.8782

 - Thermochemistry -
 -------------------
 Temperature   298.150 Kelvin.  Pressure   1.00000 Atm.
 Atom     1 has atomic number  6 and mass  12.00000

 Molecular mass:    88.06366 amu.
 Principal axes and moments of inertia in atomic units:
                           1         2         3
     Eigenvalues --   383.34925 599.96791 611.71631
           X            1.00000   0.00010   0.00246
           Y           -0.00010   1.00000   0.00058
           Z           -0.00246  -0.00058   1.00000
 This molecule is an asymmetric top.
 Rotational symmetry number  1.
 Rotational temperatures (Kelvin)      0.22594     0.14436     0.14159
 Rotational constants (GHZ):           4.70783     3.00806     2.95029
 Zero-point vibrational energy     307999.5 (Joules/Mol)
                                   73.61366 (Kcal/Mol)
 Warning -- explicit consideration of   9 degrees of freedom as
           vibrations may cause significant error
 Vibrational temperatures:    144.54   291.15   332.05   374.28   448.48
          (Kelvin)            513.15   518.44   602.43   691.35   906.70
                             1093.72  1231.20  1312.33  1361.46  1425.79
                             1487.29  1615.86  1780.54  1791.76  1932.69
                             2017.18  2041.38  2144.28  2146.25  2152.91
                             2169.28  2189.02  2394.68  4385.32  4391.53
                             4494.03  4500.44  4526.40  4530.35  4653.19
                             5496.11

 Zero-point correction=                           0.117311 (Hartree/Particle)
 Thermal correction to Energy=                    0.124628
 Thermal correction to Enthalpy=                  0.125573
 Thermal correction to Gibbs Free Energy=         0.086814
 Sum of electronic and zero-point Energies=           -303.697938
 Sum of electronic and thermal Energies=              -303.690620
 Sum of electronic and thermal Enthalpies=            -303.689676
 Sum of electronic and thermal Free Energies=         -303.728435

                     E (Thermal)             CV                S
                      KCal/Mol        Cal/Mol-Kelvin    Cal/Mol-Kelvin
 Total                   78.206             26.047             81.575
 Electronic               0.000              0.000              0.000
 Translational            0.889              2.981             39.339
 Rotational               0.889              2.981             26.445
 Vibrational             76.428             20.085             15.791
 Vibration     1          0.604              1.949              3.445
 Vibration     2          0.639              1.837              2.112
 Vibration     3          0.652              1.794              1.873
 Vibration     4          0.668              1.746              1.661
 Vibration     5          0.700              1.651              1.353
 Vibration     6          0.732              1.562              1.137
 Vibration     7          0.735              1.554              1.121
 Vibration     8          0.782              1.430              0.896
 Vibration     9          0.837              1.293              0.709

 Normal termination of Gaussian 09 at Thu Sep  8 15:18:42 2022.
