 Gaussian 09, Revision E.01,
 Gaussian 09:  ES64L-G09RevE.01 30-Nov-2015

 ----------------------------
 #P OPT Freq B3LYP/6-31G(d,p)
 ----------------------------

 --------
 Frag_799
 --------
 Symbolic Z-matrix:
 Charge =  0 Multiplicity = 1

 SCF Done:  E(RB3LYP) =  -339.698049731     A.U. after   15 cycles
 SCF Done:  E(RB3LYP) =  -339.698146082     A.U. after   10 cycles
 SCF Done:  E(RB3LYP) =  -339.698079373     A.U. after   12 cycles
 SCF Done:  E(RB3LYP) =  -339.698164617     A.U. after   12 cycles
 SCF Done:  E(RB3LYP) =  -339.698166299     A.U. after   10 cycles
 SCF Done:  E(RB3LYP) =  -339.698167230     A.U. after    9 cycles
 SCF Done:  E(RB3LYP) =  -339.698167838     A.U. after    9 cycles
 SCF Done:  E(RB3LYP) =  -339.698168158     A.U. after    9 cycles
 SCF Done:  E(RB3LYP) =  -339.698168269     A.U. after    8 cycles
 Optimization completed.
    -- Stationary point found.
 Normal termination of Gaussian 09 at Thu Sep  8 14:56:19 2022.

 ----------------------------------------------------------------------
 #P Geom=AllCheck Guess=TCheck SCRF=Check GenChk RB3LYP/6-31G(d,p) Freq
 ----------------------------------------------------------------------

 Structure from the checkpoint file:  "B3LYP6-31Gdp.Frag_799.chk"
 --------
 Frag_799
 --------
 Charge =  0 Multiplicity = 1

                         Standard orientation:
 ---------------------------------------------------------------------
 Center     Atomic      Atomic             Coordinates (Angstroms)
 Number     Number       Type             X           Y           Z
 ---------------------------------------------------------------------
      1          6           0        1.310496    1.098903    0.550379
      2          6           0        0.661674    0.150953   -0.453366
      3          8           0        1.240744   -1.105618   -0.499803
      4          7           0       -0.803274   -0.024664   -0.038809
      5          7           0       -1.629718    0.797750   -0.523108
      6          8           0       -1.017738   -0.947885    0.781840
      7          1           0        0.833568    2.082005    0.527293
      8          1           0        1.233662    0.683922    1.559678
      9          1           0        2.367030    1.205277    0.294040
     10          1           0        0.633967    0.572659   -1.459013
     11          1           0        0.881142   -1.586133    0.268446
     12          1           0       -2.535490    0.559555   -0.095396
 ---------------------------------------------------------------------

 SCF Done:  E(RB3LYP) =  -339.698168269     A.U. after    1 cycles

 The electronic state is 1-A.
 Alpha  occ. eigenvalues --  -19.17253 -19.16532 -14.53040 -14.37694 -10.29736
 Alpha  occ. eigenvalues --  -10.19942  -1.17436  -1.05044  -0.97006  -0.79665
 Alpha  occ. eigenvalues --   -0.70644  -0.61588  -0.55243  -0.53640  -0.50917
 Alpha  occ. eigenvalues --   -0.47924  -0.45006  -0.41223  -0.39735  -0.37822
 Alpha  occ. eigenvalues --   -0.33690  -0.29624  -0.28969  -0.28008
 Alpha virt. eigenvalues --   -0.05361   0.08892   0.10295   0.11294   0.13056
 Alpha virt. eigenvalues --    0.14565   0.15836   0.17135   0.21547   0.24692
 Alpha virt. eigenvalues --    0.25820   0.35580   0.49482   0.51452   0.53483

 Mulliken charges:
               1
     1  C   -0.321391
     2  C    0.278181
     3  O   -0.518907
     4  N    0.214685
     5  N   -0.312253
     6  O   -0.455706
     7  H    0.129909
     8  H    0.125994
     9  H    0.137416
    10  H    0.141310
    11  H    0.323294
    12  H    0.257468
 Sum of Mulliken charges =  -0.00000

 Dipole moment (field-independent basis, Debye):
    X=              0.3381    Y=              1.2645    Z=              0.5959  Tot=              1.4382
 Quadrupole moment (field-independent basis, Debye-Ang):
   XX=            -33.7920   YY=            -36.8641   ZZ=            -36.7397
   XY=              1.2102   XZ=              1.2757   YZ=              0.4169

  Exact polarizability:  49.792  -3.989  43.890   1.015  -7.243  36.425
 Approx polarizability:  66.254 -12.854  77.599   3.560 -24.196  61.365

                      1                      2                      3
                      A                      A                      A
 Frequencies --     65.6068               240.7502               263.0229
 Red. masses --      5.8348                 1.0665                 2.7760
 Frc consts  --      0.0148                 0.0364                 0.1131
 IR Inten    --      3.6579                 0.2813                 2.4578

                      4                      5                      6
                      A                      A                      A
 Frequencies --    325.0213               390.7865               448.2479
 Red. masses --      2.9330                 2.9018                 1.5141
 Frc consts  --      0.1826                 0.2611                 0.1792
 IR Inten    --     38.5269                12.0233               124.2381

                      7                      8                      9
                      A                      A                      A
 Frequencies --    528.5891               664.2813               678.4625
 Red. masses --      3.7923                 2.7562                 4.1123
 Frc consts  --      0.6243                 0.7166                 1.1153
 IR Inten    --     19.8506                13.6001                22.2736

                     10                     11                     12
                      A                      A                      A
 Frequencies --    787.3542               915.7949               933.0437
 Red. masses --      3.3601                 1.9782                 1.4247
 Frc consts  --      1.2273                 0.9775                 0.7308
 IR Inten    --     27.0957                15.6717                59.8254

                     13                     14                     15
                      A                      A                      A
 Frequencies --   1058.5980              1114.7108              1177.9850
 Red. masses --      1.5611                 1.8463                 2.4113
 Frc consts  --      1.0307                 1.3517                 1.9714
 IR Inten    --     34.9875                27.1372               157.4617

                     16                     17                     18
                      A                      A                      A
 Frequencies --   1264.7824              1300.3460              1370.5733
 Red. masses --      3.0968                 1.4853                 1.4551
 Frc consts  --      2.9187                 1.4798                 1.6104
 IR Inten    --     18.3537                13.6491                21.0882

                     19                     20                     21
                      A                      A                      A
 Frequencies --   1412.7888              1434.0007              1499.7126
 Red. masses --      1.2785                 1.2316                 1.0616
 Frc consts  --      1.5035                 1.4922                 1.4068
 IR Inten    --     17.4415               129.6219                20.2116

                     22                     23                     24
                      A                      A                      A
 Frequencies --   1505.4890              1516.9510              1637.2593
 Red. masses --      1.1002                 1.7536                 9.2175
 Frc consts  --      1.4692                 2.3776                14.5579
 IR Inten    --      0.6291                53.2477               157.7577

                     25                     26                     27
                      A                      A                      A
 Frequencies --   3061.2533              3132.8172              3150.7050
 Red. masses --      1.0345                 1.0940                 1.0985
 Frc consts  --      5.7117                 6.3262                 6.4250
 IR Inten    --      5.8866                 1.1098                17.4851

                     28                     29                     30
                      A                      A                      A
 Frequencies --   3153.2818              3398.7036              3692.8983
 Red. masses --      1.1037                 1.0714                 1.0637
 Frc consts  --      6.4660                 7.2916                 8.5466
 IR Inten    --      9.0648                 1.3370                64.7006

 - Thermochemistry -
 -------------------
 Temperature   298.150 Kelvin.  Pressure   1.00000 Atm.
 Atom     1 has atomic number  6 and mass  12.00000

 Molecular mass:    90.04293 amu.
 Principal axes and moments of inertia in atomic units:
                           1         2         3
     Eigenvalues --   341.03679 562.67602 699.11977
           X            0.99846   0.04833   0.02726
           Y           -0.04926   0.99819   0.03446
           Z           -0.02555  -0.03575   0.99903
 This molecule is an asymmetric top.
 Rotational symmetry number  1.
 Rotational temperatures (Kelvin)      0.25397     0.15393     0.12389
 Rotational constants (GHZ):           5.29193     3.20743     2.58145
 Zero-point vibrational energy     251956.4 (Joules/Mol)
                                   60.21902 (Kcal/Mol)
 Warning -- explicit consideration of   7 degrees of freedom as
           vibrations may cause significant error
 Vibrational temperatures:     94.39   346.39   378.43   467.63   562.25
          (Kelvin)            644.93   760.52   955.75   976.15  1132.83
                             1317.62  1342.44  1523.08  1603.82  1694.86
                             1819.74  1870.91  1971.95  2032.69  2063.20
                             2157.75  2166.06  2182.55  2355.65  4404.46
                             4507.42  4533.16  4536.86  4889.97  5313.25

 Zero-point correction=                           0.095965 (Hartree/Particle)
 Thermal correction to Energy=                    0.102310
 Thermal correction to Enthalpy=                  0.103254
 Thermal correction to Gibbs Free Energy=         0.065870
 Sum of electronic and zero-point Energies=           -339.602203
 Sum of electronic and thermal Energies=              -339.595858
 Sum of electronic and thermal Enthalpies=            -339.594914
 Sum of electronic and thermal Free Energies=         -339.632299

                     E (Thermal)             CV                S
                      KCal/Mol        Cal/Mol-Kelvin    Cal/Mol-Kelvin
 Total                   64.201             22.192             78.682
 Electronic               0.000              0.000              0.000
 Translational            0.889              2.981             39.405
 Rotational               0.889              2.981             26.398
 Vibrational             62.423             16.230             12.879
 Vibration     1          0.597              1.971              4.281
 Vibration     2          0.658              1.778              1.797
 Vibration     3          0.670              1.741              1.642
 Vibration     4          0.709              1.625              1.285
 Vibration     5          0.758              1.490              0.997
 Vibration     6          0.807              1.365              0.801
 Vibration     7          0.884              1.187              0.590

 Optimization completed.
    -- Stationary point found.
 Normal termination of Gaussian 09 at Thu Sep  8 14:56:29 2022.
