 Gaussian 09, Revision E.01,
 Gaussian 09:  ES64L-G09RevE.01 30-Nov-2015

 ----------------------------
 #P OPT Freq B3LYP/6-31G(d,p)
 ----------------------------

 --------
 Frag_791
 --------
 Symbolic Z-matrix:
 Charge =  0 Multiplicity = 1

 SCF Done:  E(RB3LYP) =  -285.519469913     A.U. after   13 cycles
 SCF Done:  E(RB3LYP) =  -285.519532762     A.U. after    8 cycles
 SCF Done:  E(RB3LYP) =  -285.519542081     A.U. after    8 cycles
 SCF Done:  E(RB3LYP) =  -285.519544070     A.U. after    8 cycles
 Optimization completed.
    -- Stationary point found.
 Normal termination of Gaussian 09 at Thu Sep  8 15:02:41 2022.

 ----------------------------------------------------------------------
 #P Geom=AllCheck Guess=TCheck SCRF=Check GenChk RB3LYP/6-31G(d,p) Freq
 ----------------------------------------------------------------------

 Structure from the checkpoint file:  "B3LYP6-31Gdp.Frag_791.chk"
 --------
 Frag_791
 --------
 Charge =  0 Multiplicity = 1

                         Standard orientation:
 ---------------------------------------------------------------------
 Center     Atomic      Atomic             Coordinates (Angstroms)
 Number     Number       Type             X           Y           Z
 ---------------------------------------------------------------------
      1          6           0       -1.905491   -0.094659    0.122605
      2          8           0       -0.659601   -0.550035   -0.381438
      3          7           0        0.399184    0.029864    0.388097
      4          6           0        1.559326   -0.791611    0.036154
      5          8           0        0.673269    1.315214   -0.210227
      6          1           0       -2.670093   -0.630060   -0.444978
      7          1           0       -2.009897   -0.317187    1.191418
      8          1           0       -2.032671    0.983449   -0.040853
      9          1           0        2.430449   -0.369381    0.538802
     10          1           0        1.374435   -1.804399    0.397739
     11          1           0        1.721023   -0.803734   -1.047835
     12          1           0        0.360104    1.928456    0.469795
 ---------------------------------------------------------------------

 SCF Done:  E(RB3LYP) =  -285.519544070     A.U. after    1 cycles

 The electronic state is 1-A.
 Alpha  occ. eigenvalues --  -19.17245 -19.17185 -14.42622 -10.22569 -10.20414
 Alpha  occ. eigenvalues --   -1.10103  -1.00401  -0.81979  -0.68204  -0.62514
 Alpha  occ. eigenvalues --   -0.52795  -0.49048  -0.47486  -0.43764  -0.41096
 Alpha  occ. eigenvalues --   -0.40053  -0.38521  -0.35862  -0.30882  -0.27666
 Alpha  occ. eigenvalues --   -0.23529
 Alpha virt. eigenvalues --    0.07034   0.11014   0.11292   0.12936   0.15091
 Alpha virt. eigenvalues --    0.15459   0.17683   0.18401   0.19121   0.20390
 Alpha virt. eigenvalues --    0.21029   0.51780   0.52771   0.56531   0.57614

 Mulliken charges:
               1
     1  C   -0.053174
     2  O   -0.365700
     3  N   -0.042962
     4  C   -0.123561
     5  O   -0.415873
     6  H    0.117701
     7  H    0.103362
     8  H    0.093250
     9  H    0.118866
    10  H    0.123625
    11  H    0.120995
    12  H    0.323471
 Sum of Mulliken charges =   0.00000

 Dipole moment (field-independent basis, Debye):
    X=             -0.4624    Y=              0.4186    Z=              1.2685  Tot=              1.4135
 Quadrupole moment (field-independent basis, Debye-Ang):
   XX=            -26.4251   YY=            -28.0863   ZZ=            -32.0452
   XY=             -1.8774   XZ=              0.2129   YZ=              1.8721

  Exact polarizability:  46.917   0.185  40.224   0.037   0.756  31.409
 Approx polarizability:  55.416   2.972  56.495   0.373   1.550  44.690

                      1                      2                      3
                      A                      A                      A
 Frequencies --    101.7824               196.5574               255.7186
 Red. masses --      2.7573                 1.1328                 1.1114
 Frc consts  --      0.0168                 0.0258                 0.0428
 IR Inten    --      4.0630                 3.3296                 0.2706

                      4                      5                      6
                      A                      A                      A
 Frequencies --    310.7327               347.5724               425.5439
 Red. masses --      2.6400                 1.2351                 2.2001
 Frc consts  --      0.1502                 0.0879                 0.2347
 IR Inten    --     20.1515                58.7757                10.4455

                      7                      8                      9
                      A                      A                      A
 Frequencies --    540.8340               550.4917               801.3376
 Red. masses --      6.3684                 3.1213                 5.1753
 Frc consts  --      1.0975                 0.5573                 1.9580
 IR Inten    --      1.5223                 5.2953               120.4337

                     10                     11                     12
                      A                      A                      A
 Frequencies --    840.3065              1067.0978              1104.3040
 Red. masses --      4.2714                 5.6417                 5.0811
 Frc consts  --      1.7770                 3.7851                 3.6507
 IR Inten    --     10.1781                85.8066                34.5124

                     13                     14                     15
                      A                      A                      A
 Frequencies --   1157.3915              1168.7684              1179.1919
 Red. masses --      1.3827                 1.5263                 1.3014
 Frc consts  --      1.0913                 1.2284                 1.0662
 IR Inten    --      5.7956                 6.0860                 1.8805

                     16                     17                     18
                      A                      A                      A
 Frequencies --   1230.4891              1380.9186              1439.9454
 Red. masses --      1.6135                 1.3053                 1.2035
 Frc consts  --      1.4394                 1.4666                 1.4702
 IR Inten    --     14.1531                45.8218                 0.2264

                     19                     20                     21
                      A                      A                      A
 Frequencies --   1464.4856              1490.9994              1492.4311
 Red. masses --      1.1446                 1.0550                 1.0501
 Frc consts  --      1.4463                 1.3818                 1.3780
 IR Inten    --      1.9548                 3.9513                 6.8817

                     22                     23                     24
                      A                      A                      A
 Frequencies --   1502.6899              1525.7064              3017.1947
 Red. masses --      1.0447                 1.0482                 1.0334
 Frc consts  --      1.3899                 1.4377                 5.5426
 IR Inten    --      3.2455                 8.7261                55.7007

                     25                     26                     27
                      A                      A                      A
 Frequencies --   3048.3628              3081.7527              3138.8557
 Red. masses --      1.0376                 1.1051                 1.0974
 Frc consts  --      5.6811                 6.1840                 6.3703
 IR Inten    --     24.0998                48.1487                19.9143

                     28                     29                     30
                      A                      A                      A
 Frequencies --   3139.6464              3169.9262              3798.5703
 Red. masses --      1.1012                 1.1062                 1.0679
 Frc consts  --      6.3953                 6.5489                 9.0785
 IR Inten    --     19.5079                14.0120                30.4863

 - Thermochemistry -
 -------------------
 Temperature   298.150 Kelvin.  Pressure   1.00000 Atm.
 Atom     1 has atomic number  6 and mass  12.00000

 Molecular mass:    77.04768 amu.
 Principal axes and moments of inertia in atomic units:
                           1         2         3
     Eigenvalues --   206.95139 444.61640 589.30405
           X            0.99842  -0.05543  -0.00907
           Y            0.05558   0.99830   0.01738
           Z            0.00810  -0.01786   0.99981
 This molecule is an asymmetric top.
 Rotational symmetry number  1.
 Rotational temperatures (Kelvin)      0.41852     0.19481     0.14698
 Rotational constants (GHZ):           8.72060     4.05910     3.06250
 Zero-point vibrational energy     262996.6 (Joules/Mol)
                                   62.85771 (Kcal/Mol)
 Warning -- explicit consideration of   8 degrees of freedom as
           vibrations may cause significant error
 Vibrational temperatures:    146.44   282.80   367.92   447.07   500.08
          (Kelvin)            612.26   778.14   792.03  1152.94  1209.01
                             1535.31  1588.85  1665.23  1681.59  1696.59
                             1770.40  1986.83  2071.76  2107.07  2145.21
                             2147.27  2162.03  2195.15  4341.06  4385.91
                             4433.95  4516.11  4517.25  4560.81  5465.29

 Zero-point correction=                           0.100170 (Hartree/Particle)
 Thermal correction to Energy=                    0.106530
 Thermal correction to Enthalpy=                  0.107474
 Thermal correction to Gibbs Free Energy=         0.070880
 Sum of electronic and zero-point Energies=           -285.419374
 Sum of electronic and thermal Energies=              -285.413014
 Sum of electronic and thermal Enthalpies=            -285.412070
 Sum of electronic and thermal Free Energies=         -285.448664

                     E (Thermal)             CV                S
                      KCal/Mol        Cal/Mol-Kelvin    Cal/Mol-Kelvin
 Total                   66.848             21.727             77.018
 Electronic               0.000              0.000              0.000
 Translational            0.889              2.981             38.941
 Rotational               0.889              2.981             25.498
 Vibrational             65.071             15.766             12.580
 Vibration     1          0.604              1.948              3.420
 Vibration     2          0.636              1.845              2.165
 Vibration     3          0.666              1.753              1.691
 Vibration     4          0.700              1.653              1.358
 Vibration     5          0.725              1.580              1.177
 Vibration     6          0.787              1.415              0.873
 Vibration     7          0.896              1.160              0.563
 Vibration     8          0.906              1.139              0.543

 Optimization completed.
    -- Stationary point found.
 Normal termination of Gaussian 09 at Thu Sep  8 15:02:49 2022.
