 Gaussian 09, Revision E.01,
 Gaussian 09:  ES64L-G09RevE.01 30-Nov-2015

 ----------------------------
 #P OPT Freq B3LYP/6-31G(d,p)
 ----------------------------

 --------
 Frag_927
 --------
 Symbolic Z-matrix:
 Charge =  0 Multiplicity = 1

 SCF Done:  E(RB3LYP) =  -283.987856544     A.U. after   14 cycles
 SCF Done:  E(RB3LYP) =  -283.987910913     A.U. after   11 cycles
 SCF Done:  E(RB3LYP) =  -283.987915254     A.U. after    9 cycles
 SCF Done:  E(RB3LYP) =  -283.987918848     A.U. after    8 cycles
 SCF Done:  E(RB3LYP) =  -283.987919865     A.U. after    8 cycles
 SCF Done:  E(RB3LYP) =  -283.987920447     A.U. after    7 cycles
 SCF Done:  E(RB3LYP) =  -283.987920741     A.U. after    7 cycles
 SCF Done:  E(RB3LYP) =  -283.987920885     A.U. after    7 cycles
 Optimization completed.
    -- Stationary point found.
 Normal termination of Gaussian 09 at Thu Sep  8 15:13:18 2022.

 ----------------------------------------------------------------------
 #P Geom=AllCheck Guess=TCheck SCRF=Check GenChk RB3LYP/6-31G(d,p) Freq
 ----------------------------------------------------------------------

 Structure from the checkpoint file:  "B3LYP6-31Gdp.Frag_927.chk"
 --------
 Frag_927
 --------
 Charge =  0 Multiplicity = 1

                         Standard orientation:
 ---------------------------------------------------------------------
 Center     Atomic      Atomic             Coordinates (Angstroms)
 Number     Number       Type             X           Y           Z
 ---------------------------------------------------------------------
      1          6           0        1.859783   -0.698123    0.342193
      2          6           0        0.731309    0.251038    0.020583
      3          7           0        0.837080    1.393849   -0.535713
      4          6           0       -0.685861   -0.242456    0.362133
      5          7           0       -1.713137    0.795449    0.351944
      6          7           0       -0.973885   -1.345918   -0.559498
      7          1           0        1.658523   -1.674072   -0.108661
      8          1           0        2.822084   -0.318847   -0.013587
      9          1           0        1.927004   -0.854827    1.425871
     10          1           0        1.816510    1.602617   -0.753112
     11          1           0       -0.660729   -0.674431    1.371861
     12          1           0       -1.484812    1.440069   -0.406783
     13          1           0       -1.625491    1.358278    1.197265
     14          1           0       -1.914384   -1.678713   -0.354367
     15          1           0       -1.020505   -0.966488   -1.505083
 ---------------------------------------------------------------------

 SCF Done:  E(RB3LYP) =  -283.987920885     A.U. after    1 cycles

 The electronic state is 1-A.
 Alpha  occ. eigenvalues --  -14.31734 -14.31258 -14.30245 -10.23773 -10.23446
 Alpha  occ. eigenvalues --  -10.18830  -0.92867  -0.88356  -0.83101  -0.73284
 Alpha  occ. eigenvalues --   -0.65020  -0.55541  -0.49324  -0.47671  -0.45063
 Alpha  occ. eigenvalues --   -0.44095  -0.43192  -0.41014  -0.38766  -0.35588
 Alpha  occ. eigenvalues --   -0.30415  -0.26646  -0.25151  -0.23346
 Alpha virt. eigenvalues --    0.00319   0.08112   0.10972   0.11684   0.13060
 Alpha virt. eigenvalues --    0.15190   0.16367   0.17517   0.18422   0.20399
 Alpha virt. eigenvalues --    0.23586   0.26285   0.27404   0.30166   0.42578

 Mulliken charges:
               1
     1  C   -0.361117
     2  C    0.280780
     3  N   -0.535322
     4  C    0.107931
     5  N   -0.582869
     6  N   -0.578851
     7  H    0.155789
     8  H    0.103630
     9  H    0.123232
    10  H    0.221775
    11  H    0.097622
    12  H    0.250237
    13  H    0.232581
    14  H    0.247142
    15  H    0.237439
 Sum of Mulliken charges =   0.00000

 Dipole moment (field-independent basis, Debye):
    X=              1.3706    Y=             -0.2489    Z=              0.5739  Tot=              1.5066
 Quadrupole moment (field-independent basis, Debye-Ang):
   XX=            -36.0158   YY=            -40.2208   ZZ=            -34.5045
   XY=              1.4463   XZ=              0.4288   YZ=              0.6362

  Exact polarizability:  55.535   1.360  56.165  -1.599  -4.228  45.142
 Approx polarizability:  69.111   2.527  84.528  -2.984 -10.518  67.224

                      1                      2                      3
                      A                      A                      A
 Frequencies --     61.7290               134.4020               226.3156
 Red. masses --      3.1338                 1.1060                 1.1498
 Frc consts  --      0.0070                 0.0118                 0.0347
 IR Inten    --      3.3332                 0.0396                41.5193

                      4                      5                      6
                      A                      A                      A
 Frequencies --    259.4093               290.9683               344.3815
 Red. masses --      2.8360                 1.7733                 1.4221
 Frc consts  --      0.1124                 0.0885                 0.0994
 IR Inten    --      7.4125                33.3154                22.2697

                      7                      8                      9
                      A                      A                      A
 Frequencies --    383.8386               484.4316               574.4842
 Red. masses --      2.8485                 2.4880                 3.2752
 Frc consts  --      0.2473                 0.3440                 0.6369
 IR Inten    --     15.0917                29.2389                 3.3379

                     10                     11                     12
                      A                      A                      A
 Frequencies --    624.5348               777.8380               880.4893
 Red. masses --      2.6301                 2.5829                 1.5925
 Frc consts  --      0.6044                 0.9208                 0.7274
 IR Inten    --      6.1505                11.9513                51.7701

                     13                     14                     15
                      A                      A                      A
 Frequencies --    913.5549               950.7350               973.5779
 Red. masses --      1.5331                 1.5833                 2.0691
 Frc consts  --      0.7538                 0.8432                 1.1555
 IR Inten    --    115.8815               193.5375                 2.5334

                     16                     17                     18
                      A                      A                      A
 Frequencies --   1052.6770              1078.7968              1099.6868
 Red. masses --      1.4653                 1.4862                 1.5666
 Frc consts  --      0.9567                 1.0191                 1.1162
 IR Inten    --     67.0161                16.9900                52.0836

                     19                     20                     21
                      A                      A                      A
 Frequencies --   1154.5315              1171.4192              1264.5024
 Red. masses --      1.9935                 1.4021                 1.5601
 Frc consts  --      1.5656                 1.1336                 1.4697
 IR Inten    --     24.4439                26.7068                25.9111

                     22                     23                     24
                      A                      A                      A
 Frequencies --   1362.5598              1408.4477              1411.6903
 Red. masses --      1.5072                 1.2779                 1.3590
 Frc consts  --      1.6487                 1.4936                 1.5957
 IR Inten    --     26.6191                25.2883                25.5793

                     25                     26                     27
                      A                      A                      A
 Frequencies --   1434.1407              1481.3855              1500.1536
 Red. masses --      1.4451                 1.0502                 1.0691
 Frc consts  --      1.7511                 1.3579                 1.4175
 IR Inten    --      5.8670                 7.5349                22.5395

                     28                     29                     30
                      A                      A                      A
 Frequencies --   1672.7095              1682.7471              1740.5219
 Red. masses --      1.0939                 1.0957                 8.0073
 Frc consts  --      1.8034                 1.8280                14.2921
 IR Inten    --     31.4627                20.4957                49.8161

                     31                     32                     33
                      A                      A                      A
 Frequencies --   3034.6263              3042.0005              3108.4089
 Red. masses --      1.0738                 1.0481                 1.0975
 Frc consts  --      5.8263                 5.7142                 6.2480
 IR Inten    --     16.6580                26.7415                16.5534

                     34                     35                     36
                      A                      A                      A
 Frequencies --   3138.3617              3435.7702              3459.8894
 Red. masses --      1.1035                 1.0747                 1.0506
 Frc consts  --      6.4038                 7.4749                 7.4096
 IR Inten    --     11.0838                 8.3256                 3.6581

                     37                     38                     39
                      A                      A                      A
 Frequencies --   3471.9641              3538.1022              3555.7391
 Red. masses --      1.0503                 1.0896                 1.0908
 Frc consts  --      7.4596                 8.0361                 8.1258
 IR Inten    --      0.3420                 3.7765                 0.4490

 - Thermochemistry -
 -------------------
 Temperature   298.150 Kelvin.  Pressure   1.00000 Atm.
 Atom     1 has atomic number  6 and mass  12.00000

 Molecular mass:    87.07965 amu.
 Principal axes and moments of inertia in atomic units:
                           1         2         3
     Eigenvalues --   373.99074 597.80126 817.14929
           X            0.99938  -0.03398   0.00918
           Y            0.03399   0.99942  -0.00182
           Z           -0.00911   0.00213   0.99996
 This molecule is an asymmetric top.
 Rotational symmetry number  1.
 Rotational temperatures (Kelvin)      0.23159     0.14489     0.10600
 Rotational constants (GHZ):           4.82563     3.01897     2.20858
 Zero-point vibrational energy     348002.8 (Joules/Mol)
                                   83.17466 (Kcal/Mol)
 Warning -- explicit consideration of   9 degrees of freedom as
           vibrations may cause significant error
 Vibrational temperatures:     88.81   193.37   325.62   373.23   418.64
          (Kelvin)            495.49   552.26   696.99   826.55   898.57
                             1119.13  1266.83  1314.40  1367.89  1400.76
                             1514.57  1552.15  1582.20  1661.11  1685.41
                             1819.33  1960.42  2026.44  2031.10  2063.41
                             2131.38  2158.38  2406.65  2421.09  2504.22
                             4366.14  4376.75  4472.30  4515.40  4943.30
                             4978.00  4995.38  5090.53  5115.91

 Zero-point correction=                           0.132547 (Hartree/Particle)
 Thermal correction to Energy=                    0.139997
 Thermal correction to Enthalpy=                  0.140941
 Thermal correction to Gibbs Free Energy=         0.101350
 Sum of electronic and zero-point Energies=           -283.855374
 Sum of electronic and thermal Energies=              -283.847924
 Sum of electronic and thermal Enthalpies=            -283.846980
 Sum of electronic and thermal Free Energies=         -283.886571

                     E (Thermal)             CV                S
                      KCal/Mol        Cal/Mol-Kelvin    Cal/Mol-Kelvin
 Total                   87.849             26.287             83.327
 Electronic               0.000              0.000              0.000
 Translational            0.889              2.981             39.306
 Rotational               0.889              2.981             26.705
 Vibrational             86.072             20.325             17.316
 Vibration     1          0.597              1.973              4.401
 Vibration     2          0.613              1.919              2.882
 Vibration     3          0.650              1.801              1.908
 Vibration     4          0.668              1.747              1.666
 Vibration     5          0.687              1.691              1.468
 Vibration     6          0.723              1.587              1.192
 Vibration     7          0.753              1.505              1.024
 Vibration     8          0.841              1.285              0.698
 Vibration     9          0.931              1.086              0.496

 Optimization completed.
    -- Stationary point found.
 Normal termination of Gaussian 09 at Thu Sep  8 15:13:30 2022.
