 Gaussian 09, Revision E.01,
 Gaussian 09:  ES64L-G09RevE.01 30-Nov-2015

 -------------------------
 #P OPT Freq B3LYP/6-31G**
 -------------------------

 --------
 Frag_217
 --------
 Symbolic Z-matrix:
 Charge =  0 Multiplicity = 1

 SCF Done:  E(RB3LYP) =  -307.251119977     A.U. after   12 cycles
 SCF Done:  E(RB3LYP) =  -307.259059372     A.U. after   11 cycles
 SCF Done:  E(RB3LYP) =  -307.259542898     A.U. after   10 cycles
 SCF Done:  E(RB3LYP) =  -307.259641903     A.U. after   10 cycles
 SCF Done:  E(RB3LYP) =  -307.259648141     A.U. after    7 cycles
 SCF Done:  E(RB3LYP) =  -307.259649299     A.U. after    7 cycles
 Optimization completed.
    -- Stationary point found.
 Normal termination of Gaussian 09 at Sat Aug 21 01:35:22 2021.

 ----------------------------------------------------------------------
 #P Geom=AllCheck Guess=TCheck SCRF=Check GenChk RB3LYP/6-31G(d,p) Freq
 ----------------------------------------------------------------------

 Structure from the checkpoint file:  "/public/home/users/caep010/.cache/gau_scr/Gau-113344.chk"
 --------
 Frag_217
 --------
 Charge =  0 Multiplicity = 1

                         Standard orientation:
 ---------------------------------------------------------------------
 Center     Atomic      Atomic             Coordinates (Angstroms)
 Number     Number       Type             X           Y           Z
 ---------------------------------------------------------------------
      1          6           0        1.505653   -0.758506    0.116696
      2          6           0        1.505656    0.758500   -0.116695
      3          6           0        0.248641    1.509129    0.364012
      4          7           0       -0.970679    1.205805   -0.382595
      5          6           0       -1.706313    0.000004    0.000001
      6          7           0       -0.970684   -1.205803    0.382593
      7          6           0        0.248635   -1.509129   -0.364012
      8          1           0        2.390814   -1.195307   -0.365622
      9          1           0        1.621827   -0.960782    1.192145
     10          1           0        2.390819    1.195299    0.365623
     11          1           0        1.621831    0.960776   -1.192144
     12          1           0        0.061654    1.304511    1.426356
     13          1           0        0.439960    2.587965    0.291374
     14          1           0       -0.764769    1.191232   -1.376710
     15          1           0       -2.361536   -0.233189   -0.848842
     16          1           0       -2.361524    0.233204    0.848850
     17          1           0       -0.764778   -1.191237    1.376708
     18          1           0        0.439950   -2.587966   -0.291374
     19          1           0        0.061651   -1.304512   -1.426356
 ---------------------------------------------------------------------

 SCF Done:  E(RB3LYP) =  -307.259649299     A.U. after    1 cycles

 The electronic state is 1-A.
 Alpha  occ. eigenvalues --  -14.30797 -14.30797 -10.22373 -10.20370 -10.20369
 Alpha  occ. eigenvalues --  -10.18081 -10.18061  -0.91968  -0.85749  -0.78183
 Alpha  occ. eigenvalues --   -0.69071  -0.66791  -0.58335  -0.57950  -0.48385
 Alpha  occ. eigenvalues --   -0.48157  -0.47186  -0.43818  -0.40794  -0.40326
 Alpha  occ. eigenvalues --   -0.39082  -0.38496  -0.34239  -0.33864  -0.32801
 Alpha  occ. eigenvalues --   -0.31916  -0.24093  -0.19637
 Alpha virt. eigenvalues --    0.07917   0.08913   0.11205   0.13415   0.14859
 Alpha virt. eigenvalues --    0.14949   0.16906   0.17363   0.17417   0.17784
 Alpha virt. eigenvalues --    0.18653   0.18684   0.21742   0.22970   0.24964

 Mulliken charges:
               1
     1  C   -0.178960
     2  C   -0.178960
     3  C   -0.049527
     4  N   -0.487931
     5  C    0.056703
     6  N   -0.487932
     7  C   -0.049527
     8  H    0.087741
     9  H    0.084807
    10  H    0.087741
    11  H    0.084807
    12  H    0.089513
    13  H    0.097547
    14  H    0.228423
    15  H    0.100036
    16  H    0.100036
    17  H    0.228423
    18  H    0.097547
    19  H    0.089513
 Sum of Mulliken charges =   0.00000

 Dipole moment (field-independent basis, Debye):
    X=              1.3998    Y=             -0.0000    Z=              0.0000  Tot=              1.3998
 Quadrupole moment (field-independent basis, Debye-Ang):
   XX=            -46.9116   YY=            -48.6201   ZZ=            -41.0281
   XY=             -0.0000   XZ=             -0.0000   YZ=             -0.3752

  Exact polarizability:  69.496  -0.000  65.821  -0.000   0.138  60.006
 Approx polarizability:  90.553  -0.000  87.437  -0.000  -1.660  92.181

                      1                      2                      3
                      A                      A                      A
 Frequencies --    173.7581               199.5158               275.8637
 Red. masses --      1.9745                 2.1710                 2.4619
 Frc consts  --      0.0351                 0.0509                 0.1104
 IR Inten    --      1.6332                 0.4300                 4.6240

                      4                      5                      6
                      A                      A                      A
 Frequencies --    337.0945               350.7796               407.8400
 Red. masses --      2.0270                 2.4229                 2.4890
 Frc consts  --      0.1357                 0.1756                 0.2439
 IR Inten    --      0.0042                 8.5801                 5.4026

                      7                      8                      9
                      A                      A                      A
 Frequencies --    505.8822               624.2659               689.0973
 Red. masses --      1.4194                 2.4508                 1.8368
 Frc consts  --      0.2140                 0.5627                 0.5139
 IR Inten    --      3.1122                 1.0446                63.0375

                     10                     11                     12
                      A                      A                      A
 Frequencies --    691.9849               797.6112               836.2794
 Red. masses --      1.3046                 2.6630                 1.8133
 Frc consts  --      0.3681                 0.9982                 0.7472
 IR Inten    --    206.7303                14.1758                 5.5728

                     13                     14                     15
                      A                      A                      A
 Frequencies --    870.8950               916.4676               933.4302
 Red. masses --      1.5606                 1.6058                 2.7422
 Frc consts  --      0.6974                 0.7946                 1.4077
 IR Inten    --      1.9191                10.9730                10.5647

                     16                     17                     18
                      A                      A                      A
 Frequencies --    948.0429              1018.3825              1075.2278
 Red. masses --      2.3012                 2.6299                 1.3007
 Frc consts  --      1.2186                 1.6070                 0.8860
 IR Inten    --     12.7044                14.3659                 2.7408

                     19                     20                     21
                      A                      A                      A
 Frequencies --   1077.2391              1121.7877              1155.2371
 Red. masses --      1.9487                 1.7262                 4.0612
 Frc consts  --      1.3324                 1.2799                 3.1933
 IR Inten    --      4.9594                 1.2717                74.0812

                     22                     23                     24
                      A                      A                      A
 Frequencies --   1156.0848              1254.2546              1264.8900
 Red. masses --      3.2750                 1.3237                 1.5890
 Frc consts  --      2.5790                 1.2269                 1.4979
 IR Inten    --     69.8607                 2.2432                 2.9157

                     25                     26                     27
                      A                      A                      A
 Frequencies --   1268.8630              1330.9116              1360.0997
 Red. masses --      1.2679                 1.1768                 1.1722
 Frc consts  --      1.2027                 1.2281                 1.2776
 IR Inten    --      1.1142                 3.9365                 0.6819

                     28                     29                     30
                      A                      A                      A
 Frequencies --   1373.9951              1386.1034              1388.4386
 Red. masses --      1.2176                 1.2420                 1.4508
 Frc consts  --      1.3543                 1.4060                 1.6478
 IR Inten    --      0.3690                 8.1071                 1.6472

                     31                     32                     33
                      A                      A                      A
 Frequencies --   1407.5908              1429.3447              1485.8544
 Red. masses --      1.3738                 1.2335                 1.0966
 Frc consts  --      1.6038                 1.4848                 1.4264
 IR Inten    --      6.7036                 9.2885                 4.3709

                     34                     35                     36
                      A                      A                      A
 Frequencies --   1486.0414              1502.8658              1503.3139
 Red. masses --      1.1174                 1.1092                 1.0865
 Frc consts  --      1.4539                 1.4760                 1.4467
 IR Inten    --     17.5589                 0.1020                 5.0542

                     37                     38                     39
                      A                      A                      A
 Frequencies --   1506.4572              1515.9281              1517.3449
 Red. masses --      1.1077                 1.1377                 1.2074
 Frc consts  --      1.4811                 1.5404                 1.6379
 IR Inten    --      2.4327                11.4463                 7.5170

                     40                     41                     42
                      A                      A                      A
 Frequencies --   3005.2826              3005.9900              3022.4841
 Red. masses --      1.0687                 1.0617                 1.0624
 Frc consts  --      5.6870                 5.6525                 5.7184
 IR Inten    --     11.8673                28.0178                10.1105

                     43                     44                     45
                      A                      A                      A
 Frequencies --   3022.9201              3030.3684              3049.9800
 Red. masses --      1.0626                 1.0613                 1.0907
 Frc consts  --      5.7212                 5.7419                 5.9782
 IR Inten    --     90.0485                83.2280                50.0725

                     46                     47                     48
                      A                      A                      A
 Frequencies --   3052.3286              3064.9227              3066.0089
 Red. masses --      1.1014                 1.1038                 1.1073
 Frc consts  --      6.0459                 6.1089                 6.1330
 IR Inten    --     58.0404                 4.4725                 9.2237

                     49                     50                     51
                      A                      A                      A
 Frequencies --   3068.5397              3536.6929              3536.7535
 Red. masses --      1.1035                 1.0745                 1.0747
 Frc consts  --      6.1217                 7.9183                 7.9205
 IR Inten    --    126.3330                 0.3102                 0.0057

 - Thermochemistry -
 -------------------
 Temperature   298.150 Kelvin.  Pressure   1.00000 Atm.
 Atom     1 has atomic number  6 and mass  12.00000

 Molecular mass:   100.10005 amu.
 Principal axes and moments of inertia in atomic units:
                           1         2         3
     Eigenvalues --   550.34642 596.582621002.10348
           X            1.00000  -0.00000  -0.00000
           Y            0.00000   0.99997   0.00814
           Z            0.00000  -0.00814   0.99997
 This molecule is an asymmetric top.
 Rotational symmetry number  1.
 Warning -- assumption of classical behavior for rotation
           may cause significant error
 Rotational temperatures (Kelvin)      0.15738     0.14518     0.08643
 Rotational constants (GHZ):           3.27928     3.02513     1.80095
 Zero-point vibrational energy     464195.0 (Joules/Mol)
                                  110.94526 (Kcal/Mol)
 Warning -- explicit consideration of   7 degrees of freedom as
           vibrations may cause significant error
 Vibrational temperatures:    250.00   287.06   396.91   485.00   504.69
          (Kelvin)            586.79   727.85   898.18   991.46   995.61
                             1147.58  1203.22  1253.02  1318.59  1343.00
                             1364.02  1465.22  1547.01  1549.90  1614.00
                             1662.13  1663.35  1804.59  1819.89  1825.61
                             1914.88  1956.88  1976.87  1994.29  1997.65
                             2025.21  2056.51  2137.81  2138.08  2162.29
                             2162.93  2167.45  2181.08  2183.12  4323.93
                             4324.94  4348.68  4349.30  4360.02  4388.24
                             4391.61  4409.73  4411.30  4414.94  5088.51
                             5088.59

 Zero-point correction=                           0.176803 (Hartree/Particle)
 Thermal correction to Energy=                    0.183521
 Thermal correction to Enthalpy=                  0.184466
 Thermal correction to Gibbs Free Energy=         0.146588
 Sum of electronic and zero-point Energies=           -307.082847
 Sum of electronic and thermal Energies=              -307.076128
 Sum of electronic and thermal Enthalpies=            -307.075184
 Sum of electronic and thermal Free Energies=         -307.113062

                     E (Thermal)             CV                S
                      KCal/Mol        Cal/Mol-Kelvin    Cal/Mol-Kelvin
 Total                  115.161             26.603             79.721
 Electronic               0.000              0.000              0.000
 Translational            0.889              2.981             39.721
 Rotational               0.889              2.981             27.289
 Vibrational            113.384             20.641             12.711
 Vibration     1          0.627              1.875              2.394
 Vibration     2          0.638              1.841              2.138
 Vibration     3          0.678              1.718              1.559
 Vibration     4          0.718              1.601              1.226
 Vibration     5          0.728              1.574              1.163
 Vibration     6          0.772              1.453              0.934
 Vibration     7          0.861              1.237              0.644

 Optimization completed.
    -- Stationary point found.
 Normal termination of Gaussian 09 at Sat Aug 21 01:35:42 2021.
