 Gaussian 09, Revision D.01,
 Gaussian 09:  ES64L-G09RevD.01 24-Apr-2013

 -------------------------
 #P OPT Freq B3LYP/6-31G**
 -------------------------

 -------
 Frag_11
 -------
 Symbolic Z-matrix:
 Charge =  0 Multiplicity = 1

 SCF Done:  E(RB3LYP) =  -306.492485270     A.U. after   14 cycles
 Optimization completed.
    -- Stationary point found.

 1\1\GINC-FN19\FOpt\RB3LYP\6-31G(d,p)\C4H6O2\LIUJ201281\22-Jul-2021\0\\
 #P OPT Freq B3LYP/6-31G**\\Frag_11\\0,1\C,1.2805,1.3645,0.\C,0.7177,0.
 1503,0.\C,1.4921,-1.1413,0.\C,-0.7772,0.0966,0.\O,-1.5257,1.053,0.\O,-
 1.2432,-1.1799,0.\H,0.6628,2.2558,0.\H,2.3588,1.4887,0.\H,1.2479,-1.74
 91,-0.8775\H,2.5673,-0.9467,0.\H,1.2479,-1.7491,0.8775\H,-2.2122,-1.10
 53,0.\\Version=ES64L-G09RevD.01\State=1-A'\HF=-306.4924853\RMSD=4.156e
 -09\RMSF=5.072e-05\Dipole=0.422403,-0.5104729,0.\Quadrupole=2.3367832,
 -1.3722204,-0.9645628,3.5956611,0.,0.\PG=CS [SG(C4H4O2),X(H2)]\\@

 Normal termination of Gaussian 09 at Thu Jul 22 17:27:37 2021.

 ----------------------------------------------------------------------
 #P Geom=AllCheck Guess=TCheck SCRF=Check GenChk RB3LYP/6-31G(d,p) Freq
 ----------------------------------------------------------------------

 Structure from the checkpoint file:  "/vol2/users/liuj201281/HOFBenchmark/IsodesmicSplit/Sample60/Ring26/Running/Gau-434984.chk"
 -------
 Frag_11
 -------
 Charge =  0 Multiplicity = 1

                         Standard orientation:
 ---------------------------------------------------------------------
 Center     Atomic      Atomic             Coordinates (Angstroms)
 Number     Number       Type             X           Y           Z
 ---------------------------------------------------------------------
      1          6           0        1.073055    1.533009    0.000000
      2          6           0        0.000000    0.733272    0.000000
      3          6           0       -1.422911    1.226476    0.000000
      4          6           0        0.253866   -0.740892    0.000000
      5          8           0        1.343385   -1.277455    0.000000
      6          8           0       -0.900008   -1.458655    0.000000
      7          1           0        2.072045    1.111125    0.000000
      8          1           0        0.973587    2.613871    0.000000
      9          1           0       -1.967749    0.862874    0.877500
     10          1           0       -1.452838    2.318735    0.000000
     11          1           0       -1.967749    0.862874   -0.877500
     12          1           0       -0.628366   -2.391788    0.000000
 ---------------------------------------------------------------------

 SCF Done:  E(RB3LYP) =  -306.492485270     A.U. after    1 cycles

 The electronic state is 1-A'.
 Alpha  occ. eigenvalues --  -19.19660 -19.13538 -10.31935 -10.21288 -10.19849
 Alpha  occ. eigenvalues --  -10.18997  -1.10354  -1.01096  -0.81352  -0.69806
 Alpha  occ. eigenvalues --   -0.65986  -0.55287  -0.49245  -0.47939  -0.45155
 Alpha  occ. eigenvalues --   -0.42774  -0.41569  -0.40846  -0.38822  -0.36602
 Alpha  occ. eigenvalues --   -0.32059  -0.27477  -0.26943
 Alpha virt. eigenvalues --   -0.04217   0.07834   0.08123   0.11431   0.13319
 Alpha virt. eigenvalues --    0.16066   0.17712   0.18328   0.23559   0.26794
 Alpha virt. eigenvalues --    0.33627   0.34086   0.35055   0.50357   0.51395

 Mulliken charges:
               1
     1  C   -0.240553
     2  C    0.089514
     3  C   -0.357157
     4  C    0.547706
     5  O   -0.477141
     6  O   -0.495384
     7  H    0.135794
     8  H    0.104796
     9  H    0.130782
    10  H    0.107679
    11  H    0.130782
    12  H    0.323181
 Sum of Mulliken charges =   0.00000

 Dipole moment (field-independent basis, Debye):
    X=             -1.4900    Y=              0.7849    Z=              0.0000  Tot=              1.6841
 Quadrupole moment (field-independent basis, Debye-Ang):
   XX=            -37.8944   YY=            -29.4437   ZZ=            -35.6151
   XY=              3.4290   XZ=              0.0000   YZ=              0.0000

  Exact polarizability:  56.310   5.715  58.670   0.000   0.000  25.644
 Approx polarizability:  89.191  12.047  82.038   0.000   0.000  36.844

                      1                      2                      3
                     A"                     A"                     A'
 Frequencies --     71.9744               189.6429               268.4453
 Red. masses --      4.9516                 1.0331                 3.7080
 Frc consts  --      0.0151                 0.0219                 0.1574
 IR Inten    --      1.3764                 0.2659                 0.2008

                      4                      5                      6
                     A"                     A'                     A'
 Frequencies --    359.3212               384.5997               511.5542
 Red. masses --      2.8688                 2.6690                 4.9455
 Frc consts  --      0.2182                 0.2326                 0.7625
 IR Inten    --      8.2601                 2.8861                10.6293

                      7                      8                      9
                     A'                     A"                     A"
 Frequencies --    570.1499               615.0231               693.7384
 Red. masses --      3.8413                 1.2688                 1.2648
 Frc consts  --      0.7357                 0.2828                 0.3586
 IR Inten    --     24.9905                33.5524                77.7239

                     10                     11                     12
                     A'                     A"                     A'
 Frequencies --    772.0920               832.3406               957.3535
 Red. masses --      3.7141                 2.4356                 1.8193
 Frc consts  --      1.3045                 0.9941                 0.9824
 IR Inten    --     19.4512                20.9507                 2.4450

                     13                     14                     15
                     A"                     A'                     A"
 Frequencies --    985.8937              1030.3477              1075.7209
 Red. masses --      1.3367                 1.3813                 1.4684
 Frc consts  --      0.7655                 0.8640                 1.0011
 IR Inten    --     29.7023                21.9274                 0.5230

                     16                     17                     18
                     A'                     A'                     A'
 Frequencies --   1170.1167              1266.5177              1387.9487
 Red. masses --      2.9464                 2.0184                 2.9613
 Frc consts  --      2.3768                 1.9076                 3.3611
 IR Inten    --    311.7818                14.4193                64.6422

                     19                     20                     21
                     A'                     A'                     A"
 Frequencies --   1421.4625              1446.6331              1489.9657
 Red. masses --      1.1972                 1.2580                 1.0437
 Frc consts  --      1.4252                 1.5511                 1.3651
 IR Inten    --      7.9756                14.9573                 6.3771

                     22                     23                     24
                     A'                     A'                     A'
 Frequencies --   1504.9119              1713.9345              1823.3423
 Red. masses --      1.0601                 5.4584                 9.4865
 Frc consts  --      1.4145                 9.4472                18.5820
 IR Inten    --     24.6873                33.8827               203.4960

                     25                     26                     27
                     A'                     A"                     A'
 Frequencies --   3050.0638              3109.0031              3136.1472
 Red. masses --      1.0360                 1.1004                 1.1036
 Frc consts  --      5.6783                 6.2668                 6.3949
 IR Inten    --     14.9573                13.5374                16.7496

                     28                     29                     30
                     A'                     A'                     A'
 Frequencies --   3169.3849              3265.7505              3759.4872
 Red. masses --      1.0604                 1.1171                 1.0642
 Frc consts  --      6.2755                 7.0192                 8.8619
 IR Inten    --      6.1924                 2.1838                62.4109

 - Thermochemistry -
 -------------------
 Temperature   298.150 Kelvin.  Pressure   1.00000 Atm.
 Atom     1 has atomic number  6 and mass  12.00000

 Molecular mass:    86.03678 amu.
 Principal axes and moments of inertia in atomic units:
                           1         2         3
     Eigenvalues --   341.14778 513.17729 843.24003
           X           -0.21568   0.97646   0.00000
           Y            0.97646   0.21568   0.00000
           Z            0.00000   0.00000   1.00000
 This molecule is an asymmetric top.
 Rotational symmetry number  1.
 Rotational temperatures (Kelvin)      0.25389     0.16878     0.10272
 Rotational constants (GHZ):           5.29020     3.51680     2.14025
 Zero-point vibrational energy     251412.4 (Joules/Mol)
                                   60.08900 (Kcal/Mol)
 Warning -- explicit consideration of   8 degrees of freedom as
           vibrations may cause significant error
 Vibrational temperatures:    103.56   272.85   386.23   516.98   553.35
          (Kelvin)            736.01   820.32   884.88   998.13  1110.87
                             1197.55  1377.42  1418.48  1482.44  1547.72
                             1683.53  1822.23  1996.95  2045.16  2081.38
                             2143.73  2165.23  2465.97  2623.38  4388.36
                             4473.16  4512.21  4560.03  4698.68  5409.06

 Zero-point correction=                           0.095758 (Hartree/Particle)
 Thermal correction to Energy=                    0.102119
 Thermal correction to Enthalpy=                  0.103063
 Thermal correction to Gibbs Free Energy=         0.065693
 Sum of electronic and zero-point Energies=           -306.396727
 Sum of electronic and thermal Energies=              -306.390367
 Sum of electronic and thermal Enthalpies=            -306.389422
 Sum of electronic and thermal Free Energies=         -306.426792

                     E (Thermal)             CV                S
                      KCal/Mol        Cal/Mol-Kelvin    Cal/Mol-Kelvin
 Total                   64.080             22.397             78.652
 Electronic               0.000              0.000              0.000
 Translational            0.889              2.981             39.270
 Rotational               0.889              2.981             26.493
 Vibrational             62.303             16.435             12.889
 Vibration     1          0.598              1.967              4.099
 Vibration     2          0.633              1.854              2.231
 Vibration     3          0.673              1.731              1.606
 Vibration     4          0.734              1.556              1.125
 Vibration     5          0.754              1.503              1.021
 Vibration     6          0.867              1.224              0.630
 Vibration     7          0.926              1.096              0.504
 Vibration     8          0.975              1.000              0.425

 Optimization completed.
    -- Stationary point found.

 1\1\GINC-FN19\Freq\RB3LYP\6-31G(d,p)\C4H6O2\LIUJ201281\22-Jul-2021\0\\
 #P Geom=AllCheck Guess=TCheck SCRF=Check GenChk RB3LYP/6-31G(d,p) Freq
 \\Frag_11\\0,1\C,1.2805,1.3645,0.\C,0.7177,0.1503,0.\C,1.4921,-1.1413,
 0.\C,-0.7772,0.0966,0.\O,-1.5257,1.053,0.\O,-1.2432,-1.1799,0.\H,0.662
 8,2.2558,0.\H,2.3588,1.4887,0.\H,1.2479,-1.7491,-0.8775\H,2.5673,-0.94
 67,0.\H,1.2479,-1.7491,0.8775\H,-2.2122,-1.1053,0.\\Version=ES64L-G09R
 evD.01\State=1-A'\HF=-306.4924853\RMSD=3.017e-09\RMSF=5.072e-05\ZeroPo
 int=0.0957579\Thermal=0.1021187\Dipole=0.4224029,-0.5104739,0.\DipoleD

 Normal termination of Gaussian 09 at Thu Jul 22 17:28:02 2021.
