 Gaussian 09, Revision E.01,
 Gaussian 09:  ES64L-G09RevE.01 30-Nov-2015

 ----------------------------
 #P OPT Freq B3LYP/6-31G(d,p)
 ----------------------------

 ---------
 Frag_1163
 ---------
 Symbolic Z-matrix:
 Charge =  0 Multiplicity = 1

 SCF Done:  E(RB3LYP) =  -244.658440702     A.U. after   13 cycles
 SCF Done:  E(RB3LYP) =  -244.658489352     A.U. after   11 cycles
 SCF Done:  E(RB3LYP) =  -244.658493619     A.U. after    9 cycles
 SCF Done:  E(RB3LYP) =  -244.658496184     A.U. after    8 cycles
 SCF Done:  E(RB3LYP) =  -244.658497144     A.U. after    8 cycles
 SCF Done:  E(RB3LYP) =  -244.658497485     A.U. after    8 cycles
 Optimization completed.
    -- Stationary point found.
 Normal termination of Gaussian 09 at Thu Sep  8 14:50:03 2022.

 ----------------------------------------------------------------------
 #P Geom=AllCheck Guess=TCheck SCRF=Check GenChk RB3LYP/6-31G(d,p) Freq
 ----------------------------------------------------------------------

 Structure from the checkpoint file:  "B3LYP6-31Gdp.Frag_1163.chk"
 ---------
 Frag_1163
 ---------
 Charge =  0 Multiplicity = 1

                         Standard orientation:
 ---------------------------------------------------------------------
 Center     Atomic      Atomic             Coordinates (Angstroms)
 Number     Number       Type             X           Y           Z
 ---------------------------------------------------------------------
      1          7           0        1.893469    0.070653   -0.175158
      2          6           0        0.883740   -0.642665    0.118032
      3          6           0       -0.472124    0.000477    0.390701
      4          7           0       -0.589263    1.386911   -0.024483
      5          7           0       -1.494287   -0.762946   -0.326720
      6          1           0        2.724437   -0.512666   -0.307215
      7          1           0        0.915572   -1.739554    0.221584
      8          1           0       -0.603031   -0.015395    1.492158
      9          1           0        0.188704    1.907040    0.377341
     10          1           0       -0.436058    1.412627   -1.032600
     11          1           0       -2.398516   -0.339753   -0.131462
     12          1           0       -1.530236   -1.721500    0.012327
 ---------------------------------------------------------------------

 SCF Done:  E(RB3LYP) =  -244.658497485     A.U. after    1 cycles

 The electronic state is 1-A.
 Alpha  occ. eigenvalues --  -14.32716 -14.31733 -14.30567 -10.24236 -10.23389
 Alpha  occ. eigenvalues --   -0.93047  -0.88946  -0.83412  -0.67230  -0.56448
 Alpha  occ. eigenvalues --   -0.50940  -0.50547  -0.47871  -0.40839  -0.40452
 Alpha  occ. eigenvalues --   -0.39650  -0.31949  -0.27314  -0.24680  -0.23544
 Alpha virt. eigenvalues --   -0.00486   0.08130   0.09873   0.12245   0.14696
 Alpha virt. eigenvalues --    0.15646   0.17407   0.18692   0.23578   0.26778
 Alpha virt. eigenvalues --    0.28416   0.39065   0.55263   0.55841   0.58921

 Mulliken charges:
               1
     1  N   -0.484683
     2  C    0.141764
     3  C    0.143103
     4  N   -0.582539
     5  N   -0.600467
     6  H    0.234656
     7  H    0.071907
     8  H    0.091650
     9  H    0.250270
    10  H    0.246560
    11  H    0.253723
    12  H    0.234055
 Sum of Mulliken charges =  -0.00000

 Dipole moment (field-independent basis, Debye):
    X=              0.3360    Y=             -2.1950    Z=              1.0899  Tot=              2.4736
 Quadrupole moment (field-independent basis, Debye-Ang):
   XX=            -28.7677   YY=            -29.2352   ZZ=            -31.6082
   XY=              0.0521   XZ=             -1.2774   YZ=             -1.7435

  Exact polarizability:  50.507   2.702  44.433  -1.902  -1.675  30.623
 Approx polarizability:  67.989   8.083  63.335  -3.479  -3.235  44.649

                      1                      2                      3
                      A                      A                      A
 Frequencies --    100.6508               225.0432               258.2295
 Red. masses --      2.5418                 1.1122                 1.4100
 Frc consts  --      0.0152                 0.0332                 0.0554
 IR Inten    --     20.4787                46.9845                 6.0883

                      4                      5                      6
                      A                      A                      A
 Frequencies --    300.4106               377.9484               477.8180
 Red. masses --      2.0311                 2.4520                 2.5631
 Frc consts  --      0.1080                 0.2064                 0.3448
 IR Inten    --     39.1811                22.2769                 9.7935

                      7                      8                      9
                      A                      A                      A
 Frequencies --    629.6461               769.6454               845.1261
 Red. masses --      3.0392                 2.1873                 1.5280
 Frc consts  --      0.7099                 0.7634                 0.6430
 IR Inten    --     17.4546                17.6583                65.8643

                     10                     11                     12
                      A                      A                      A
 Frequencies --    939.0124               978.3585               999.1543
 Red. masses --      1.6156                 1.5816                 2.3148
 Frc consts  --      0.8393                 0.8920                 1.3615
 IR Inten    --    148.1785               177.6914                 4.7175

                     13                     14                     15
                      A                      A                      A
 Frequencies --   1115.3373              1138.6303              1194.3322
 Red. masses --      1.2389                 1.6659                 1.2007
 Frc consts  --      0.9081                 1.2725                 1.0091
 IR Inten    --     22.0681                40.5238                15.0728

                     16                     17                     18
                      A                      A                      A
 Frequencies --   1226.1074              1317.0787              1387.2229
 Red. masses --      1.1584                 1.4089                 1.4842
 Frc consts  --      1.0261                 1.4400                 1.6828
 IR Inten    --     25.6667                 5.5882                21.0236

                     19                     20                     21
                      A                      A                      A
 Frequencies --   1428.1108              1431.8958              1646.9995
 Red. masses --      1.5133                 1.4813                 1.1029
 Frc consts  --      1.8184                 1.7895                 1.7627
 IR Inten    --      8.0476                49.1482                31.9934

                     22                     23                     24
                      A                      A                      A
 Frequencies --   1663.2897              1742.5674              2900.3802
 Red. masses --      1.1002                 6.9842                 1.0802
 Frc consts  --      1.7934                12.4952                 5.3539
 IR Inten    --     26.0652                43.8497                83.4558

                     25                     26                     27
                      A                      A                      A
 Frequencies --   3000.1205              3452.8914              3479.8679
 Red. masses --      1.0874                 1.0763                 1.0510
 Frc consts  --      5.7663                 7.5602                 7.4987
 IR Inten    --     74.6093                 3.2437                 0.4068

                     28                     29                     30
                      A                      A                      A
 Frequencies --   3493.3998              3562.8484              3584.6717
 Red. masses --      1.0494                 1.0893                 1.0928
 Frc consts  --      7.5458                 8.1469                 8.2735
 IR Inten    --      1.0380                 2.2042                 0.5497

 - Thermochemistry -
 -------------------
 Temperature   298.150 Kelvin.  Pressure   1.00000 Atm.
 Atom     1 has atomic number  7 and mass  14.00307

 Molecular mass:    73.06400 amu.
 Principal axes and moments of inertia in atomic units:
                           1         2         3
     Eigenvalues --   213.32778 439.13633 598.72179
           X            0.99997   0.00332  -0.00672
           Y           -0.00346   0.99976  -0.02170
           Z            0.00665   0.02173   0.99974
 This molecule is an asymmetric top.
 Rotational symmetry number  1.
 Rotational temperatures (Kelvin)      0.40601     0.19724     0.14466
 Rotational constants (GHZ):           8.45994     4.10975     3.01432
 Zero-point vibrational energy     273148.1 (Joules/Mol)
                                   65.28396 (Kcal/Mol)
 Warning -- explicit consideration of   6 degrees of freedom as
           vibrations may cause significant error
 Vibrational temperatures:    144.81   323.79   371.53   432.22   543.78
          (Kelvin)            687.47   905.92  1107.35  1215.95  1351.03
                             1407.64  1437.56  1604.72  1638.23  1718.38
                             1764.09  1894.98  1995.90  2054.73  2060.18
                             2369.66  2393.10  2507.16  4173.00  4316.50
                             4967.93  5006.75  5026.22  5126.14  5157.54

 Zero-point correction=                           0.104037 (Hartree/Particle)
 Thermal correction to Energy=                    0.110130
 Thermal correction to Enthalpy=                  0.111074
 Thermal correction to Gibbs Free Energy=         0.074996
 Sum of electronic and zero-point Energies=           -244.554461
 Sum of electronic and thermal Energies=              -244.548368
 Sum of electronic and thermal Enthalpies=            -244.547424
 Sum of electronic and thermal Free Energies=         -244.583502

                     E (Thermal)             CV                S
                      KCal/Mol        Cal/Mol-Kelvin    Cal/Mol-Kelvin
 Total                   69.107             20.903             75.933
 Electronic               0.000              0.000              0.000
 Translational            0.889              2.981             38.783
 Rotational               0.889              2.981             25.531
 Vibrational             67.330             14.941             11.619
 Vibration     1          0.604              1.949              3.442
 Vibration     2          0.650              1.803              1.918
 Vibration     3          0.667              1.749              1.674
 Vibration     4          0.693              1.673              1.415
 Vibration     5          0.748              1.517              1.047
 Vibration     6          0.834              1.299              0.716

 Normal termination of Gaussian 09 at Thu Sep  8 14:50:12 2022.
