 Gaussian 09, Revision E.01,
 Gaussian 09:  ES64L-G09RevE.01 30-Nov-2015

 ----------------------------
 #P OPT Freq B3LYP/6-31G(d,p)
 ----------------------------

 --------
 Frag_682
 --------
 Symbolic Z-matrix:
 Charge =  0 Multiplicity = 1

 SCF Done:  E(RB3LYP) =  -343.173185382     A.U. after   14 cycles
 SCF Done:  E(RB3LYP) =  -343.173234685     A.U. after   11 cycles
 SCF Done:  E(RB3LYP) =  -343.173231736     A.U. after   11 cycles
 SCF Done:  E(RB3LYP) =  -343.173239907     A.U. after   10 cycles
 SCF Done:  E(RB3LYP) =  -343.173240336     A.U. after    8 cycles
 SCF Done:  E(RB3LYP) =  -343.173240560     A.U. after    7 cycles
 SCF Done:  E(RB3LYP) =  -343.173240597     A.U. after    7 cycles
 SCF Done:  E(RB3LYP) =  -343.173240611     A.U. after    7 cycles
 Optimization completed.
    -- Stationary point found.
 Normal termination of Gaussian 09 at Thu Sep  8 14:57:45 2022.

 ----------------------------------------------------------------------
 #P Geom=AllCheck Guess=TCheck SCRF=Check GenChk RB3LYP/6-31G(d,p) Freq
 ----------------------------------------------------------------------

 Structure from the checkpoint file:  "B3LYP6-31Gdp.Frag_682.chk"
 --------
 Frag_682
 --------
 Charge =  0 Multiplicity = 1

                         Standard orientation:
 ---------------------------------------------------------------------
 Center     Atomic      Atomic             Coordinates (Angstroms)
 Number     Number       Type             X           Y           Z
 ---------------------------------------------------------------------
      1          6           0       -1.885151   -0.872812   -0.046416
      2          6           0       -0.922072    0.288130    0.023444
      3          7           0       -1.375458    1.471936    0.144270
      4          6           0        0.590366   -0.047488   -0.039131
      5          6           0        1.111042   -0.414693    1.358622
      6          7           0        1.301751    1.109131   -0.525518
      7          8           0        0.820938   -1.139545   -0.952743
      8          1           0       -2.900736   -0.506657    0.106415
      9          1           0       -1.822935   -1.364831   -1.022800
     10          1           0       -1.666689   -1.630850    0.716889
     11          1           0       -0.582342    2.125018    0.163212
     12          1           0        0.993031    0.425465    2.046552
     13          1           0        0.567773   -1.272327    1.767991
     14          1           0        2.170753   -0.683722    1.297324
     15          1           0        2.301836    0.926358   -0.499934
     16          1           0        1.054217    1.262754   -1.501121
     17          1           0        0.468424   -1.951144   -0.562964
 ---------------------------------------------------------------------

 SCF Done:  E(RB3LYP) =  -343.173240611     A.U. after    1 cycles

 The electronic state is 1-A.
 Alpha  occ. eigenvalues --  -19.15003 -14.32752 -14.30450 -10.27620 -10.22737
 Alpha  occ. eigenvalues --  -10.19020 -10.18391  -1.03089  -0.90876  -0.87331
 Alpha  occ. eigenvalues --   -0.74626  -0.72289  -0.63096  -0.54386  -0.52069
 Alpha  occ. eigenvalues --   -0.50705  -0.47584  -0.43600  -0.42579  -0.40439
 Alpha  occ. eigenvalues --   -0.39513  -0.38287  -0.37105  -0.35413  -0.30018
 Alpha  occ. eigenvalues --   -0.29272  -0.27168  -0.23816
 Alpha virt. eigenvalues --    0.00759   0.05887   0.09369   0.12614   0.13074
 Alpha virt. eigenvalues --    0.14847   0.14934   0.16620   0.17757   0.18204
 Alpha virt. eigenvalues --    0.21045   0.21349   0.22153   0.25054   0.28088

 Mulliken charges:
               1
     1  C   -0.381908
     2  C    0.297008
     3  N   -0.523424
     4  C    0.298546
     5  C   -0.313520
     6  N   -0.590722
     7  O   -0.550071
     8  H    0.140787
     9  H    0.130897
    10  H    0.104089
    11  H    0.241544
    12  H    0.129893
    13  H    0.099764
    14  H    0.113024
    15  H    0.247465
    16  H    0.254493
    17  H    0.302133
 Sum of Mulliken charges =  -0.00000

 Dipole moment (field-independent basis, Debye):
    X=              1.7905    Y=             -2.1339    Z=              0.3964  Tot=              2.8136
 Quadrupole moment (field-independent basis, Debye-Ang):
   XX=            -44.7492   YY=            -42.9081   ZZ=            -43.0416
   XY=              5.2822   XZ=              0.8989   YZ=             -2.8550

  Exact polarizability:  61.721   0.652  65.544   0.146  -0.796  48.464
 Approx polarizability:  80.866  -3.813 101.311  -1.725   1.277  68.331

                      1                      2                      3
                      A                      A                      A
 Frequencies --     77.2803               189.4687               231.1661
 Red. masses --      3.4808                 1.0452                 2.8627
 Frc consts  --      0.0122                 0.0221                 0.0901
 IR Inten    --      0.9312                 1.9853                 4.5883

                      4                      5                      6
                      A                      A                      A
 Frequencies --    241.6960               273.2002               300.0120
 Red. masses --      1.1264                 1.8807                 1.4080
 Frc consts  --      0.0388                 0.0827                 0.0747
 IR Inten    --      3.1734                17.2040                19.8805

                      7                      8                      9
                      A                      A                      A
 Frequencies --    352.7243               379.4554               386.0320
 Red. masses --      1.2130                 2.2150                 3.2356
 Frc consts  --      0.0889                 0.1879                 0.2841
 IR Inten    --    117.4643                 4.5969                 9.1277

                     10                     11                     12
                      A                      A                      A
 Frequencies --    442.1265               500.2491               551.7545
 Red. masses --      2.8118                 2.9638                 3.1016
 Frc consts  --      0.3238                 0.4370                 0.5563
 IR Inten    --     30.1951                10.3456                36.4731

                     13                     14                     15
                      A                      A                      A
 Frequencies --    599.1280               694.9556               867.9579
 Red. masses --      2.5948                 3.2827                 2.4119
 Frc consts  --      0.5488                 0.9341                 1.0705
 IR Inten    --     14.1774                 3.5453                38.0765

                     16                     17                     18
                      A                      A                      A
 Frequencies --    910.4709               945.2924               973.8426
 Red. masses --      1.6214                 1.9002                 1.8173
 Frc consts  --      0.7919                 1.0004                 1.0154
 IR Inten    --     68.7835                65.9580                13.9502

                     19                     20                     21
                      A                      A                      A
 Frequencies --   1003.2716              1038.8653              1096.7040
 Red. masses --      1.5007                 1.6251                 1.3512
 Frc consts  --      0.8900                 1.0334                 0.9575
 IR Inten    --     12.1300                 6.6169                17.2788

                     22                     23                     24
                      A                      A                      A
 Frequencies --   1105.5297              1135.1563              1176.8193
 Red. masses --      1.6757                 1.6572                 2.0707
 Frc consts  --      1.2067                 1.2582                 1.6896
 IR Inten    --     17.2474               110.6543                61.4082

                     25                     26                     27
                      A                      A                      A
 Frequencies --   1336.2514              1360.1038              1379.1456
 Red. masses --      1.6095                 1.8743                 1.4615
 Frc consts  --      1.6933                 2.0428                 1.6378
 IR Inten    --     57.9150                91.8631                14.5821

                     28                     29                     30
                      A                      A                      A
 Frequencies --   1414.3553              1426.3258              1493.9281
 Red. masses --      1.2895                 1.7171                 1.0558
 Frc consts  --      1.5199                 2.0582                 1.3883
 IR Inten    --     11.8023                42.8461                 4.7388

                     31                     32                     33
                      A                      A                      A
 Frequencies --   1495.7069              1504.4072              1508.9949
 Red. masses --      1.0516                 1.0485                 1.0747
 Frc consts  --      1.3861                 1.3981                 1.4418
 IR Inten    --      6.0952                 6.2995                 3.6264

                     34                     35                     36
                      A                      A                      A
 Frequencies --   1671.4032              1739.5569              3035.6227
 Red. masses --      1.1241                 7.6038                 1.0429
 Frc consts  --      1.8503                13.5569                 5.6623
 IR Inten    --     36.0082                40.2417                11.3738

                     37                     38                     39
                      A                      A                      A
 Frequencies --   3049.0326              3098.2314              3118.1379
 Red. masses --      1.0361                 1.0950                 1.1025
 Frc consts  --      5.6751                 6.1931                 6.3159
 IR Inten    --     15.6404                15.3033                25.5295

                     40                     41                     42
                      A                      A                      A
 Frequencies --   3146.4215              3163.2138              3409.0826
 Red. masses --      1.1022                 1.1001                 1.0722
 Frc consts  --      6.4290                 6.4855                 7.3421
 IR Inten    --     12.6962                 7.5519                 3.0428

                     43                     44                     45
                      A                      A                      A
 Frequencies --   3496.3741              3581.3297              3807.8552
 Red. masses --      1.0495                 1.0926                 1.0657
 Frc consts  --      7.5591                 8.2566                 9.1046
 IR Inten    --      0.7630                 1.5080                 7.2988

 - Thermochemistry -
 -------------------
 Temperature   298.150 Kelvin.  Pressure   1.00000 Atm.
 Atom     1 has atomic number  6 and mass  12.00000

 Molecular mass:   102.07931 amu.
 Principal axes and moments of inertia in atomic units:
                           1         2         3
     Eigenvalues --   543.10899 768.95851 925.95237
           X            0.99461   0.10053   0.02539
           Y           -0.09871   0.99300  -0.06482
           Z           -0.03173   0.06197   0.99757
 This molecule is an asymmetric top.
 Rotational symmetry number  1.
 Warning -- assumption of classical behavior for rotation
           may cause significant error
 Rotational temperatures (Kelvin)      0.15948     0.11264     0.09354
 Rotational constants (GHZ):           3.32298     2.34699     1.94906
 Zero-point vibrational energy     387043.6 (Joules/Mol)
                                   92.50564 (Kcal/Mol)
 Warning -- explicit consideration of  13 degrees of freedom as
           vibrations may cause significant error
 Vibrational temperatures:    111.19   272.60   332.60   347.75   393.07
          (Kelvin)            431.65   507.49   545.95   555.41   636.12
                              719.75   793.85   862.01   999.88  1248.80
                             1309.96  1360.06  1401.14  1443.48  1494.69
                             1577.91  1590.61  1633.23  1693.18  1922.57
                             1956.88  1984.28  2034.94  2052.16  2149.43
                             2151.99  2164.50  2171.10  2404.77  2502.83
                             4367.58  4386.87  4457.66  4486.30  4526.99
                             4551.15  4904.90  5030.50  5152.73  5478.65

 Zero-point correction=                           0.147417 (Hartree/Particle)
 Thermal correction to Energy=                    0.155883
 Thermal correction to Enthalpy=                  0.156827
 Thermal correction to Gibbs Free Energy=         0.115430
 Sum of electronic and zero-point Energies=           -343.025823
 Sum of electronic and thermal Energies=              -343.017357
 Sum of electronic and thermal Enthalpies=            -343.016413
 Sum of electronic and thermal Free Energies=         -343.057811

                     E (Thermal)             CV                S
                      KCal/Mol        Cal/Mol-Kelvin    Cal/Mol-Kelvin
 Total                   97.818             31.521             87.129
 Electronic               0.000              0.000              0.000
 Translational            0.889              2.981             39.779
 Rotational               0.889              2.981             27.450
 Vibrational             96.041             25.559             19.900
 Vibration     1          0.599              1.964              3.959
 Vibration     2          0.633              1.854              2.233
 Vibration     3          0.653              1.793              1.870
 Vibration     4          0.658              1.776              1.790
 Vibration     5          0.676              1.723              1.576
 Vibration     6          0.693              1.674              1.417
 Vibration     7          0.729              1.570              1.154
 Vibration     8          0.749              1.514              1.041
 Vibration     9          0.755              1.500              1.015
 Vibration    10          0.802              1.378              0.820
 Vibration    11          0.856              1.249              0.658
 Vibration    12          0.907              1.136              0.541
 Vibration    13          0.957              1.034              0.451

 Optimization completed.
    -- Stationary point found.
 Normal termination of Gaussian 09 at Thu Sep  8 14:58:02 2022.
