 Gaussian 09, Revision E.01,
 Gaussian 09:  ES64L-G09RevE.01 30-Nov-2015

 --------------------------------
 #P OPT=calcfc Freq B3LYP/6-31G**
 --------------------------------

 --------
 Frag_241
 --------
 Symbolic Z-matrix:
 Charge =  0 Multiplicity = 1

 SCF Done:  E(RB3LYP) =  -189.279105301     A.U. after   13 cycles
 SCF Done:  E(RB3LYP) =  -189.281121241     A.U. after   13 cycles
 SCF Done:  E(RB3LYP) =  -189.289843183     A.U. after   14 cycles
 SCF Done:  E(RB3LYP) =  -189.257430001     A.U. after   14 cycles
 SCF Done:  E(RB3LYP) =  -189.290187165     A.U. after    9 cycles
 SCF Done:  E(RB3LYP) =  -189.292097375     A.U. after   12 cycles
 SCF Done:  E(RB3LYP) =  -189.292557873     A.U. after   12 cycles
 SCF Done:  E(RB3LYP) =  -189.292748109     A.U. after   11 cycles
 SCF Done:  E(RB3LYP) =  -189.292845398     A.U. after   11 cycles
 SCF Done:  E(RB3LYP) =  -189.292873170     A.U. after    9 cycles
 SCF Done:  E(RB3LYP) =  -189.292879847     A.U. after    8 cycles
 SCF Done:  E(RB3LYP) =  -189.292881447     A.U. after    9 cycles
 Optimization completed.
    -- Stationary point found.
 Normal termination of Gaussian 09 at Sat Aug 21 02:21:40 2021.

 ----------------------------------------------------------------------
 #P Geom=AllCheck Guess=TCheck SCRF=Check GenChk RB3LYP/6-31G(d,p) Freq
 ----------------------------------------------------------------------

 Structure from the checkpoint file:  "/public/home/users/caep010/.cache/gau_scr/Gau-54397.chk"
 --------
 Frag_241
 --------
 Charge =  0 Multiplicity = 1

                         Standard orientation:
 ---------------------------------------------------------------------
 Center     Atomic      Atomic             Coordinates (Angstroms)
 Number     Number       Type             X           Y           Z
 ---------------------------------------------------------------------
      1          6           0        1.861827   -0.097751    0.008780
      2          6           0        0.440823    0.375197   -0.000189
      3          7           0       -0.529517   -0.455935   -0.001362
      4          7           0       -1.812543    0.045050   -0.097310
      5          1           0        1.890999   -1.189223    0.031599
      6          1           0        2.400386    0.250066   -0.881984
      7          1           0        2.404455    0.290301    0.879985
      8          1           0        0.262999    1.461651   -0.015600
      9          1           0       -1.924794    0.991882    0.270154
     10          1           0       -2.455528   -0.593157    0.355002
 ---------------------------------------------------------------------

 SCF Done:  E(RB3LYP) =  -189.292881447     A.U. after    1 cycles

 The electronic state is 1-A.
 Alpha  occ. eigenvalues --  -14.35450 -14.35258 -10.21063 -10.18084  -0.97939
 Alpha  occ. eigenvalues --   -0.80854  -0.70612  -0.57325  -0.50492  -0.49920
 Alpha  occ. eigenvalues --   -0.41832  -0.39478  -0.37774  -0.36029  -0.26441
 Alpha  occ. eigenvalues --   -0.22053
 Alpha virt. eigenvalues --    0.01901   0.08892   0.12020   0.13574   0.16428
 Alpha virt. eigenvalues --    0.17385   0.17625   0.23219   0.26726   0.38719
 Alpha virt. eigenvalues --    0.55571   0.55693   0.57149   0.60075   0.61553

 Mulliken charges:
               1
     1  C   -0.351755
     2  C    0.112546
     3  N   -0.251043
     4  N   -0.431438
     5  H    0.131053
     6  H    0.116788
     7  H    0.112644
     8  H    0.060252
     9  H    0.233243
    10  H    0.267711
 Sum of Mulliken charges =  -0.00000

 Dipole moment (field-independent basis, Debye):
    X=             -0.1849    Y=              1.4051    Z=              1.2236  Tot=              1.8724
 Quadrupole moment (field-independent basis, Debye-Ang):
   XX=            -20.5158   YY=            -24.4296   ZZ=            -26.2177
   XY=             -0.3345   XZ=             -3.0586   YZ=              0.0765

  Exact polarizability:  57.194   2.957  34.507  -0.953   0.126  22.513
 Approx polarizability:  78.356  10.331  52.024   0.210   0.541  31.153

                      1                      2                      3
                      A                      A                      A
 Frequencies --    196.3105               272.4764               319.6783
 Red. masses --      1.2044                 2.2554                 2.5414
 Frc consts  --      0.0273                 0.0987                 0.1530
 IR Inten    --      1.2520                14.4792                21.9665

                      4                      5                      6
                      A                      A                      A
 Frequencies --    411.9856               565.2521               740.5603
 Red. masses --      1.3153                 3.1622                 1.4842
 Frc consts  --      0.1315                 0.5953                 0.4796
 IR Inten    --     21.6212                 0.9057               282.1228

                      7                      8                      9
                      A                      A                      A
 Frequencies --    897.8280               929.3342              1073.1839
 Red. masses --      1.3292                 1.6176                 1.5121
 Frc consts  --      0.6313                 0.8231                 1.0261
 IR Inten    --     19.2394                10.1178                 0.2392

                     10                     11                     12
                      A                      A                      A
 Frequencies --   1130.1168              1158.5583              1274.7032
 Red. masses --      2.9036                 2.3765                 1.1708
 Frc consts  --      2.1849                 1.8794                 1.1208
 IR Inten    --     20.7532                22.9346                13.3588

                     13                     14                     15
                      A                      A                      A
 Frequencies --   1400.3482              1443.5067              1492.7660
 Red. masses --      1.2493                 1.4895                 1.0455
 Frc consts  --      1.4434                 1.8286                 1.3727
 IR Inten    --      2.7708                12.9515                 6.6667

                     16                     17                     18
                      A                      A                      A
 Frequencies --   1497.3874              1665.4059              1737.8475
 Red. masses --      1.0559                 1.1249                 5.8872
 Frc consts  --      1.3948                 1.8383                10.4757
 IR Inten    --      7.3580                22.9186                 1.2090

                     19                     20                     21
                      A                      A                      A
 Frequencies --   3013.0902              3031.1062              3078.4650
 Red. masses --      1.0808                 1.0427                 1.1003
 Frc consts  --      5.7812                 5.6441                 6.1439
 IR Inten    --     64.1976                27.7773                24.9967

                     22                     23                     24
                      A                      A                      A
 Frequencies --   3145.4052              3426.5391              3612.6147
 Red. masses --      1.0995                 1.0535                 1.0894
 Frc consts  --      6.4091                 7.2877                 8.3772
 IR Inten    --     13.9212                 9.1933                 7.7018

 - Thermochemistry -
 -------------------
 Temperature   298.150 Kelvin.  Pressure   1.00000 Atm.
 Atom     1 has atomic number  6 and mass  12.00000

 Molecular mass:    58.05310 amu.
 Principal axes and moments of inertia in atomic units:
                           1         2         3
     Eigenvalues --    41.64175 431.25859 459.48721
           X            0.99990  -0.00870  -0.01116
           Y            0.00878   0.99994   0.00702
           Z            0.01110  -0.00711   0.99991
 This molecule is an asymmetric top.
 Rotational symmetry number  1.
 Rotational temperatures (Kelvin)      2.07998     0.20084     0.18850
 Rotational constants (GHZ):          43.33971     4.18482     3.92773
 Zero-point vibrational energy     224386.4 (Joules/Mol)
                                   53.62963 (Kcal/Mol)
 Warning -- explicit consideration of   5 degrees of freedom as
           vibrations may cause significant error
 Vibrational temperatures:    282.45   392.03   459.95   592.75   813.27
          (Kelvin)           1065.50  1291.77  1337.10  1544.07  1625.98
                             1666.90  1834.01  2014.79  2076.88  2147.75
                             2154.40  2396.14  2500.37  4335.16  4361.08
                             4429.22  4525.53  4930.02  5197.74

 Zero-point correction=                           0.085464 (Hartree/Particle)
 Thermal correction to Energy=                    0.090503
 Thermal correction to Enthalpy=                  0.091447
 Thermal correction to Gibbs Free Energy=         0.058657
 Sum of electronic and zero-point Energies=           -189.207417
 Sum of electronic and thermal Energies=              -189.202378
 Sum of electronic and thermal Enthalpies=            -189.201434
 Sum of electronic and thermal Free Energies=         -189.234225

                     E (Thermal)             CV                S
                      KCal/Mol        Cal/Mol-Kelvin    Cal/Mol-Kelvin
 Total                   56.792             16.812             69.014
 Electronic               0.000              0.000              0.000
 Translational            0.889              2.981             38.097
 Rotational               0.889              2.981             23.627
 Vibrational             55.014             10.850              7.290
 Vibration     1          0.636              1.845              2.167
 Vibration     2          0.675              1.724              1.580
 Vibration     3          0.706              1.636              1.312
 Vibration     4          0.776              1.444              0.920
 Vibration     5          0.921              1.106              0.513

 Normal termination of Gaussian 09 at Sat Aug 21 02:21:46 2021.
