 Gaussian 09, Revision E.01,
 Gaussian 09:  ES64L-G09RevE.01 30-Nov-2015

 --------------------------------
 #P OPT=calcfc Freq B3LYP/6-31G**
 --------------------------------

 --------
 Frag_323
 --------
 Symbolic Z-matrix:
 Charge =  0 Multiplicity = 1

 SCF Done:  E(RB3LYP) =  -283.945382871     A.U. after   14 cycles
 SCF Done:  E(RB3LYP) =  -283.967929049     A.U. after   13 cycles
 SCF Done:  E(RB3LYP) =  -283.937753094     A.U. after   13 cycles
 SCF Done:  E(RB3LYP) =  -283.968312219     A.U. after    9 cycles
 SCF Done:  E(RB3LYP) =  -283.969298341     A.U. after   13 cycles
 SCF Done:  E(RB3LYP) =  -283.971482939     A.U. after   12 cycles
 SCF Done:  E(RB3LYP) =  -283.975028571     A.U. after   13 cycles
 SCF Done:  E(RB3LYP) =  -283.975334726     A.U. after   12 cycles
 SCF Done:  E(RB3LYP) =  -283.978110955     A.U. after   14 cycles
 SCF Done:  E(RB3LYP) =  -283.947421188     A.U. after   13 cycles
 SCF Done:  E(RB3LYP) =  -283.971108450     A.U. after   14 cycles
 SCF Done:  E(RB3LYP) =  -283.984365600     A.U. after   12 cycles
 SCF Done:  E(RB3LYP) =  -283.984693478     A.U. after   12 cycles
 SCF Done:  E(RB3LYP) =  -283.984901164     A.U. after   11 cycles
 SCF Done:  E(RB3LYP) =  -283.984937304     A.U. after   11 cycles
 SCF Done:  E(RB3LYP) =  -283.985035128     A.U. after   11 cycles
 SCF Done:  E(RB3LYP) =  -283.985052405     A.U. after    9 cycles
 SCF Done:  E(RB3LYP) =  -283.985059285     A.U. after    9 cycles
 SCF Done:  E(RB3LYP) =  -283.985060102     A.U. after    7 cycles
 Optimization completed.
    -- Stationary point found.
 Normal termination of Gaussian 09 at Fri Sep 10 21:22:53 2021.

 ----------------------------------------------------------------------
 #P Geom=AllCheck Guess=TCheck SCRF=Check GenChk RB3LYP/6-31G(d,p) Freq
 ----------------------------------------------------------------------

 Structure from the checkpoint file:  "/public/home/users/caep010/.cache/gau_scr/Gau-103079.chk"
 --------
 Frag_323
 --------
 Charge =  0 Multiplicity = 1

                         Standard orientation:
 ---------------------------------------------------------------------
 Center     Atomic      Atomic             Coordinates (Angstroms)
 Number     Number       Type             X           Y           Z
 ---------------------------------------------------------------------
      1          6           0        1.536459    1.197632   -0.067610
      2          6           0        0.660721   -0.022341    0.012619
      3          7           0        1.271852   -1.329803    0.086255
      4          6           0       -0.693015    0.021802   -0.012389
      5          7           0       -1.482229   -1.132809   -0.142743
      6          7           0       -1.424137    1.223934   -0.017213
      7          1           0        0.960418    2.091525   -0.324413
      8          1           0        2.310577    1.075133   -0.839529
      9          1           0        2.070609    1.401217    0.874041
     10          1           0        1.837763   -1.507198   -0.743969
     11          1           0        1.918327   -1.381766    0.873541
     12          1           0       -2.191872   -1.200853    0.582396
     13          1           0       -0.869977   -1.944906   -0.112078
     14          1           0       -2.420414    1.088574   -0.118541
     15          1           0       -1.198827    1.866462    0.728751
 ---------------------------------------------------------------------

 SCF Done:  E(RB3LYP) =  -283.985060102     A.U. after    1 cycles

 The electronic state is 1-A.
 Alpha  occ. eigenvalues --  -14.32504 -14.31491 -14.30870 -10.22607 -10.17069
 Alpha  occ. eigenvalues --  -10.16497  -0.92883  -0.86616  -0.84147  -0.71955
 Alpha  occ. eigenvalues --   -0.64632  -0.54615  -0.50491  -0.48611  -0.46481
 Alpha  occ. eigenvalues --   -0.43970  -0.41483  -0.39193  -0.38493  -0.36552
 Alpha  occ. eigenvalues --   -0.32545  -0.25141  -0.23646  -0.16924
 Alpha virt. eigenvalues --    0.06233   0.08575   0.09843   0.11922   0.15204
 Alpha virt. eigenvalues --    0.16221   0.17279   0.18529   0.18940   0.19683
 Alpha virt. eigenvalues --    0.26248   0.28145   0.30733   0.41910   0.44624

 Mulliken charges:
               1
     1  C   -0.363932
     2  C    0.134339
     3  N   -0.661148
     4  C    0.391838
     5  N   -0.637077
     6  N   -0.644707
     7  H    0.109369
     8  H    0.093138
     9  H    0.089508
    10  H    0.239552
    11  H    0.234916
    12  H    0.233663
    13  H    0.272056
    14  H    0.251826
    15  H    0.256659
 Sum of Mulliken charges =  -0.00000

 Dipole moment (field-independent basis, Debye):
    X=             -0.1871    Y=              0.2483    Z=              1.9485  Tot=              1.9731
 Quadrupole moment (field-independent basis, Debye-Ang):
   XX=            -30.4098   YY=            -36.5567   ZZ=            -37.7180
   XY=             -2.5761   XZ=             -3.7674   YZ=              1.2434

  Exact polarizability:  75.538   0.473  55.558  -0.647   1.374  35.576
 Approx polarizability: 109.587  -0.903  73.716   1.223   2.647  51.342

                      1                      2                      3
                      A                      A                      A
 Frequencies --    157.9843               172.7097               221.8029
 Red. masses --      1.6378                 1.3776                 1.1054
 Frc consts  --      0.0241                 0.0242                 0.0320
 IR Inten    --      3.3125                 2.6072                34.9636

                      4                      5                      6
                      A                      A                      A
 Frequencies --    264.4883               286.3110               330.3100
 Red. masses --      1.5933                 2.2274                 2.0275
 Frc consts  --      0.0657                 0.1076                 0.1303
 IR Inten    --     21.3251                 3.2622                 1.5973

                      7                      8                      9
                      A                      A                      A
 Frequencies --    374.4682               437.7630               470.2535
 Red. masses --      2.5571                 1.0629                 2.8121
 Frc consts  --      0.2113                 0.1200                 0.3664
 IR Inten    --      6.7858                73.9589                 6.1318

                     10                     11                     12
                      A                      A                      A
 Frequencies --    542.9161               559.1644               627.3305
 Red. masses --      3.0908                 1.4760                 3.0260
 Frc consts  --      0.5368                 0.2719                 0.7016
 IR Inten    --     32.7579               150.1643                60.3132

                     13                     14                     15
                      A                      A                      A
 Frequencies --    747.8022               855.5808               890.0059
 Red. masses --      4.0864                 1.4669                 1.3531
 Frc consts  --      1.3464                 0.6326                 0.6315
 IR Inten    --     13.8368               197.6119               216.9200

                     16                     17                     18
                      A                      A                      A
 Frequencies --    978.2957              1043.1358              1074.9118
 Red. masses --      1.7573                 1.2876                 1.7596
 Frc consts  --      0.9909                 0.8255                 1.1979
 IR Inten    --      0.7795                 2.3214                32.0665

                     19                     20                     21
                      A                      A                      A
 Frequencies --   1141.2289              1208.7666              1238.2246
 Red. masses --      1.3631                 1.5355                 2.7334
 Frc consts  --      1.0460                 1.3218                 2.4692
 IR Inten    --      4.9584                 7.6734                21.9142

                     22                     23                     24
                      A                      A                      A
 Frequencies --   1291.4528              1390.3310              1429.5145
 Red. masses --      1.9812                 2.7085                 1.4505
 Frc consts  --      1.9468                 3.0847                 1.7464
 IR Inten    --     45.9810                33.8649                 2.6508

                     25                     26                     27
                      A                      A                      A
 Frequencies --   1500.7519              1506.9096              1633.6734
 Red. masses --      1.0469                 1.0570                 1.2328
 Frc consts  --      1.3892                 1.4142                 1.9385
 IR Inten    --      6.4422                 5.6578                55.2294

                     28                     29                     30
                      A                      A                      A
 Frequencies --   1644.6361              1656.0918              1780.0390
 Red. masses --      1.1326                 1.1350                 4.1275
 Frc consts  --      1.8049                 1.8341                 7.7054
 IR Inten    --     41.1767                20.1078               115.9273

                     31                     32                     33
                      A                      A                      A
 Frequencies --   2988.2915              3025.9881              3112.9209
 Red. masses --      1.0448                 1.0963                 1.0945
 Frc consts  --      5.4970                 5.9146                 6.2488
 IR Inten    --     83.1388                51.3717                20.7899

                     34                     35                     36
                      A                      A                      A
 Frequencies --   3444.6728              3480.2156              3503.1011
 Red. masses --      1.0479                 1.0481                 1.0923
 Frc consts  --      7.3258                 7.4790                 7.8976
 IR Inten    --     11.1525                20.6953                 0.8805

                     37                     38                     39
                      A                      A                      A
 Frequencies --   3575.7111              3582.0048              3684.4339
 Red. masses --      1.0491                 1.0926                 1.0988
 Frc consts  --      7.9033                 8.2599                 8.7882
 IR Inten    --      7.0329                16.4564                13.2756

 - Thermochemistry -
 -------------------
 Temperature   298.150 Kelvin.  Pressure   1.00000 Atm.
 Atom     1 has atomic number  6 and mass  12.00000

 Molecular mass:    87.07965 amu.
 Principal axes and moments of inertia in atomic units:
                           1         2         3
     Eigenvalues --   381.52199 557.38746 908.65976
           X            0.99948   0.02979  -0.01257
           Y           -0.02975   0.99955   0.00307
           Z            0.01266  -0.00270   0.99992
 This molecule is an asymmetric top.
 Rotational symmetry number  1.
 Rotational temperatures (Kelvin)      0.22702     0.15539     0.09532
 Rotational constants (GHZ):           4.73037     3.23786     1.98616
 Zero-point vibrational energy     346044.9 (Joules/Mol)
                                   82.70672 (Kcal/Mol)
 Warning -- explicit consideration of  11 degrees of freedom as
           vibrations may cause significant error
 Vibrational temperatures:    227.30   248.49   319.12   380.54   411.94
          (Kelvin)            475.24   538.78   629.84   676.59   781.13
                              804.51   902.59  1075.92  1230.99  1280.52
                             1407.55  1500.84  1546.56  1641.97  1739.14
                             1781.53  1858.11  2000.37  2056.75  2159.24
                             2168.10  2350.49  2366.26  2382.74  2561.08
                             4299.48  4353.72  4478.79  4956.11  5007.25
                             5040.17  5144.64  5153.70  5301.07

 Zero-point correction=                           0.131802 (Hartree/Particle)
 Thermal correction to Energy=                    0.139474
 Thermal correction to Enthalpy=                  0.140418
 Thermal correction to Gibbs Free Energy=         0.101196
 Sum of electronic and zero-point Energies=           -283.853259
 Sum of electronic and thermal Energies=              -283.845586
 Sum of electronic and thermal Enthalpies=            -283.844642
 Sum of electronic and thermal Free Energies=         -283.883864

                     E (Thermal)             CV                S
                      KCal/Mol        Cal/Mol-Kelvin    Cal/Mol-Kelvin
 Total                   87.521             28.217             82.550
 Electronic               0.000              0.000              0.000
 Translational            0.889              2.981             39.306
 Rotational               0.889              2.981             26.760
 Vibrational             85.744             22.256             16.484
 Vibration     1          0.621              1.894              2.574
 Vibration     2          0.626              1.876              2.406
 Vibration     3          0.648              1.808              1.944
 Vibration     4          0.671              1.738              1.632
 Vibration     5          0.684              1.699              1.496
 Vibration     6          0.713              1.615              1.259
 Vibration     7          0.746              1.524              1.061
 Vibration     8          0.798              1.388              0.834
 Vibration     9          0.827              1.316              0.737
 Vibration    10          0.898              1.155              0.559
 Vibration    11          0.915              1.120              0.526

 Normal termination of Gaussian 09 at Fri Sep 10 21:23:05 2021.
