 Gaussian 09, Revision E.01,
 Gaussian 09:  ES64L-G09RevE.01 30-Nov-2015

 ----------------------------
 #P OPT Freq B3LYP/6-31G(d,p)
 ----------------------------

 --------
 Frag_490
 --------
 Symbolic Z-matrix:
 Charge =  0 Multiplicity = 1

 SCF Done:  E(RB3LYP) =  -351.630996833     A.U. after   13 cycles
 SCF Done:  E(RB3LYP) =  -351.631030967     A.U. after    9 cycles
 SCF Done:  E(RB3LYP) =  -351.631033740     A.U. after    9 cycles
 SCF Done:  E(RB3LYP) =  -351.631034879     A.U. after    7 cycles
 SCF Done:  E(RB3LYP) =  -351.631036782     A.U. after    7 cycles
 SCF Done:  E(RB3LYP) =  -351.631037082     A.U. after    7 cycles
 SCF Done:  E(RB3LYP) =  -351.631037089     A.U. after    6 cycles
 Optimization completed.
    -- Stationary point found.
 Normal termination of Gaussian 09 at Thu Sep  8 15:02:02 2022.

 ----------------------------------------------------------------------
 #P Geom=AllCheck Guess=TCheck SCRF=Check GenChk RB3LYP/6-31G(d,p) Freq
 ----------------------------------------------------------------------

 Structure from the checkpoint file:  "B3LYP6-31Gdp.Frag_490.chk"
 --------
 Frag_490
 --------
 Charge =  0 Multiplicity = 1

                         Standard orientation:
 ---------------------------------------------------------------------
 Center     Atomic      Atomic             Coordinates (Angstroms)
 Number     Number       Type             X           Y           Z
 ---------------------------------------------------------------------
      1          6           0       -1.338553    1.303699   -0.589666
      2          6           0       -0.787634    0.008088    0.042598
      3          6           0       -1.284548   -0.092063    1.499769
      4          6           0       -1.372523   -1.183200   -0.749613
      5          6           0        0.793320   -0.000356   -0.037897
      6          6           0        1.425281    1.282542    0.519962
      7          6           0        1.423173   -1.213363    0.670821
      8          8           0        1.202029   -0.010207   -1.419973
      9          1           0       -1.126732    2.182557    0.026417
     10          1           0       -2.426517    1.238477   -0.699749
     11          1           0       -0.901989    1.464818   -1.579050
     12          1           0       -1.023583   -1.050697    1.958441
     13          1           0       -0.878545    0.706108    2.128852
     14          1           0       -2.376240   -0.003839    1.528555
     15          1           0       -1.026691   -2.151326   -0.373089
     16          1           0       -2.464705   -1.181020   -0.672375
     17          1           0       -1.128738   -1.117521   -1.815032
     18          1           0        2.514480    1.196229    0.474673
     19          1           0        1.137875    2.151269   -0.074997
     20          1           0        1.139543    1.458492    1.560312
     21          1           0        1.264664   -1.185118    1.752327
     22          1           0        1.023261   -2.163396    0.300828
     23          1           0        2.501122   -1.210070    0.485893
     24          1           0        1.005476   -0.885379   -1.778068
 ---------------------------------------------------------------------

 SCF Done:  E(RB3LYP) =  -351.631037089     A.U. after    1 cycles

 The electronic state is 1-A.
 Alpha  occ. eigenvalues --  -19.13425 -10.23680 -10.19398 -10.17342 -10.17287
 Alpha  occ. eigenvalues --  -10.17142 -10.16610 -10.16332  -1.00879  -0.81333
 Alpha  occ. eigenvalues --   -0.74982  -0.69467  -0.68096  -0.66746  -0.59795
 Alpha  occ. eigenvalues --   -0.53291  -0.48195  -0.45978  -0.44119  -0.43316
 Alpha  occ. eigenvalues --   -0.42684  -0.39591  -0.38773  -0.37829  -0.37362
 Alpha  occ. eigenvalues --   -0.36581  -0.36100  -0.35066  -0.33927  -0.32273
 Alpha  occ. eigenvalues --   -0.31741  -0.29940  -0.25662
 Alpha virt. eigenvalues --    0.06546   0.10426   0.12089   0.12624   0.13555
 Alpha virt. eigenvalues --    0.14411   0.14568   0.15363   0.16585   0.17527
 Alpha virt. eigenvalues --    0.19144   0.20033   0.20869   0.21384   0.22213

 Mulliken charges:
               1
     1  C   -0.311807
     2  C    0.056836
     3  C   -0.310388
     4  C   -0.330243
     5  C    0.277209
     6  C   -0.307869
     7  C   -0.332372
     8  O   -0.557663
     9  H    0.096450
    10  H    0.088276
    11  H    0.118494
    12  H    0.098108
    13  H    0.098914
    14  H    0.097227
    15  H    0.095543
    16  H    0.102310
    17  H    0.095798
    18  H    0.105451
    19  H    0.115707
    20  H    0.096236
    21  H    0.105986
    22  H    0.090413
    23  H    0.111197
    24  H    0.300188
 Sum of Mulliken charges =  -0.00000

 Dipole moment (field-independent basis, Debye):
    X=             -0.5690    Y=             -1.1094    Z=              0.6896  Tot=              1.4248
 Quadrupole moment (field-independent basis, Debye-Ang):
   XX=            -54.1188   YY=            -51.7618   ZZ=            -53.4708
   XY=             -1.1021   XZ=              1.5771   YZ=              2.5360

  Exact polarizability:  81.985   0.167  77.646   1.338   0.966  75.255
 Approx polarizability: 109.107   0.953 108.082  -0.905   1.390 109.116

                      1                      2                      3
                      A                      A                      A
 Frequencies --     69.4850               196.4549               234.2302
 Red. masses --      2.4677                 1.0333                 1.1304
 Frc consts  --      0.0070                 0.0235                 0.0365
 IR Inten    --      0.2767                 2.2375                 0.2829

                      4                      5                      6
                      A                      A                      A
 Frequencies --    251.0041               259.6207               275.8209
 Red. masses --      1.1837                 1.6270                 1.1097
 Frc consts  --      0.0439                 0.0646                 0.0497
 IR Inten    --      2.1520                 8.1657                 0.8092

                      7                      8                      9
                      A                      A                      A
 Frequencies --    286.5991               306.2250               324.2444
 Red. masses --      2.0691                 1.6580                 1.5143
 Frc consts  --      0.1001                 0.0916                 0.0938
 IR Inten    --      2.4956                 0.7241                50.9725

                     10                     11                     12
                      A                      A                      A
 Frequencies --    353.6480               378.0182               384.7979
 Red. masses --      2.3423                 1.8284                 1.7596
 Frc consts  --      0.1726                 0.1539                 0.1535
 IR Inten    --      8.6255                19.9432                21.1968

                     13                     14                     15
                      A                      A                      A
 Frequencies --    389.1010               405.6121               476.7786
 Red. masses --      1.9049                 2.4992                 2.4151
 Frc consts  --      0.1699                 0.2423                 0.3235
 IR Inten    --      1.1463                 8.9532                 1.1329

                     16                     17                     18
                      A                      A                      A
 Frequencies --    500.3773               515.5908               653.5364
 Red. masses --      2.7620                 2.8412                 3.1146
 Frc consts  --      0.4074                 0.4450                 0.7838
 IR Inten    --      6.4924                 7.1798                 1.5585

                     19                     20                     21
                      A                      A                      A
 Frequencies --    814.4735               885.9316               934.0512
 Red. masses --      2.7215                 2.2106                 1.5392
 Frc consts  --      1.0637                 1.0222                 0.7912
 IR Inten    --      1.2367                12.6840                 0.1742

                     22                     23                     24
                      A                      A                      A
 Frequencies --    937.1096               939.9204               961.3292
 Red. masses --      1.7222                 1.6546                 2.0772
 Frc consts  --      0.8911                 0.8612                 1.1311
 IR Inten    --      0.6558                 0.8344                26.0962

                     25                     26                     27
                      A                      A                      A
 Frequencies --    965.6654              1010.7524              1041.6441
 Red. masses --      1.2754                 1.2612                 1.3789
 Frc consts  --      0.7008                 0.7592                 0.8815
 IR Inten    --      3.2385                 1.4327                 3.7255

                     28                     29                     30
                      A                      A                      A
 Frequencies --   1048.5183              1122.7458              1193.4698
 Red. masses --      1.3862                 1.6363                 2.2748
 Frc consts  --      0.8979                 1.2153                 1.9090
 IR Inten    --      0.2339                34.8630                55.2460

                     31                     32                     33
                      A                      A                      A
 Frequencies --   1204.4282              1244.6728              1260.5355
 Red. masses --      2.2410                 2.4658                 2.9966
 Frc consts  --      1.9154                 2.2507                 2.8053
 IR Inten    --     32.6348                10.9923                 0.8223

                     34                     35                     36
                      A                      A                      A
 Frequencies --   1280.1189              1361.5332              1408.5816
 Red. masses --      2.7298                 1.5340                 1.2608
 Frc consts  --      2.6356                 1.6755                 1.4738
 IR Inten    --      0.8057                37.2605                 3.2305

                     37                     38                     39
                      A                      A                      A
 Frequencies --   1411.4466              1415.2601              1426.8180
 Red. masses --      1.2523                 1.3341                 1.2714
 Frc consts  --      1.4699                 1.5744                 1.5250
 IR Inten    --      8.6676                17.0532                20.5157

                     40                     41                     42
                      A                      A                      A
 Frequencies --   1443.9203              1490.8099              1493.6555
 Red. masses --      1.2182                 1.0536                 1.0466
 Frc consts  --      1.4965                 1.3796                 1.3757
 IR Inten    --      2.0719                 0.8540                 0.1689

                     43                     44                     45
                      A                      A                      A
 Frequencies --   1504.1756              1508.9740              1512.6095
 Red. masses --      1.0475                 1.0476                 1.0490
 Frc consts  --      1.3964                 1.4055                 1.4140
 IR Inten    --      0.4148                 0.1305                 0.4904

                     46                     47                     48
                      A                      A                      A
 Frequencies --   1516.7164              1521.9473              1525.2394
 Red. masses --      1.0539                 1.0506                 1.0546
 Frc consts  --      1.4284                 1.4338                 1.4455
 IR Inten    --      7.0576                 5.6492                 2.1092

                     49                     50                     51
                      A                      A                      A
 Frequencies --   1536.0228              1541.6792              3040.8096
 Red. masses --      1.0521                 1.0580                 1.0354
 Frc consts  --      1.4625                 1.4815                 5.6408
 IR Inten    --      4.9498                 6.1795                23.8575

                     52                     53                     54
                      A                      A                      A
 Frequencies --   3042.1034              3047.6211              3051.7429
 Red. masses --      1.0360                 1.0368                 1.0363
 Frc consts  --      5.6489                 5.6735                 5.6864
 IR Inten    --     16.3302                27.7457                17.8400

                     55                     56                     57
                      A                      A                      A
 Frequencies --   3064.0996              3104.9019              3106.5927
 Red. masses --      1.0370                 1.1015                 1.1012
 Frc consts  --      5.7364                 6.2567                 6.2617
 IR Inten    --      8.0131                 1.9047                 8.1544

                     58                     59                     60
                      A                      A                      A
 Frequencies --   3111.7571              3114.5112              3119.4128
 Red. masses --      1.1014                 1.1005                 1.1026
 Frc consts  --      6.2838                 6.2893                 6.3212
 IR Inten    --     32.4284                87.0640                20.8868

                     61                     62                     63
                      A                      A                      A
 Frequencies --   3122.0591              3130.4572              3133.6795
 Red. masses --      1.1006                 1.1021                 1.1022
 Frc consts  --      6.3204                 6.3634                 6.3769
 IR Inten    --     38.0422                 9.9325                 5.1551

                     64                     65                     66
                      A                      A                      A
 Frequencies --   3135.8993              3151.4425              3819.8926
 Red. masses --      1.1017                 1.1016                 1.0659
 Frc consts  --      6.3831                 6.4462                 9.1638
 IR Inten    --     59.1998                18.8771                 8.0536

 - Thermochemistry -
 -------------------
 Temperature   298.150 Kelvin.  Pressure   1.00000 Atm.
 Atom     1 has atomic number  6 and mass  12.00000

 Molecular mass:   116.12012 amu.
 Principal axes and moments of inertia in atomic units:
                           1         2         3
     Eigenvalues --   765.434041068.446661081.53786
           X            0.99874  -0.01719   0.04713
           Y            0.00562   0.97186   0.23549
           Z           -0.04985  -0.23493   0.97073
 This molecule is an asymmetric top.
 Rotational symmetry number  1.
 Warning -- assumption of classical behavior for rotation
           may cause significant error
 Rotational temperatures (Kelvin)      0.11316     0.08107     0.08008
 Rotational constants (GHZ):           2.35780     1.68913     1.66868
 Zero-point vibrational energy     580325.7 (Joules/Mol)
                                  138.70117 (Kcal/Mol)
 Warning -- explicit consideration of  17 degrees of freedom as
           vibrations may cause significant error
 Vibrational temperatures:     99.97   282.65   337.00   361.14   373.54
          (Kelvin)            396.84   412.35   440.59   466.51   508.82
                              543.88   553.64   559.83   583.58   685.98
                              719.93   741.82   940.29  1171.84  1274.66
                             1343.89  1348.29  1352.33  1383.14  1389.38
                             1454.25  1498.69  1508.58  1615.38  1717.13
                             1732.90  1790.80  1813.63  1841.80  1958.94
                             2026.63  2030.75  2036.24  2052.87  2077.48
                             2144.94  2149.03  2164.17  2171.07  2176.31
                             2182.21  2189.74  2194.48  2209.99  2218.13
                             4375.04  4376.90  4384.84  4390.77  4408.55
                             4467.26  4469.69  4477.12  4481.08  4488.13
                             4491.94  4504.02  4508.66  4511.85  4534.22
                             5495.97

 Zero-point correction=                           0.221034 (Hartree/Particle)
 Thermal correction to Energy=                    0.231474
 Thermal correction to Enthalpy=                  0.232418
 Thermal correction to Gibbs Free Energy=         0.187342
 Sum of electronic and zero-point Energies=           -351.410003
 Sum of electronic and thermal Energies=              -351.399563
 Sum of electronic and thermal Enthalpies=            -351.398619
 Sum of electronic and thermal Free Energies=         -351.443695

                     E (Thermal)             CV                S
                      KCal/Mol        Cal/Mol-Kelvin    Cal/Mol-Kelvin
 Total                  145.252             40.871             94.871
 Electronic               0.000              0.000              0.000
 Translational            0.889              2.981             40.164
 Rotational               0.889              2.981             28.272
 Vibrational            143.475             34.909             26.436
 Vibration     1          0.598              1.969              4.168
 Vibration     2          0.636              1.845              2.166
 Vibration     3          0.654              1.788              1.846
 Vibration     4          0.663              1.761              1.724
 Vibration     5          0.668              1.746              1.664
 Vibration     6          0.677              1.718              1.559
 Vibration     7          0.684              1.699              1.494
 Vibration     8          0.697              1.662              1.383
 Vibration     9          0.709              1.627              1.289
 Vibration    10          0.730              1.568              1.150
 Vibration    11          0.748              1.517              1.047
 Vibration    12          0.754              1.503              1.020
 Vibration    13          0.757              1.493              1.004
 Vibration    14          0.771              1.458              0.942
 Vibration    15          0.833              1.302              0.719
 Vibration    16          0.856              1.249              0.657
 Vibration    17          0.871              1.215              0.620

 Optimization completed.
    -- Stationary point found.
 Normal termination of Gaussian 09 at Thu Sep  8 15:02:33 2022.
