 Gaussian 09, Revision E.01,
 Gaussian 09:  ES64L-G09RevE.01 30-Nov-2015

 ----------------------------
 #P OPT Freq B3LYP/6-31G(d,p)
 ----------------------------

 --------
 Frag_979
 --------
 Symbolic Z-matrix:
 Charge =  0 Multiplicity = 1

 SCF Done:  E(RB3LYP) =  -324.508786362     A.U. after   13 cycles
 SCF Done:  E(RB3LYP) =  -324.508823464     A.U. after    9 cycles
 SCF Done:  E(RB3LYP) =  -324.508831542     A.U. after    8 cycles
 SCF Done:  E(RB3LYP) =  -324.508832941     A.U. after    7 cycles
 SCF Done:  E(RB3LYP) =  -324.508833594     A.U. after    7 cycles
 SCF Done:  E(RB3LYP) =  -324.508833777     A.U. after    6 cycles
 SCF Done:  E(RB3LYP) =  -324.508833876     A.U. after    6 cycles
 Optimization completed.
    -- Stationary point found.
 Normal termination of Gaussian 09 at Thu Sep  8 15:08:21 2022.

 ----------------------------------------------------------------------
 #P Geom=AllCheck Guess=TCheck SCRF=Check GenChk RB3LYP/6-31G(d,p) Freq
 ----------------------------------------------------------------------

 Structure from the checkpoint file:  "B3LYP6-31Gdp.Frag_979.chk"
 --------
 Frag_979
 --------
 Charge =  0 Multiplicity = 1

                         Standard orientation:
 ---------------------------------------------------------------------
 Center     Atomic      Atomic             Coordinates (Angstroms)
 Number     Number       Type             X           Y           Z
 ---------------------------------------------------------------------
      1          6           0        1.487589    1.274695    0.007541
      2          7           0        0.810603    0.053384   -0.424665
      3          6           0        1.608943   -1.116079   -0.044865
      4          6           0       -0.598139   -0.040965    0.000660
      5          6           0       -1.360644    1.241633   -0.382146
      6          7           0       -0.721143   -0.219024    1.453401
      7          7           0       -1.135510   -1.224849   -0.699050
      8          1           0        1.034461    2.158614   -0.446862
      9          1           0        1.488339    1.401824    1.102452
     10          1           0        2.526347    1.232541   -0.333707
     11          1           0        2.563074   -1.081256   -0.580978
     12          1           0        1.083336   -2.028344   -0.326892
     13          1           0        1.834084   -1.155601    1.035617
     14          1           0       -1.080546    2.095171    0.239532
     15          1           0       -1.176329    1.489326   -1.430942
     16          1           0       -2.435732    1.074461   -0.253730
     17          1           0       -0.534592   -1.193152    1.680154
     18          1           0       -1.672100   -0.025039    1.757594
     19          1           0       -2.138016   -1.285891   -0.536110
     20          1           0       -0.996477   -1.104925   -1.701065
 ---------------------------------------------------------------------

 SCF Done:  E(RB3LYP) =  -324.508833876     A.U. after    1 cycles

 The electronic state is 1-A.
 Alpha  occ. eigenvalues --  -14.31157 -14.30783 -14.30597 -10.26329 -10.18640
 Alpha  occ. eigenvalues --  -10.18318 -10.17463  -0.94411  -0.86084  -0.83042
 Alpha  occ. eigenvalues --   -0.72222  -0.68141  -0.64092  -0.54671  -0.50031
 Alpha  occ. eigenvalues --   -0.47880  -0.47023  -0.44131  -0.42789  -0.41520
 Alpha  occ. eigenvalues --   -0.38597  -0.38463  -0.37084  -0.36346  -0.34658
 Alpha  occ. eigenvalues --   -0.34354  -0.24715  -0.23501  -0.20509
 Alpha virt. eigenvalues --    0.06868   0.11619   0.12603   0.13257   0.14215
 Alpha virt. eigenvalues --    0.15700   0.16379   0.17406   0.18394   0.19094
 Alpha virt. eigenvalues --    0.19453   0.20095   0.21302   0.21874   0.23742

 Mulliken charges:
               1
     1  C   -0.156436
     2  N   -0.406559
     3  C   -0.171386
     4  C    0.366182
     5  C   -0.330862
     6  N   -0.576456
     7  N   -0.586640
     8  H    0.099161
     9  H    0.103582
    10  H    0.096020
    11  H    0.098222
    12  H    0.127592
    13  H    0.083385
    14  H    0.119803
    15  H    0.114060
    16  H    0.085887
    17  H    0.241944
    18  H    0.228004
    19  H    0.223928
    20  H    0.240568
 Sum of Mulliken charges =  -0.00000

 Dipole moment (field-independent basis, Debye):
    X=             -1.6721    Y=              0.1213    Z=             -0.2473  Tot=              1.6947
 Quadrupole moment (field-independent basis, Debye-Ang):
   XX=            -39.9832   YY=            -46.1409   ZZ=            -46.0305
   XY=              0.5384   XZ=             -0.3629   YZ=             -1.4097

  Exact polarizability:  71.650  -0.317  64.617  -0.572   0.026  59.847
 Approx polarizability:  92.273   0.263  86.962  -1.941   0.813  87.392

                      1                      2                      3
                      A                      A                      A
 Frequencies --    107.7328               215.2128               239.2643
 Red. masses --      2.7826                 1.2207                 1.1078
 Frc consts  --      0.0190                 0.0333                 0.0374
 IR Inten    --      1.4732                 2.4910                17.5608

                      4                      5                      6
                      A                      A                      A
 Frequencies --    262.5034               275.8375               282.3500
 Red. masses --      1.7583                 1.0758                 1.3970
 Frc consts  --      0.0714                 0.0482                 0.0656
 IR Inten    --      2.8885                12.3793                13.2280

                      7                      8                      9
                      A                      A                      A
 Frequencies --    312.7579               341.3812               388.9348
 Red. masses --      1.1816                 1.8099                 2.4923
 Frc consts  --      0.0681                 0.1243                 0.2221
 IR Inten    --     24.5115                16.7711                 5.0974

                     10                     11                     12
                      A                      A                      A
 Frequencies --    405.6888               427.1730               496.9551
 Red. masses --      2.4458                 2.0787                 2.2901
 Frc consts  --      0.2372                 0.2235                 0.3332
 IR Inten    --      6.9564                 5.2987                13.0379

                     13                     14                     15
                      A                      A                      A
 Frequencies --    529.0053               567.0805               721.7968
 Red. masses --      3.2631                 2.9692                 3.4402
 Frc consts  --      0.5380                 0.5626                 1.0560
 IR Inten    --     13.3037                 5.2543                13.3024

                     16                     17                     18
                      A                      A                      A
 Frequencies --    822.2308               888.3798               911.5102
 Red. masses --      2.3790                 1.6611                 1.4338
 Frc consts  --      0.9476                 0.7724                 0.7019
 IR Inten    --     83.4943               154.6978                27.7565

                     19                     20                     21
                      A                      A                      A
 Frequencies --    949.7267              1000.3689              1022.4608
 Red. masses --      1.5999                 2.0172                 1.7388
 Frc consts  --      0.8502                 1.1894                 1.0710
 IR Inten    --      1.7374                69.9327                37.4611

                     22                     23                     24
                      A                      A                      A
 Frequencies --   1068.6760              1084.7822              1122.3250
 Red. masses --      1.6716                 1.4811                 1.2516
 Frc consts  --      1.1248                 1.0269                 0.9289
 IR Inten    --      7.7759                15.0588                 3.0881

                     25                     26                     27
                      A                      A                      A
 Frequencies --   1190.1802              1200.6640              1248.3752
 Red. masses --      1.5259                 2.2950                 2.6789
 Frc consts  --      1.2735                 1.9493                 2.4598
 IR Inten    --      5.9059                47.0708                33.4678

                     28                     29                     30
                      A                      A                      A
 Frequencies --   1284.1197              1316.8102              1356.7883
 Red. masses --      1.9124                 2.3250                 1.9835
 Frc consts  --      1.8580                 2.3753                 2.1514
 IR Inten    --     10.0124                48.8245                50.3033

                     31                     32                     33
                      A                      A                      A
 Frequencies --   1416.3924              1440.8645              1476.4958
 Red. masses --      1.3338                 1.1544                 1.1793
 Frc consts  --      1.5765                 1.4120                 1.5148
 IR Inten    --     21.2739                 1.6006                 8.5839

                     34                     35                     36
                      A                      A                      A
 Frequencies --   1498.4961              1500.4551              1515.5421
 Red. masses --      1.0492                 1.0498                 1.0556
 Frc consts  --      1.3881                 1.3926                 1.4285
 IR Inten    --      5.6476                 2.9285                 6.8220

                     37                     38                     39
                      A                      A                      A
 Frequencies --   1523.3891              1530.6003              1542.0166
 Red. masses --      1.0522                 1.0529                 1.0536
 Frc consts  --      1.4387                 1.4533                 1.4760
 IR Inten    --      2.6634                 0.4577                10.5070

                     40                     41                     42
                      A                      A                      A
 Frequencies --   1636.2761              1665.4112              2962.3132
 Red. masses --      1.1091                 1.0984                 1.0584
 Frc consts  --      1.7497                 1.7950                 5.4721
 IR Inten    --     34.1874                33.5572                67.4608

                     43                     44                     45
                      A                      A                      A
 Frequencies --   2989.2349              3049.1387              3077.6973
 Red. masses --      1.0536                 1.0379                 1.0804
 Frc consts  --      5.5468                 5.6855                 6.0297
 IR Inten    --     62.1190                16.8252                35.8334

                     46                     47                     48
                      A                      A                      A
 Frequencies --   3088.3796              3117.5914              3128.3603
 Red. masses --      1.0819                 1.1003                 1.1002
 Frc consts  --      6.0801                 6.3011                 6.3439
 IR Inten    --     40.3928                35.7067                29.3733

                     49                     50                     51
                      A                      A                      A
 Frequencies --   3145.2246              3158.4366              3478.5087
 Red. masses --      1.1032                 1.0970                 1.0491
 Frc consts  --      6.4302                 6.4477                 7.4790
 IR Inten    --     20.4846                10.4575                 1.3426

                     52                     53                     54
                      A                      A                      A
 Frequencies --   3492.9581              3573.8384              3579.9312
 Red. masses --      1.0490                 1.0928                 1.0929
 Frc consts  --      7.5404                 8.2239                 8.2522
 IR Inten    --      0.7521                 0.2470                 1.1211

 - Thermochemistry -
 -------------------
 Temperature   298.150 Kelvin.  Pressure   1.00000 Atm.
 Atom     1 has atomic number  6 and mass  12.00000

 Molecular mass:   103.11095 amu.
 Principal axes and moments of inertia in atomic units:
                           1         2         3
     Eigenvalues --   559.81310 757.19142 923.50919
           X            0.99942  -0.03089   0.01446
           Y            0.03123   0.99922  -0.02429
           Z           -0.01370   0.02473   0.99960
 This molecule is an asymmetric top.
 Rotational symmetry number  1.
 Warning -- assumption of classical behavior for rotation
           may cause significant error
 Rotational temperatures (Kelvin)      0.15472     0.11439     0.09379
 Rotational constants (GHZ):           3.22383     2.38347     1.95422
 Zero-point vibrational energy     482266.3 (Joules/Mol)
                                  115.26440 (Kcal/Mol)
 Warning -- explicit consideration of  14 degrees of freedom as
           vibrations may cause significant error
 Vibrational temperatures:    155.00   309.64   344.25   377.68   396.87
          (Kelvin)            406.24   449.99   491.17   559.59   583.69
                              614.61   715.01   761.12   815.90  1038.50
                             1183.01  1278.18  1311.46  1366.44  1439.31
                             1471.09  1537.58  1560.76  1614.77  1712.40
                             1727.49  1796.13  1847.56  1894.59  1952.11
                             2037.87  2073.08  2124.35  2156.00  2158.82
                             2180.52  2191.81  2202.19  2218.62  2354.23
                             2396.15  4262.10  4300.84  4387.03  4428.11
                             4443.48  4485.51  4501.01  4525.27  4544.28
                             5004.79  5025.58  5141.95  5150.72

 Zero-point correction=                           0.183686 (Hartree/Particle)
 Thermal correction to Energy=                    0.192540
 Thermal correction to Enthalpy=                  0.193484
 Thermal correction to Gibbs Free Energy=         0.151768
 Sum of electronic and zero-point Energies=           -324.325148
 Sum of electronic and thermal Energies=              -324.316294
 Sum of electronic and thermal Enthalpies=            -324.315350
 Sum of electronic and thermal Free Energies=         -324.357066

                     E (Thermal)             CV                S
                      KCal/Mol        Cal/Mol-Kelvin    Cal/Mol-Kelvin
 Total                  120.821             34.045             87.800
 Electronic               0.000              0.000              0.000
 Translational            0.889              2.981             39.809
 Rotational               0.889              2.981             27.462
 Vibrational            119.043             28.083             20.529
 Vibration     1          0.606              1.943              3.309
 Vibration     2          0.645              1.818              1.999
 Vibration     3          0.657              1.780              1.808
 Vibration     4          0.670              1.742              1.645
 Vibration     5          0.677              1.718              1.559
 Vibration     6          0.681              1.706              1.519
 Vibration     7          0.701              1.649              1.348
 Vibration     8          0.721              1.593              1.206
 Vibration     9          0.757              1.494              1.004
 Vibration    10          0.771              1.458              0.942
 Vibration    11          0.789              1.411              0.868
 Vibration    12          0.852              1.257              0.666
 Vibration    13          0.884              1.186              0.589
 Vibration    14          0.923              1.102              0.510

 Optimization completed.
    -- Stationary point found.
 Normal termination of Gaussian 09 at Thu Sep  8 15:08:41 2022.
