 Gaussian 09, Revision E.01,
 Gaussian 09:  ES64L-G09RevE.01 30-Nov-2015

 ----------------------------
 #P OPT Freq B3LYP/6-31G(d,p)
 ----------------------------

 ---------
 Frag_1109
 ---------
 Symbolic Z-matrix:
 Charge =  0 Multiplicity = 1

 SCF Done:  E(RB3LYP) =  -264.446579826     A.U. after   14 cycles
 SCF Done:  E(RB3LYP) =  -264.446666071     A.U. after   10 cycles
 SCF Done:  E(RB3LYP) =  -264.446681461     A.U. after    9 cycles
 SCF Done:  E(RB3LYP) =  -264.446684861     A.U. after    9 cycles
 SCF Done:  E(RB3LYP) =  -264.446685318     A.U. after    8 cycles
 Optimization completed.
    -- Stationary point found.
 Normal termination of Gaussian 09 at Thu Sep  8 14:54:09 2022.

 ----------------------------------------------------------------------
 #P Geom=AllCheck Guess=TCheck SCRF=Check GenChk RB3LYP/6-31G(d,p) Freq
 ----------------------------------------------------------------------

 Structure from the checkpoint file:  "B3LYP6-31Gdp.Frag_1109.chk"
 ---------
 Frag_1109
 ---------
 Charge =  0 Multiplicity = 1

                         Standard orientation:
 ---------------------------------------------------------------------
 Center     Atomic      Atomic             Coordinates (Angstroms)
 Number     Number       Type             X           Y           Z
 ---------------------------------------------------------------------
      1          6           0        1.926487   -0.034439    0.158331
      2          6           0        0.793909   -0.654542   -0.173974
      3          7           0       -0.464148   -0.041627   -0.399437
      4          7           0       -1.497857   -0.789521    0.185936
      5          8           0       -0.455580    1.310437    0.126659
      6          1           0        1.956530    1.028998    0.356251
      7          1           0        2.847053   -0.601379    0.229667
      8          1           0        0.743546   -1.720620   -0.369382
      9          1           0       -1.495071   -0.650159    1.200300
     10          1           0       -2.377163   -0.431073   -0.176034
     11          1           0       -0.618594    1.842667   -0.665708
 ---------------------------------------------------------------------

 SCF Done:  E(RB3LYP) =  -264.446685318     A.U. after    1 cycles

 The electronic state is 1-A.
 Alpha  occ. eigenvalues --  -19.17608 -14.41522 -14.35673 -10.20903 -10.16511
 Alpha  occ. eigenvalues --   -1.07568  -0.93309  -0.79853  -0.69806  -0.57295
 Alpha  occ. eigenvalues --   -0.53622  -0.50264  -0.48224  -0.43437  -0.41758
 Alpha  occ. eigenvalues --   -0.36372  -0.31774  -0.30451  -0.26803  -0.21550
 Alpha virt. eigenvalues --    0.02733   0.07590   0.09050   0.13311   0.13892
 Alpha virt. eigenvalues --    0.15778   0.16634   0.20792   0.21874   0.30401
 Alpha virt. eigenvalues --    0.36278   0.52237   0.55275   0.59943   0.62661

 Mulliken charges:
               1
     1  C   -0.267441
     2  C    0.138469
     3  N   -0.162271
     4  N   -0.416394
     5  O   -0.438054
     6  H    0.106780
     7  H    0.093902
     8  H    0.115350
     9  H    0.247607
    10  H    0.255296
    11  H    0.326756
 Sum of Mulliken charges =  -0.00000

 Dipole moment (field-independent basis, Debye):
    X=             -1.1950    Y=              0.7749    Z=             -0.2151  Tot=              1.4404
 Quadrupole moment (field-independent basis, Debye-Ang):
   XX=            -25.9174   YY=            -29.0053   ZZ=            -30.4056
   XY=             -1.9958   XZ=             -0.0822   YZ=             -2.7446

  Exact polarizability:  56.829   3.108  40.580   2.971  -0.133  25.414
 Approx polarizability:  78.294   8.912  59.145   7.728   1.775  37.535

                      1                      2                      3
                      A                      A                      A
 Frequencies --    151.3481               279.9351               313.6150
 Red. masses --      2.2876                 1.1893                 3.3284
 Frc consts  --      0.0309                 0.0549                 0.1929
 IR Inten    --      7.4685                75.7284                 4.9819

                      4                      5                      6
                      A                      A                      A
 Frequencies --    376.4534               464.9967               481.8581
 Red. masses --      1.4283                 1.7988                 2.0673
 Frc consts  --      0.1193                 0.2292                 0.2828
 IR Inten    --     50.7830                27.2759                30.1968

                      7                      8                      9
                      A                      A                      A
 Frequencies --    585.7345               742.1223               773.5724
 Red. masses --      2.8460                 1.7071                 6.4695
 Frc consts  --      0.5753                 0.5540                 2.2810
 IR Inten    --     11.7072                 5.7846                34.3513

                     10                     11                     12
                      A                      A                      A
 Frequencies --    877.5802               893.0293               942.5593
 Red. masses --      1.3835                 2.6209                 1.8725
 Frc consts  --      0.6278                 1.2315                 0.9801
 IR Inten    --     50.1064               157.8212                 4.8843

                     13                     14                     15
                      A                      A                      A
 Frequencies --   1006.2722              1141.8789              1250.2109
 Red. masses --      1.1038                 2.1843                 2.3141
 Frc consts  --      0.6585                 1.6781                 2.1311
 IR Inten    --     21.3464                15.9295                13.3161

                     16                     17                     18
                      A                      A                      A
 Frequencies --   1309.3521              1324.9897              1367.2049
 Red. masses --      1.1590                 1.2636                 1.2696
 Frc consts  --      1.1707                 1.3071                 1.3983
 IR Inten    --     43.3669                10.9909                39.6559

                     19                     20                     21
                      A                      A                      A
 Frequencies --   1440.0372              1691.1872              1725.4999
 Red. masses --      1.2396                 1.1679                 3.6458
 Frc consts  --      1.5146                 1.9681                 6.3954
 IR Inten    --      1.5292                12.1631                63.8886

                     22                     23                     24
                      A                      A                      A
 Frequencies --   3187.4053              3216.6968              3284.6428
 Red. masses --      1.0578                 1.0945                 1.1164
 Frc consts  --      6.3316                 6.6723                 7.0963
 IR Inten    --      1.2522                 4.1475                 5.8740

                     25                     26                     27
                      A                      A                      A
 Frequencies --   3411.3788              3561.0799              3791.1874
 Red. masses --      1.0545                 1.0872                 1.0681
 Frc consts  --      7.2300                 8.1231                 9.0447
 IR Inten    --     13.9675                 1.2173                36.6160

 - Thermochemistry -
 -------------------
 Temperature   298.150 Kelvin.  Pressure   1.00000 Atm.
 Atom     1 has atomic number  6 and mass  12.00000

 Molecular mass:    74.04801 amu.
 Principal axes and moments of inertia in atomic units:
                           1         2         3
     Eigenvalues --   198.92614 416.43502 573.52843
           X            1.00000  -0.00216   0.00117
           Y            0.00219   0.99971  -0.02414
           Z           -0.00111   0.02414   0.99971
 This molecule is an asymmetric top.
 Rotational symmetry number  1.
 Rotational temperatures (Kelvin)      0.43541     0.20799     0.15102
 Rotational constants (GHZ):           9.07242     4.33379     3.14673
 Zero-point vibrational energy     236811.7 (Joules/Mol)
                                   56.59936 (Kcal/Mol)
 Warning -- explicit consideration of   7 degrees of freedom as
           vibrations may cause significant error
 Vibrational temperatures:    217.76   402.76   451.22   541.63   669.03
          (Kelvin)            693.29   842.74  1067.75  1113.00  1262.64
                             1284.87  1356.13  1447.80  1642.91  1798.77
                             1883.86  1906.36  1967.10  2071.89  2433.24
                             2482.61  4585.96  4628.10  4725.86  4908.21
                             5123.59  5454.67

 Zero-point correction=                           0.090197 (Hartree/Particle)
 Thermal correction to Energy=                    0.095964
 Thermal correction to Enthalpy=                  0.096908
 Thermal correction to Gibbs Free Energy=         0.061803
 Sum of electronic and zero-point Energies=           -264.356488
 Sum of electronic and thermal Energies=              -264.350722
 Sum of electronic and thermal Enthalpies=            -264.349777
 Sum of electronic and thermal Free Energies=         -264.384882

                     E (Thermal)             CV                S
                      KCal/Mol        Cal/Mol-Kelvin    Cal/Mol-Kelvin
 Total                   60.218             20.706             73.884
 Electronic               0.000              0.000              0.000
 Translational            0.889              2.981             38.822
 Rotational               0.889              2.981             25.366
 Vibrational             58.441             14.744              9.695
 Vibration     1          0.619              1.901              2.655
 Vibration     2          0.680              1.711              1.534
 Vibration     3          0.701              1.648              1.343
 Vibration     4          0.747              1.520              1.053
 Vibration     5          0.822              1.328              0.752
 Vibration     6          0.838              1.290              0.705
 Vibration     7          0.943              1.062              0.475

 Optimization completed.
    -- Stationary point found.
 Normal termination of Gaussian 09 at Thu Sep  8 14:54:17 2022.
