 Gaussian 09, Revision D.01,
 Gaussian 09:  ES64L-G09RevD.01 24-Apr-2013

 --------------------------------
 #P OPT=calcfc Freq B3LYP/6-31G**
 --------------------------------

 -------
 Frag_82
 -------
 Symbolic Z-matrix:
 Charge =  0 Multiplicity = 1

 SCF Done:  E(RB3LYP) =  -196.550490030     A.U. after   13 cycles
 SCF Done:  E(RB3LYP) =  -196.550967323     A.U. after   11 cycles
 SCF Done:  E(RB3LYP) =  -196.552950977     A.U. after   12 cycles
 SCF Done:  E(RB3LYP) =  -196.555261983     A.U. after   13 cycles
 SCF Done:  E(RB3LYP) =  -196.556146911     A.U. after   13 cycles
 SCF Done:  E(RB3LYP) =  -196.556863358     A.U. after   13 cycles
 SCF Done:  E(RB3LYP) =  -196.535033219     A.U. after   13 cycles
 SCF Done:  E(RB3LYP) =  -196.556971503     A.U. after    9 cycles
 SCF Done:  E(RB3LYP) =  -196.557532143     A.U. after   12 cycles
 SCF Done:  E(RB3LYP) =  -196.557665457     A.U. after   10 cycles
 SCF Done:  E(RB3LYP) =  -196.557722783     A.U. after    9 cycles
 SCF Done:  E(RB3LYP) =  -196.557766638     A.U. after    9 cycles
 SCF Done:  E(RB3LYP) =  -196.557777740     A.U. after    9 cycles
 SCF Done:  E(RB3LYP) =  -196.557782264     A.U. after    9 cycles
 SCF Done:  E(RB3LYP) =  -196.557782644     A.U. after    7 cycles
 Optimization completed.
    -- Stationary point found.
 Normal termination of Gaussian 09 at Fri Jul 23 13:47:04 2021.

 ----------------------------------------------------------------------
 #P Geom=AllCheck Guess=TCheck SCRF=Check GenChk RB3LYP/6-31G(d,p) Freq
 ----------------------------------------------------------------------

 Structure from the checkpoint file:  "/vol2/users/liuj201281/HOFBenchmark/IsodesmicSplit/Sample60/Ring26/Running/Gau-395827.chk"
 -------
 Frag_82
 -------
 Charge =  0 Multiplicity = 1

                         Standard orientation:
 ---------------------------------------------------------------------
 Center     Atomic      Atomic             Coordinates (Angstroms)
 Number     Number       Type             X           Y           Z
 ---------------------------------------------------------------------
      1          6           0        2.113556    0.078474   -0.000111
      2          6           0        0.733725    0.672758    0.000188
      3          6           0       -0.449609    0.040559    0.000127
      4          6           0       -0.627319   -1.457650    0.000040
      5          6           0       -1.741732    0.822280   -0.000094
      6          1           0        2.681917    0.409751    0.878683
      7          1           0        2.112570   -1.013779   -0.000366
      8          1           0        2.681615    0.410136   -0.878962
      9          1           0        0.711693    1.763335    0.000437
     10          1           0       -1.201793   -1.779344    0.878731
     11          1           0        0.316409   -2.005658   -0.000085
     12          1           0       -1.201907   -1.779233   -0.878630
     13          1           0       -2.352696    0.577507   -0.879405
     14          1           0       -1.566058    1.901540    0.000122
     15          1           0       -2.353469    0.577210    0.878578
 ---------------------------------------------------------------------

 SCF Done:  E(RB3LYP) =  -196.557782644     A.U. after    1 cycles

 The electronic state is 1-A.
 Alpha  occ. eigenvalues --  -10.18392 -10.17532 -10.17526 -10.17393 -10.17225
 Alpha  occ. eigenvalues --   -0.80327  -0.72726  -0.68551  -0.63048  -0.50672
 Alpha  occ. eigenvalues --   -0.45501  -0.42786  -0.42582  -0.39796  -0.37798
 Alpha  occ. eigenvalues --   -0.37647  -0.36302  -0.35051  -0.32279  -0.22549
 Alpha virt. eigenvalues --    0.03772   0.09833   0.12293   0.13172   0.15288
 Alpha virt. eigenvalues --    0.16640   0.17048   0.18151   0.19880   0.20386
 Alpha virt. eigenvalues --    0.22898   0.24190   0.25408   0.33375   0.45030

 Mulliken charges:
               1
     1  C   -0.350920
     2  C   -0.107233
     3  C    0.138372
     4  C   -0.365329
     5  C   -0.360039
     6  H    0.112698
     7  H    0.105031
     8  H    0.112703
     9  H    0.067858
    10  H    0.110545
    11  H    0.105976
    12  H    0.110530
    13  H    0.107449
    14  H    0.104929
    15  H    0.107431
 Sum of Mulliken charges =   0.00000

 Dipole moment (field-independent basis, Debye):
    X=             -0.0707    Y=             -0.1788    Z=             -0.0002  Tot=              0.1923
 Quadrupole moment (field-independent basis, Debye-Ang):
   XX=            -31.7910   YY=            -32.2473   ZZ=            -33.9601
   XY=              0.2690   XZ=             -0.0001   YZ=              0.0001

  Exact polarizability:  72.150   5.734  54.664   0.001   0.001  39.100
 Approx polarizability:  97.742  13.482  74.820   0.001   0.002  55.127

                      1                      2                      3
                      A                      A                      A
 Frequencies --    126.3417               151.2366               187.9192
 Red. masses --      1.0371                 1.0321                 1.2167
 Frc consts  --      0.0098                 0.0139                 0.0253
 IR Inten    --      0.5845                 0.1102                 1.2275

                      4                      5                      6
                      A                      A                      A
 Frequencies --    266.7962               297.0461               386.3169
 Red. masses --      1.7536                 2.6119                 2.2153
 Frc consts  --      0.0735                 0.1358                 0.1948
 IR Inten    --      1.2249                 0.2700                 0.3688

                      7                      8                      9
                      A                      A                      A
 Frequencies --    455.5526               527.4515               773.5011
 Red. masses --      2.2415                 2.7865                 2.8725
 Frc consts  --      0.2741                 0.4568                 1.0126
 IR Inten    --      1.9971                 2.2010                 1.6371

                     10                     11                     12
                      A                      A                      A
 Frequencies --    834.4793               964.5344               975.1683
 Red. masses --      1.1283                 1.5557                 1.5118
 Frc consts  --      0.4629                 0.8527                 0.8470
 IR Inten    --      9.9565                 1.9767                 1.9136

                     13                     14                     15
                      A                      A                      A
 Frequencies --   1023.2910              1066.1246              1073.4676
 Red. masses --      1.2394                 1.5245                 1.7229
 Frc consts  --      0.7647                 1.0209                 1.1697
 IR Inten    --      1.9094                 0.6643                 5.5488

                     16                     17                     18
                      A                      A                      A
 Frequencies --   1109.7873              1137.3758              1241.5791
 Red. masses --      1.6378                 1.9931                 2.5188
 Frc consts  --      1.1885                 1.5191                 2.2877
 IR Inten    --      0.4283                 9.7975                 5.1348

                     19                     20                     21
                      A                      A                      A
 Frequencies --   1379.5813              1426.4159              1427.6250
 Red. masses --      1.2759                 1.2552                 1.4573
 Frc consts  --      1.4308                 1.5047                 1.7499
 IR Inten    --      4.1137                 2.7928                 2.3880

                     22                     23                     24
                      A                      A                      A
 Frequencies --   1438.7367              1486.0923              1496.1888
 Red. masses --      1.2258                 1.0456                 1.0462
 Frc consts  --      1.4950                 1.3605                 1.3799
 IR Inten    --      0.4677                 0.5477                 1.0292

                     25                     26                     27
                      A                      A                      A
 Frequencies --   1496.4430              1505.5267              1511.6891
 Red. masses --      1.0445                 1.0419                 1.0613
 Frc consts  --      1.3781                 1.3915                 1.4289
 IR Inten    --      1.8063                14.4910                 8.0092

                     28                     29                     30
                      A                      A                      A
 Frequencies --   1512.5198              1757.4989              3018.4704
 Red. masses --      1.0729                 6.2251                 1.0389
 Frc consts  --      1.4461                11.3289                 5.5770
 IR Inten    --      2.1075                 1.0117                27.6241

                     31                     32                     33
                      A                      A                      A
 Frequencies --   3025.8330              3028.6695              3065.0053
 Red. masses --      1.0402                 1.0415                 1.0998
 Frc consts  --      5.6114                 5.6285                 6.0872
 IR Inten    --     77.8435                 8.4132                16.0268

                     34                     35                     36
                      A                      A                      A
 Frequencies --   3069.9886              3070.4923              3119.3355
 Red. masses --      1.0995                 1.0998                 1.0985
 Frc consts  --      6.1053                 6.1089                 6.2978
 IR Inten    --     12.1325                57.3544                17.3352

                     37                     38                     39
                      A                      A                      A
 Frequencies --   3123.9944              3137.7156              3145.7624
 Red. masses --      1.0935                 1.0930                 1.0942
 Frc consts  --      6.2878                 6.3404                 6.3797
 IR Inten    --      4.1826                30.2932                51.4519

 - Thermochemistry -
 -------------------
 Temperature   298.150 Kelvin.  Pressure   1.00000 Atm.
 Atom     1 has atomic number  6 and mass  12.00000

 Molecular mass:    70.07825 amu.
 Principal axes and moments of inertia in atomic units:
                           1         2         3
     Eigenvalues --   225.14338 515.81634 707.60360
           X            0.99996  -0.00900   0.00000
           Y            0.00900   0.99996   0.00000
           Z            0.00000   0.00000   1.00000
 This molecule is an asymmetric top.
 Rotational symmetry number  1.
 Rotational temperatures (Kelvin)      0.38471     0.16792     0.12240
 Rotational constants (GHZ):           8.01596     3.49881     2.55050
 Zero-point vibrational energy     357932.0 (Joules/Mol)
                                   85.54779 (Kcal/Mol)
 Warning -- explicit consideration of   8 degrees of freedom as
           vibrations may cause significant error
 Vibrational temperatures:    181.78   217.60   270.37   383.86   427.38
          (Kelvin)            555.82   655.44   758.88  1112.89  1200.63
                             1387.75  1403.05  1472.29  1533.91  1544.48
                             1596.73  1636.43  1786.35  1984.91  2052.29
                             2054.03  2070.02  2138.15  2152.68  2153.04
                             2166.11  2174.98  2176.18  2528.65  4342.90
                             4353.49  4357.57  4409.85  4417.02  4417.75
                             4488.02  4494.73  4514.47  4526.04

 Zero-point correction=                           0.136329 (Hartree/Particle)
 Thermal correction to Energy=                    0.143188
 Thermal correction to Enthalpy=                  0.144133
 Thermal correction to Gibbs Free Energy=         0.106574
 Sum of electronic and zero-point Energies=           -196.421454
 Sum of electronic and thermal Energies=              -196.414594
 Sum of electronic and thermal Enthalpies=            -196.413650
 Sum of electronic and thermal Free Energies=         -196.451209

                     E (Thermal)             CV                S
                      KCal/Mol        Cal/Mol-Kelvin    Cal/Mol-Kelvin
 Total                   89.852             23.755             79.049
 Electronic               0.000              0.000              0.000
 Translational            0.889              2.981             38.658
 Rotational               0.889              2.981             25.911
 Vibrational             88.075             17.793             14.480
 Vibration     1          0.611              1.927              3.001
 Vibration     2          0.619              1.901              2.657
 Vibration     3          0.633              1.856              2.248
 Vibration     4          0.672              1.734              1.617
 Vibration     5          0.691              1.679              1.433
 Vibration     6          0.755              1.499              1.014
 Vibration     7          0.814              1.349              0.779
 Vibration     8          0.882              1.189              0.593

 Optimization completed.
    -- Stationary point found.
 Normal termination of Gaussian 09 at Fri Jul 23 13:47:36 2021.
