 Gaussian 09, Revision E.01,
 Gaussian 09:  ES64L-G09RevE.01 30-Nov-2015

 ----------------------------
 #P OPT Freq B3LYP/6-31G(d,p)
 ----------------------------

 --------
 Frag_805
 --------
 Symbolic Z-matrix:
 Charge =  0 Multiplicity = 1

 SCF Done:  E(RB3LYP) =  -207.959187387     A.U. after   13 cycles
 SCF Done:  E(RB3LYP) =  -207.959199032     A.U. after   11 cycles
 SCF Done:  E(RB3LYP) =  -207.959064167     A.U. after   12 cycles
 SCF Done:  E(RB3LYP) =  -207.959260274     A.U. after    9 cycles
 SCF Done:  E(RB3LYP) =  -207.959281800     A.U. after    9 cycles
 SCF Done:  E(RB3LYP) =  -207.959277973     A.U. after    9 cycles
 SCF Done:  E(RB3LYP) =  -207.959283403     A.U. after    9 cycles
 SCF Done:  E(RB3LYP) =  -207.959283910     A.U. after    8 cycles
 SCF Done:  E(RB3LYP) =  -207.959283963     A.U. after    8 cycles
 Optimization completed.
    -- Stationary point found.
 Normal termination of Gaussian 09 at Thu Sep  8 14:57:52 2022.

 ----------------------------------------------------------------------
 #P Geom=AllCheck Guess=TCheck SCRF=Check GenChk RB3LYP/6-31G(d,p) Freq
 ----------------------------------------------------------------------

 Structure from the checkpoint file:  "B3LYP6-31Gdp.Frag_805.chk"
 --------
 Frag_805
 --------
 Charge =  0 Multiplicity = 1

                         Standard orientation:
 ---------------------------------------------------------------------
 Center     Atomic      Atomic             Coordinates (Angstroms)
 Number     Number       Type             X           Y           Z
 ---------------------------------------------------------------------
      1          7           0       -1.915625   -0.283261   -0.014483
      2          6           0       -0.827182    0.119267   -0.006467
      3          6           0        0.573139    0.590162    0.038067
      4          8           0        1.509617   -0.456020   -0.111939
      5          1           0        0.737130    1.280923   -0.794187
      6          1           0        0.712670    1.158584    0.969458
      7          1           0        1.406893   -1.065093    0.632022
 ---------------------------------------------------------------------

 SCF Done:  E(RB3LYP) =  -207.959283963     A.U. after    1 cycles

 The electronic state is 1-A.
 Alpha  occ. eigenvalues --  -19.18301 -14.34680 -10.29506 -10.23645  -1.05833
 Alpha  occ. eigenvalues --   -0.91152  -0.75621  -0.57303  -0.52045  -0.48250
 Alpha  occ. eigenvalues --   -0.39324  -0.36948  -0.34587  -0.33441  -0.31107
 Alpha virt. eigenvalues --    0.00039   0.02913   0.07379   0.10318   0.15585
 Alpha virt. eigenvalues --    0.17943   0.22005   0.31430   0.51289   0.53774
 Alpha virt. eigenvalues --    0.56503   0.58228   0.66525   0.67266   0.70918

 Mulliken charges:
               1
     1  N   -0.454804
     2  C    0.317865
     3  C    0.013156
     4  O   -0.507906
     5  H    0.167444
     6  H    0.142151
     7  H    0.322095
 Sum of Mulliken charges =  -0.00000

 Dipole moment (field-independent basis, Debye):
    X=              2.3848    Y=              1.1168    Z=              1.3519  Tot=              2.9601
 Quadrupole moment (field-independent basis, Debye-Ang):
   XX=            -31.2914   YY=            -20.3544   ZZ=            -21.4944
   XY=             -1.2372   XZ=              1.9620   YZ=             -1.7595

  Exact polarizability:  35.935   3.108  23.866   0.288  -1.013  20.349
 Approx polarizability:  58.739   8.256  33.512  -0.491  -1.335  27.845

                      1                      2                      3
                      A                      A                      A
 Frequencies --    213.9343               311.2341               397.0613
 Red. masses --      5.0738                 1.8327                 1.7864
 Frc consts  --      0.1368                 0.1046                 0.1659
 IR Inten    --      8.6017                91.8962                62.4351

                      4                      5                      6
                      A                      A                      A
 Frequencies --    582.0371               897.3370               990.0073
 Red. masses --      8.8520                 4.7335                 1.5682
 Frc consts  --      1.7668                 2.2456                 0.9056
 IR Inten    --      2.1037                16.8970                26.6277

                      7                      8                      9
                      A                      A                      A
 Frequencies --   1082.8951              1223.6636              1379.9179
 Red. masses --      6.3208                 1.1015                 1.2324
 Frc consts  --      4.3672                 0.9718                 1.3827
 IR Inten    --     98.0504                18.9170                 2.2132

                     10                     11                     12
                      A                      A                      A
 Frequencies --   1416.2766              1495.5534              2365.9122
 Red. masses --      1.2151                 1.0740                12.5917
 Frc consts  --      1.4360                 1.4153                41.5273
 IR Inten    --     46.6452                 2.4702                 0.1600

                     13                     14                     15
                      A                      A                      A
 Frequencies --   3017.9869              3108.2960              3812.3558
 Red. masses --      1.0696                 1.0931                 1.0667
 Frc consts  --      5.7400                 6.2225                 9.1344
 IR Inten    --     28.2137                 5.7232                31.1210

 - Thermochemistry -
 -------------------
 Temperature   298.150 Kelvin.  Pressure   1.00000 Atm.
 Atom     1 has atomic number  7 and mass  14.00307

 Molecular mass:    57.02146 amu.
 Principal axes and moments of inertia in atomic units:
                           1         2         3
     Eigenvalues --    53.92624 375.21812 413.73233
           X            0.99994   0.00426   0.01000
           Y           -0.00375   0.99874  -0.05014
           Z           -0.01021   0.05009   0.99869
 This molecule is an asymmetric top.
 Rotational symmetry number  1.
 Rotational temperatures (Kelvin)      1.60615     0.23084     0.20935
 Rotational constants (GHZ):          33.46684     4.80985     4.36210
 Zero-point vibrational energy     133350.5 (Joules/Mol)
                                   31.87154 (Kcal/Mol)
 Warning -- explicit consideration of   4 degrees of freedom as
           vibrations may cause significant error
 Vibrational temperatures:    307.80   447.80   571.28   837.42  1291.07
          (Kelvin)           1424.40  1558.04  1760.58  1985.39  2037.70
                             2151.77  3404.02  4342.20  4472.14  5485.12

 Zero-point correction=                           0.050791 (Hartree/Particle)
 Thermal correction to Energy=                    0.055206
 Thermal correction to Enthalpy=                  0.056150
 Thermal correction to Gibbs Free Energy=         0.024365
 Sum of electronic and zero-point Energies=           -207.908493
 Sum of electronic and thermal Energies=              -207.904078
 Sum of electronic and thermal Enthalpies=            -207.903134
 Sum of electronic and thermal Free Energies=         -207.934919

                     E (Thermal)             CV                S
                      KCal/Mol        Cal/Mol-Kelvin    Cal/Mol-Kelvin
 Total                   34.642             13.650             66.897
 Electronic               0.000              0.000              0.000
 Translational            0.889              2.981             38.044
 Rotational               0.889              2.981             23.641
 Vibrational             32.865              7.688              5.212
 Vibration     1          0.644              1.820              2.010
 Vibration     2          0.700              1.652              1.356
 Vibration     3          0.764              1.476              0.974
 Vibration     4          0.939              1.070              0.482

 Optimization completed.
    -- Stationary point found.
 Normal termination of Gaussian 09 at Thu Sep  8 14:57:58 2022.
