 Gaussian 09, Revision E.01,
 Gaussian 09:  ES64L-G09RevE.01 30-Nov-2015

 --------------------------------
 #P OPT=calcfc Freq B3LYP/6-31G**
 --------------------------------

 --------
 Frag_402
 --------
 Symbolic Z-matrix:
 Charge =  0 Multiplicity = 1

 SCF Done:  E(RB3LYP) =  -205.290888371     A.U. after   14 cycles
 SCF Done:  E(RB3LYP) =  -205.302090379     A.U. after   13 cycles
 SCF Done:  E(RB3LYP) =  -205.300396542     A.U. after   14 cycles
 SCF Done:  E(RB3LYP) =  -205.302102204     A.U. after    9 cycles
 SCF Done:  E(RB3LYP) =  -205.302611051     A.U. after   12 cycles
 SCF Done:  E(RB3LYP) =  -205.302660097     A.U. after   12 cycles
 SCF Done:  E(RB3LYP) =  -205.302667727     A.U. after   11 cycles
 SCF Done:  E(RB3LYP) =  -205.302681386     A.U. after   10 cycles
 Optimization completed.
    -- Stationary point found.
 Normal termination of Gaussian 09 at Fri Sep 10 20:12:49 2021.

 ----------------------------------------------------------------------
 #P Geom=AllCheck Guess=TCheck SCRF=Check GenChk RB3LYP/6-31G(d,p) Freq
 ----------------------------------------------------------------------

 Structure from the checkpoint file:  "/public/home/users/caep010/.cache/gau_scr/Gau-65105.chk"
 --------
 Frag_402
 --------
 Charge =  0 Multiplicity = 1

                         Standard orientation:
 ---------------------------------------------------------------------
 Center     Atomic      Atomic             Coordinates (Angstroms)
 Number     Number       Type             X           Y           Z
 ---------------------------------------------------------------------
      1          6           0       -1.375780   -0.449721   -0.024541
      2          7           0       -0.453746    0.667845    0.095930
      3          7           0        0.893256    0.560235   -0.035979
      4          7           0        1.442416   -0.563304   -0.004724
      5          1           0       -2.387828   -0.043727   -0.044547
      6          1           0       -1.302701   -1.124713    0.835688
      7          1           0       -1.209285   -1.034072   -0.941408
      8          1           0       -0.771876    1.582414   -0.187373
      9          1           0        0.752890   -1.335010    0.098301
 ---------------------------------------------------------------------

 SCF Done:  E(RB3LYP) =  -205.302681386     A.U. after    1 cycles

 The electronic state is 1-A.
 Alpha  occ. eigenvalues --  -14.41106 -14.38770 -14.34607 -10.23907  -1.05670
 Alpha  occ. eigenvalues --   -0.89944  -0.74347  -0.61654  -0.56184  -0.50936
 Alpha  occ. eigenvalues --   -0.46884  -0.42142  -0.39136  -0.34228  -0.25382
 Alpha  occ. eigenvalues --   -0.24253
 Alpha virt. eigenvalues --   -0.00773   0.07013   0.08919   0.13118   0.15252
 Alpha virt. eigenvalues --    0.17101   0.19199   0.25656   0.39791   0.50225
 Alpha virt. eigenvalues --    0.53956   0.57411   0.63873   0.67560   0.68181

 Mulliken charges:
               1
     1  C   -0.206205
     2  N   -0.325935
     3  N   -0.040473
     4  N   -0.314063
     5  H    0.131383
     6  H    0.139534
     7  H    0.130242
     8  H    0.281284
     9  H    0.204234
 Sum of Mulliken charges =   0.00000

 Dipole moment (field-independent basis, Debye):
    X=             -4.2107    Y=             -0.2451    Z=             -0.3175  Tot=              4.2298
 Quadrupole moment (field-independent basis, Debye-Ang):
   XX=            -28.1758   YY=            -21.9584   ZZ=            -25.0114
   XY=             -0.8209   XZ=              0.6601   YZ=             -0.9229

  Exact polarizability:  41.958  -4.262  35.140  -0.282  -0.806  20.587
 Approx polarizability:  64.255 -13.129  57.772  -1.498  -0.562  28.701

                      1                      2                      3
                      A                      A                      A
 Frequencies --    202.7362               251.9926               340.9363
 Red. masses --      1.2318                 2.0629                 3.0086
 Frc consts  --      0.0298                 0.0772                 0.2060
 IR Inten    --      1.6679                23.7181                 4.5620

                      4                      5                      6
                      A                      A                      A
 Frequencies --    495.4230               725.0052               928.9415
 Red. masses --      1.2631                 2.6057                 2.7976
 Frc consts  --      0.1827                 0.8070                 1.4223
 IR Inten    --    138.1077                 4.5290                15.7442

                      7                      8                      9
                      A                      A                      A
 Frequencies --    954.1135              1137.7553              1148.4584
 Red. masses --      1.4749                 1.3073                 4.7194
 Frc consts  --      0.7911                 0.9970                 3.6675
 IR Inten    --     54.9433                 1.1253                41.4819

                     10                     11                     12
                      A                      A                      A
 Frequencies --   1192.9014              1434.9839              1451.5248
 Red. masses --      1.7672                 1.2255                 1.2198
 Frc consts  --      1.4817                 1.4868                 1.5142
 IR Inten    --      1.0092                 9.8789                42.0092

                     13                     14                     15
                      A                      A                      A
 Frequencies --   1471.4292              1491.2138              1530.3977
 Red. masses --      1.5312                 1.0564                 1.0518
 Frc consts  --      1.9533                 1.3840                 1.4514
 IR Inten    --    124.1470                13.3191                20.0662

                     16                     17                     18
                      A                      A                      A
 Frequencies --   1638.7827              3010.6256              3078.3180
 Red. masses --      3.7124                 1.0450                 1.0960
 Frc consts  --      5.8742                 5.5807                 6.1194
 IR Inten    --     48.2807                26.1407                27.0724

                     19                     20                     21
                      A                      A                      A
 Frequencies --   3154.2953              3205.1834              3647.8289
 Red. masses --      1.0978                 1.0692                 1.0788
 Frc consts  --      6.4352                 6.4719                 8.4576
 IR Inten    --      7.1015                46.0729                31.3710

 - Thermochemistry -
 -------------------
 Temperature   298.150 Kelvin.  Pressure   1.00000 Atm.
 Atom     1 has atomic number  6 and mass  12.00000

 Molecular mass:    59.04835 amu.
 Principal axes and moments of inertia in atomic units:
                           1         2         3
     Eigenvalues --    92.51211 276.41446 356.14747
           X            0.99988   0.01472   0.00513
           Y           -0.01463   0.99975  -0.01691
           Z           -0.00538   0.01683   0.99984
 This molecule is an asymmetric top.
 Rotational symmetry number  1.
 Rotational temperatures (Kelvin)      0.93624     0.31335     0.24320
 Rotational constants (GHZ):          19.50816     6.52911     5.06740
 Zero-point vibrational energy     194350.4 (Joules/Mol)
                                   46.45086 (Kcal/Mol)
 Warning -- explicit consideration of   4 degrees of freedom as
           vibrations may cause significant error
 Vibrational temperatures:    291.69   362.56   490.53   712.80  1043.12
          (Kelvin)           1336.54  1372.75  1636.97  1652.37  1716.32
                             2064.62  2088.42  2117.06  2145.52  2201.90
                             2357.84  4331.61  4429.01  4538.32  4611.54
                             5248.41

 Zero-point correction=                           0.074024 (Hartree/Particle)
 Thermal correction to Energy=                    0.078781
 Thermal correction to Enthalpy=                  0.079725
 Thermal correction to Gibbs Free Energy=         0.047269
 Sum of electronic and zero-point Energies=           -205.228657
 Sum of electronic and thermal Energies=              -205.223901
 Sum of electronic and thermal Enthalpies=            -205.222957
 Sum of electronic and thermal Free Energies=         -205.255412

                     E (Thermal)             CV                S
                      KCal/Mol        Cal/Mol-Kelvin    Cal/Mol-Kelvin
 Total                   49.436             15.241             68.309
 Electronic               0.000              0.000              0.000
 Translational            0.889              2.981             38.148
 Rotational               0.889              2.981             23.725
 Vibrational             47.658              9.279              6.436
 Vibration     1          0.639              1.836              2.108
 Vibration     2          0.664              1.759              1.717
 Vibration     3          0.720              1.594              1.208
 Vibration     4          0.851              1.260              0.670

 Optimization completed.
    -- Stationary point found.
 Normal termination of Gaussian 09 at Fri Sep 10 20:12:55 2021.
