 Gaussian 09, Revision E.01,
 Gaussian 09:  ES64L-G09RevE.01 30-Nov-2015

 ----------------------------
 #P OPT Freq B3LYP/6-31G(d,p)
 ----------------------------

 --------
 Frag_824
 --------
 Symbolic Z-matrix:
 Charge =  0 Multiplicity = 1

 SCF Done:  E(RB3LYP) =  -284.417043004     A.U. after   13 cycles
 SCF Done:  E(RB3LYP) =  -284.417115024     A.U. after    9 cycles
 SCF Done:  E(RB3LYP) =  -284.417120375     A.U. after    8 cycles
 Optimization completed.
    -- Stationary point found.
 Normal termination of Gaussian 09 at Thu Sep  8 15:09:02 2022.

 ----------------------------------------------------------------------
 #P Geom=AllCheck Guess=TCheck SCRF=Check GenChk RB3LYP/6-31G(d,p) Freq
 ----------------------------------------------------------------------

 Structure from the checkpoint file:  "B3LYP6-31Gdp.Frag_824.chk"
 --------
 Frag_824
 --------
 Charge =  0 Multiplicity = 1

                         Standard orientation:
 ---------------------------------------------------------------------
 Center     Atomic      Atomic             Coordinates (Angstroms)
 Number     Number       Type             X           Y           Z
 ---------------------------------------------------------------------
      1          6           0       -1.842347   -0.035188    0.000007
      2          8           0       -0.571184   -0.698541   -0.000005
      3          6           0        0.510580    0.109443   -0.000024
      4          7           0        0.443347    1.374000    0.000001
      5          8           0        1.645379   -0.629850    0.000010
      6          1           0       -1.945733    0.592983   -0.888015
      7          1           0       -2.587664   -0.831010    0.000012
      8          1           0       -1.945720    0.592981    0.888032
      9          1           0        1.379878    1.774281    0.000023
     10          1           0        1.392845   -1.565642    0.000008
 ---------------------------------------------------------------------

 SCF Done:  E(RB3LYP) =  -284.417120375     A.U. after    1 cycles

 The electronic state is 1-A.
 Alpha  occ. eigenvalues --  -19.19348 -19.19239 -14.29606 -10.32616 -10.23961
 Alpha  occ. eigenvalues --   -1.11919  -1.04094  -0.88037  -0.72337  -0.60172
 Alpha  occ. eigenvalues --   -0.56366  -0.50843  -0.48122  -0.44778  -0.41103
 Alpha  occ. eigenvalues --   -0.39371  -0.36036  -0.31531  -0.28014  -0.25823
 Alpha virt. eigenvalues --    0.05889   0.07365   0.11272   0.13383   0.14361
 Alpha virt. eigenvalues --    0.15859   0.17633   0.24952   0.31442   0.43045
 Alpha virt. eigenvalues --    0.52608   0.53523   0.55158   0.56579   0.58316

 Mulliken charges:
               1
     1  C   -0.066843
     2  O   -0.486932
     3  C    0.699250
     4  N   -0.588967
     5  O   -0.511627
     6  H    0.134432
     7  H    0.116044
     8  H    0.134432
     9  H    0.240341
    10  H    0.329869
 Sum of Mulliken charges =   0.00000

 Dipole moment (field-independent basis, Debye):
    X=             -0.6647    Y=             -1.7743    Z=              0.0000  Tot=              1.8948
 Quadrupole moment (field-independent basis, Debye-Ang):
   XX=            -25.9247   YY=            -28.6124   ZZ=            -29.5981
   XY=             -0.0060   XZ=             -0.0000   YZ=              0.0001

  Exact polarizability:  40.404   1.631  40.428   0.000   0.000  21.650
 Approx polarizability:  50.070   0.556  64.445   0.000   0.000  29.520

                      1                      2                      3
                      A                      A                      A
 Frequencies --    141.3104               174.9571               306.0623
 Red. masses --      1.5941                 1.7523                 3.3127
 Frc consts  --      0.0188                 0.0316                 0.1828
 IR Inten    --      6.9502                 9.8857                14.4944

                      4                      5                      6
                      A                      A                      A
 Frequencies --    415.0212               499.6435               624.7314
 Red. masses --      1.1116                 3.6072                 4.2190
 Frc consts  --      0.1128                 0.5306                 0.9702
 IR Inten    --    145.8846                12.2643                 8.8228

                      7                      8                      9
                      A                      A                      A
 Frequencies --    717.7925               816.1220               908.2712
 Red. masses --      8.8868                 1.1617                 4.1760
 Frc consts  --      2.6977                 0.4559                 2.0298
 IR Inten    --      9.7099                57.7035                76.0369

                     10                     11                     12
                      A                      A                      A
 Frequencies --   1085.4520              1115.6838              1184.3025
 Red. masses --      3.6217                 2.1752                 1.2683
 Frc consts  --      2.5141                 1.5953                 1.0481
 IR Inten    --     18.3680               163.0533                 0.3738

                     13                     14                     15
                      A                      A                      A
 Frequencies --   1220.9234              1236.5756              1406.5264
 Red. masses --      1.4899                 1.3913                 2.3785
 Frc consts  --      1.3085                 1.2535                 2.7723
 IR Inten    --     16.5543                21.7816               431.5019

                     16                     17                     18
                      A                      A                      A
 Frequencies --   1490.2399              1491.4645              1514.2362
 Red. masses --      1.0464                 1.3533                 1.0606
 Frc consts  --      1.3691                 1.7737                 1.4328
 IR Inten    --      5.8809                95.1595                12.3324

                     19                     20                     21
                      A                      A                      A
 Frequencies --   1801.0179              3064.1625              3143.6556
 Red. masses --      6.9306                 1.0290                 1.1071
 Frc consts  --     13.2451                 5.6926                 6.4464
 IR Inten    --    302.6058                28.6904                20.1685

                     22                     23                     24
                      A                      A                      A
 Frequencies --   3169.6259              3542.7450              3787.3503
 Red. masses --      1.1077                 1.0751                 1.0651
 Frc consts  --      6.5568                 7.9504                 9.0012
 IR Inten    --     19.0552                 5.9641                57.7692

 - Thermochemistry -
 -------------------
 Temperature   298.150 Kelvin.  Pressure   1.00000 Atm.
 Atom     1 has atomic number  6 and mass  12.00000

 Molecular mass:    75.03203 amu.
 Principal axes and moments of inertia in atomic units:
                           1         2         3
     Eigenvalues --   176.33264 409.94347 574.92361
           X            1.00000   0.00119  -0.00000
           Y           -0.00119   1.00000   0.00000
           Z            0.00000  -0.00000   1.00000
 This molecule is an asymmetric top.
 Rotational symmetry number  1.
 Rotational temperatures (Kelvin)      0.49120     0.21128     0.15065
 Rotational constants (GHZ):          10.23487     4.40241     3.13910
 Zero-point vibrational energy     208496.4 (Joules/Mol)
                                   49.83183 (Kcal/Mol)
 Warning -- explicit consideration of   5 degrees of freedom as
           vibrations may cause significant error
 Vibrational temperatures:    203.31   251.72   440.35   597.12   718.87
          (Kelvin)            898.85  1032.74  1174.22  1306.80  1561.72
                             1605.22  1703.95  1756.63  1779.15  2023.68
                             2144.12  2145.88  2178.65  2591.26  4408.64
                             4523.01  4560.38  5097.21  5449.15

 Zero-point correction=                           0.079412 (Hartree/Particle)
 Thermal correction to Energy=                    0.084936
 Thermal correction to Enthalpy=                  0.085880
 Thermal correction to Gibbs Free Energy=         0.050940
 Sum of electronic and zero-point Energies=           -284.337708
 Sum of electronic and thermal Energies=              -284.332184
 Sum of electronic and thermal Enthalpies=            -284.331240
 Sum of electronic and thermal Free Energies=         -284.366180

                     E (Thermal)             CV                S
                      KCal/Mol        Cal/Mol-Kelvin    Cal/Mol-Kelvin
 Total                   53.298             18.490             73.537
 Electronic               0.000              0.000              0.000
 Translational            0.889              2.981             38.862
 Rotational               0.889              2.981             25.233
 Vibrational             51.521             12.528              9.442
 Vibration     1          0.615              1.912              2.786
 Vibration     2          0.627              1.873              2.382
 Vibration     3          0.696              1.662              1.384
 Vibration     4          0.778              1.438              0.909
 Vibration     5          0.855              1.251              0.659

 Optimization completed.
    -- Stationary point found.
 Normal termination of Gaussian 09 at Thu Sep  8 15:09:09 2022.
