 Gaussian 09, Revision E.01,
 Gaussian 09:  ES64L-G09RevE.01 30-Nov-2015

 -------------------------
 #P OPT Freq B3LYP/6-31G**
 -------------------------

 --------
 Frag_245
 --------
 Symbolic Z-matrix:
 Charge =  0 Multiplicity = 1

 SCF Done:  E(RB3LYP) =  -398.841746695     A.U. after   17 cycles
 SCF Done:  E(RB3LYP) =  -398.868542129     A.U. after   15 cycles
 SCF Done:  E(RB3LYP) =  -398.856255750     A.U. after   16 cycles
 SCF Done:  E(RB3LYP) =  -398.870566438     A.U. after   13 cycles
 SCF Done:  E(RB3LYP) =  -398.872352394     A.U. after   14 cycles
 SCF Done:  E(RB3LYP) =  -398.874125705     A.U. after   14 cycles
 SCF Done:  E(RB3LYP) =  -398.875888030     A.U. after   16 cycles
 SCF Done:  E(RB3LYP) =  -398.876716863     A.U. after   14 cycles
 SCF Done:  E(RB3LYP) =  -398.877188780     A.U. after   14 cycles
 SCF Done:  E(RB3LYP) =  -398.877316390     A.U. after   12 cycles
 SCF Done:  E(RB3LYP) =  -398.877369529     A.U. after   12 cycles
 SCF Done:  E(RB3LYP) =  -398.877384059     A.U. after   12 cycles
 SCF Done:  E(RB3LYP) =  -398.877395748     A.U. after   12 cycles
 SCF Done:  E(RB3LYP) =  -398.877403695     A.U. after   12 cycles
 SCF Done:  E(RB3LYP) =  -398.877407712     A.U. after   10 cycles
 SCF Done:  E(RB3LYP) =  -398.877408954     A.U. after    9 cycles
 SCF Done:  E(RB3LYP) =  -398.877409066     A.U. after    7 cycles
 Optimization completed.
    -- Stationary point found.
 Normal termination of Gaussian 09 at Sat Aug 21 01:34:45 2021.

 ----------------------------------------------------------------------
 #P Geom=AllCheck Guess=TCheck SCRF=Check GenChk RB3LYP/6-31G(d,p) Freq
 ----------------------------------------------------------------------

 Structure from the checkpoint file:  "/public/home/users/caep010/.cache/gau_scr/Gau-185378.chk"
 --------
 Frag_245
 --------
 Charge =  0 Multiplicity = 1

                         Standard orientation:
 ---------------------------------------------------------------------
 Center     Atomic      Atomic             Coordinates (Angstroms)
 Number     Number       Type             X           Y           Z
 ---------------------------------------------------------------------
      1          6           0        1.211098    1.027541    0.866180
      2          6           0        0.593828   -0.078071    0.024786
      3          6           0        0.977575   -0.020707   -1.457898
      4          8           0        0.872652   -1.305973    0.606803
      5          7           0       -0.967674    0.098532    0.037049
      6          8           0       -1.425146    1.221060   -0.116561
      7          8           0       -1.627004   -0.936155    0.137027
      8          1           0        0.956228    2.010076    0.469279
      9          1           0        0.865306    0.948988    1.899229
     10          1           0        2.296665    0.902145    0.855270
     11          1           0        2.059164   -0.152556   -1.538627
     12          1           0        0.488033   -0.829920   -2.007621
     13          1           0        0.695700    0.936094   -1.903075
     14          1           0        0.153605   -1.908574    0.349650
 ---------------------------------------------------------------------

 SCF Done:  E(RB3LYP) =  -398.877409066     A.U. after    1 cycles

 The electronic state is 1-A.
 Alpha  occ. eigenvalues --  -19.19935 -19.19692 -19.17058 -14.57054 -10.31050
 Alpha  occ. eigenvalues --  -10.20469 -10.19903  -1.23536  -1.07378  -1.05271
 Alpha  occ. eigenvalues --   -0.82085  -0.72332  -0.70197  -0.59167  -0.57733
 Alpha  occ. eigenvalues --   -0.53870  -0.52118  -0.48058  -0.46027  -0.42696
 Alpha  occ. eigenvalues --   -0.41168  -0.40988  -0.39829  -0.38190  -0.32601
 Alpha  occ. eigenvalues --   -0.31652  -0.30890  -0.28840
 Alpha virt. eigenvalues --   -0.07366   0.07351   0.09472   0.11660   0.13664
 Alpha virt. eigenvalues --    0.14531   0.15680   0.17623   0.18134   0.19004
 Alpha virt. eigenvalues --    0.22001   0.24493   0.27736   0.38251   0.47699

 Mulliken charges:
               1
     1  C   -0.308766
     2  C    0.324597
     3  C   -0.307064
     4  O   -0.526492
     5  N    0.452008
     6  O   -0.364186
     7  O   -0.386251
     8  H    0.137245
     9  H    0.133110
    10  H    0.130126
    11  H    0.135765
    12  H    0.121602
    13  H    0.132974
    14  H    0.325332
 Sum of Mulliken charges =   0.00000

 Dipole moment (field-independent basis, Debye):
    X=              2.3190    Y=              0.1014    Z=             -0.9219  Tot=              2.4975
 Quadrupole moment (field-independent basis, Debye-Ang):
   XX=            -45.6879   YY=            -41.5480   ZZ=            -39.4839
   XY=              2.8809   XZ=             -1.2616   YZ=              1.8039

  Exact polarizability:  51.019   1.707  54.723  -0.073  -0.723  42.037
 Approx polarizability:  71.633   2.677 101.681   0.606  -6.139  55.926

                      1                      2                      3
                      A                      A                      A
 Frequencies --     61.9431               193.3369               249.2254
 Red. masses --      7.8403                 1.0582                 1.1200
 Frc consts  --      0.0177                 0.0233                 0.0410
 IR Inten    --      3.0896                 0.6012                 4.7124

                      4                      5                      6
                      A                      A                      A
 Frequencies --    255.5137               284.1250               328.8558
 Red. masses --      2.6571                 2.2621                 1.5864
 Frc consts  --      0.1022                 0.1076                 0.1011
 IR Inten    --      2.1719                20.9171               106.1010

                      7                      8                      9
                      A                      A                      A
 Frequencies --    349.4556               417.3416               449.2539
 Red. masses --      2.8521                 4.8342                 2.5290
 Frc consts  --      0.2052                 0.4961                 0.3007
 IR Inten    --      0.1822                28.4525                 4.5488

                     10                     11                     12
                      A                      A                      A
 Frequencies --    526.3683               576.5364               729.1580
 Red. masses --      3.9394                 3.5152                 6.9189
 Frc consts  --      0.6431                 0.6884                 2.1673
 IR Inten    --      1.5695                18.6643                 1.5662

                     13                     14                     15
                      A                      A                      A
 Frequencies --    829.5603               850.9864               946.7258
 Red. masses --      3.8829                 7.9853                 1.4732
 Frc consts  --      1.5743                 3.4071                 0.7780
 IR Inten    --      8.1482                17.8028                 0.1794

                     16                     17                     18
                      A                      A                      A
 Frequencies --   1015.7081              1028.4567              1138.3049
 Red. masses --      1.4917                 1.6296                 1.5686
 Frc consts  --      0.9067                 1.0155                 1.1975
 IR Inten    --     18.5263                16.6713                28.3352

                     19                     20                     21
                      A                      A                      A
 Frequencies --   1213.0494              1284.6643              1392.5483
 Red. masses --      2.5660                 3.2433                 1.3871
 Frc consts  --      2.2247                 3.1537                 1.5848
 IR Inten    --     49.3027               161.3301                59.8747

                     22                     23                     24
                      A                      A                      A
 Frequencies --   1401.7774              1420.9536              1443.4012
 Red. masses --      1.9811                 1.8489                 1.8857
 Frc consts  --      2.2936                 2.1995                 2.3147
 IR Inten    --     26.4445                29.8564                61.6633

                     25                     26                     27
                      A                      A                      A
 Frequencies --   1491.1918              1493.0000              1511.6994
 Red. masses --      1.0521                 1.0499                 1.1011
 Frc consts  --      1.3784                 1.3788                 1.4826
 IR Inten    --      3.1932                 1.1342                11.7704

                     28                     29                     30
                      A                      A                      A
 Frequencies --   1516.8109              1669.8879              3061.5762
 Red. masses --      1.0598                12.2275                 1.0345
 Frc consts  --      1.4366                20.0892                 5.7131
 IR Inten    --      6.9329               199.2502                 7.2420

                     31                     32                     33
                      A                      A                      A
 Frequencies --   3075.4490              3141.8934              3150.4639
 Red. masses --      1.0357                 1.1031                 1.1035
 Frc consts  --      5.7718                 6.4157                 6.4530
 IR Inten    --      5.2182                11.3579                 7.9941

                     34                     35                     36
                      A                      A                      A
 Frequencies --   3155.7177              3177.2609              3724.9029
 Red. masses --      1.1044                 1.1036                 1.0639
 Frc consts  --      6.4798                 6.5643                 8.6975
 IR Inten    --      8.2969                 6.2209                65.4810

 - Thermochemistry -
 -------------------
 Temperature   298.150 Kelvin.  Pressure   1.00000 Atm.
 Atom     1 has atomic number  6 and mass  12.00000

 Molecular mass:   105.04259 amu.
 Principal axes and moments of inertia in atomic units:
                           1         2         3
     Eigenvalues --   515.63858 716.96427 836.49653
           X            0.99649   0.08286  -0.01219
           Y           -0.08154   0.99308   0.08454
           Z            0.01911  -0.08325   0.99635
 This molecule is an asymmetric top.
 Rotational symmetry number  1.
 Warning -- assumption of classical behavior for rotation
           may cause significant error
 Rotational temperatures (Kelvin)      0.16797     0.12081     0.10354
 Rotational constants (GHZ):           3.50001     2.51720     2.15750
 Zero-point vibrational energy     290436.0 (Joules/Mol)
                                   69.41586 (Kcal/Mol)
 Warning -- explicit consideration of  11 degrees of freedom as
           vibrations may cause significant error
 Vibrational temperatures:     89.12   278.17   358.58   367.63   408.79
          (Kelvin)            473.15   502.79   600.46   646.38   757.33
                              829.51  1049.09  1193.55  1224.38  1362.13
                             1461.38  1479.72  1637.76  1745.31  1848.34
                             2003.56  2016.84  2044.43  2076.73  2145.49
                             2148.09  2175.00  2182.35  2402.59  4404.92
                             4424.88  4520.48  4532.81  4540.37  4571.36
                             5359.30

 Zero-point correction=                           0.110621 (Hartree/Particle)
 Thermal correction to Energy=                    0.118374
 Thermal correction to Enthalpy=                  0.119318
 Thermal correction to Gibbs Free Energy=         0.078934
 Sum of electronic and zero-point Energies=           -398.766788
 Sum of electronic and thermal Energies=              -398.759035
 Sum of electronic and thermal Enthalpies=            -398.758091
 Sum of electronic and thermal Free Energies=         -398.798475

                     E (Thermal)             CV                S
                      KCal/Mol        Cal/Mol-Kelvin    Cal/Mol-Kelvin
 Total                   74.281             27.704             84.996
 Electronic               0.000              0.000              0.000
 Translational            0.889              2.981             39.865
 Rotational               0.889              2.981             27.228
 Vibrational             72.503             21.743             17.904
 Vibration     1          0.597              1.972              4.394
 Vibration     2          0.635              1.849              2.196
 Vibration     3          0.662              1.764              1.736
 Vibration     4          0.666              1.753              1.692
 Vibration     5          0.683              1.703              1.509
 Vibration     6          0.712              1.618              1.266
 Vibration     7          0.727              1.576              1.169
 Vibration     8          0.780              1.433              0.901
 Vibration     9          0.808              1.363              0.798
 Vibration    10          0.881              1.192              0.595
 Vibration    11          0.933              1.082              0.492

 Optimization completed.
    -- Stationary point found.
 Normal termination of Gaussian 09 at Sat Aug 21 01:34:57 2021.
