 Gaussian 09, Revision E.01,
 Gaussian 09:  ES64L-G09RevE.01 30-Nov-2015

 --------------------------------
 #P OPT=calcfc Freq B3LYP/6-31G**
 --------------------------------

 --------
 Frag_180
 --------
 Symbolic Z-matrix:
 Charge =  0 Multiplicity = 1

 SCF Done:  E(RB3LYP) =  -173.274682431     A.U. after   13 cycles
 SCF Done:  E(RB3LYP) =  -173.281854272     A.U. after   13 cycles
 SCF Done:  E(RB3LYP) =  -173.284460031     A.U. after   12 cycles
 SCF Done:  E(RB3LYP) =  -173.285367682     A.U. after   13 cycles
 SCF Done:  E(RB3LYP) =  -173.286221087     A.U. after   11 cycles
 SCF Done:  E(RB3LYP) =  -173.286398524     A.U. after   10 cycles
 SCF Done:  E(RB3LYP) =  -173.286532392     A.U. after   10 cycles
 SCF Done:  E(RB3LYP) =  -173.286572345     A.U. after    9 cycles
 SCF Done:  E(RB3LYP) =  -173.286576699     A.U. after    8 cycles
 SCF Done:  E(RB3LYP) =  -173.286577016     A.U. after    7 cycles
 SCF Done:  E(RB3LYP) =  -173.286577037     A.U. after    6 cycles
 Optimization completed.
    -- Stationary point found.
 Normal termination of Gaussian 09 at Sat Aug 21 02:19:36 2021.

 ----------------------------------------------------------------------
 #P Geom=AllCheck Guess=TCheck SCRF=Check GenChk RB3LYP/6-31G(d,p) Freq
 ----------------------------------------------------------------------

 Structure from the checkpoint file:  "/public/home/users/caep010/.cache/gau_scr/Gau-16802.chk"
 --------
 Frag_180
 --------
 Charge =  0 Multiplicity = 1

                         Standard orientation:
 ---------------------------------------------------------------------
 Center     Atomic      Atomic             Coordinates (Angstroms)
 Number     Number       Type             X           Y           Z
 ---------------------------------------------------------------------
      1          6           0        1.348610   -0.510834   -0.000005
      2          6           0       -0.004120    0.161089   -0.000004
      3          6           0       -1.202612   -0.765760    0.000001
      4          7           0       -0.053168    1.436926    0.000003
      5          1           0        1.462848   -1.155014    0.880333
      6          1           0        1.462897   -1.154965   -0.880370
      7          1           0        2.137862    0.241779    0.000054
      8          1           0       -1.184828   -1.420762   -0.879360
      9          1           0       -1.184896   -1.420582    0.879492
     10          1           0       -2.143471   -0.208417   -0.000104
     11          1           0       -1.029505    1.752513   -0.000024
 ---------------------------------------------------------------------

 SCF Done:  E(RB3LYP) =  -173.286577037     A.U. after    1 cycles

 The electronic state is 1-A.
 Alpha  occ. eigenvalues --  -14.30723 -10.23439 -10.19197 -10.18041  -0.89774
 Alpha  occ. eigenvalues --   -0.74420  -0.70182  -0.54022  -0.47124  -0.44290
 Alpha  occ. eigenvalues --   -0.43181  -0.39407  -0.38426  -0.36351  -0.29166
 Alpha  occ. eigenvalues --   -0.25214
 Alpha virt. eigenvalues --    0.01184   0.08448   0.12528   0.15153   0.15410
 Alpha virt. eigenvalues --    0.16664   0.17905   0.19575   0.21614   0.28594
 Alpha virt. eigenvalues --    0.42224   0.49808   0.54364   0.55660   0.56320

 Mulliken charges:
               1
     1  C   -0.349856
     2  C    0.280311
     3  C   -0.361659
     4  N   -0.508627
     5  H    0.115136
     6  H    0.115140
     7  H    0.136676
     8  H    0.124956
     9  H    0.124962
    10  H    0.109967
    11  H    0.212996
 Sum of Mulliken charges =  -0.00000

 Dipole moment (field-independent basis, Debye):
    X=             -1.1837    Y=             -2.0230    Z=             -0.0000  Tot=              2.3439
 Quadrupole moment (field-independent basis, Debye-Ang):
   XX=            -23.8352   YY=            -28.1626   ZZ=            -25.7995
   XY=             -2.4224   XZ=              0.0000   YZ=             -0.0001

  Exact polarizability:  40.955  -2.477  47.031   0.000   0.000  28.180
 Approx polarizability:  50.528  -3.415  72.650   0.000   0.000  39.579

                      1                      2                      3
                      A                      A                      A
 Frequencies --    128.1802               185.5971               385.7448
 Red. masses --      1.0244                 1.0980                 2.1829
 Frc consts  --      0.0099                 0.0223                 0.1914
 IR Inten    --      0.0000                 0.3163                 0.6984

                      4                      5                      6
                      A                      A                      A
 Frequencies --    470.9297               511.6294               808.6132
 Red. masses --      2.1310                 2.7629                 3.5276
 Frc consts  --      0.2784                 0.4261                 1.3590
 IR Inten    --      0.6905                14.8547                 0.6532

                      7                      8                      9
                      A                      A                      A
 Frequencies --    830.8915               933.5827              1055.6165
 Red. masses --      1.1238                 1.5199                 1.2274
 Frc consts  --      0.4571                 0.7805                 0.8058
 IR Inten    --     32.6232                 1.1315                27.5478

                     10                     11                     12
                      A                      A                      A
 Frequencies --   1093.1839              1114.7254              1132.6115
 Red. masses --      1.4851                 1.7904                 1.6612
 Frc consts  --      1.0456                 1.3108                 1.2556
 IR Inten    --      4.4251                 1.0805                43.0097

                     13                     14                     15
                      A                      A                      A
 Frequencies --   1366.0368              1417.4035              1429.7092
 Red. masses --      1.3848                 1.2334                 1.6988
 Frc consts  --      1.5225                 1.4600                 2.0459
 IR Inten    --     41.6227                 5.6464                46.8301

                     16                     17                     18
                      A                      A                      A
 Frequencies --   1482.0478              1485.3613              1496.6015
 Red. masses --      1.0484                 1.0509                 1.0791
 Frc consts  --      1.3568                 1.3661                 1.4240
 IR Inten    --      0.3902                 2.3547                24.2517

                     19                     20                     21
                      A                      A                      A
 Frequencies --   1503.9639              1740.6990              3033.5496
 Red. masses --      1.0434                 7.4343                 1.0369
 Frc consts  --      1.3905                13.2720                 5.6222
 IR Inten    --     16.1233                64.0631                 8.9101

                     22                     23                     24
                      A                      A                      A
 Frequencies --   3040.6105              3090.7888              3097.2883
 Red. masses --      1.0383                 1.0997                 1.0998
 Frc consts  --      5.6559                 6.1894                 6.2160
 IR Inten    --     16.5132                 4.1255                29.6838

                     25                     26                     27
                      A                      A                      A
 Frequencies --   3127.5011              3161.9913              3417.2449
 Red. masses --      1.1031                 1.1004                 1.0743
 Frc consts  --      6.3574                 6.4822                 7.3912
 IR Inten    --     21.4783                10.0595                12.7236

 - Thermochemistry -
 -------------------
 Temperature   298.150 Kelvin.  Pressure   1.00000 Atm.
 Atom     1 has atomic number  6 and mass  12.00000

 Molecular mass:    57.05785 amu.
 Principal axes and moments of inertia in atomic units:
                           1         2         3
     Eigenvalues --   186.35424 213.81169 377.87499
           X            0.99425  -0.10706   0.00000
           Y            0.10706   0.99425  -0.00000
           Z           -0.00000   0.00000   1.00000
 This molecule is an asymmetric top.
 Rotational symmetry number  1.
 Rotational temperatures (Kelvin)      0.46478     0.40509     0.22921
 Rotational constants (GHZ):           9.68447     8.44080     4.77603
 Zero-point vibrational energy     254458.3 (Joules/Mol)
                                   60.81699 (Kcal/Mol)
 Warning -- explicit consideration of   5 degrees of freedom as
           vibrations may cause significant error
 Vibrational temperatures:    184.42   267.03   555.00   677.56   736.12
          (Kelvin)           1163.41  1195.47  1343.22  1518.79  1572.85
                             1603.84  1629.57  1965.42  2039.32  2057.03
                             2132.33  2137.10  2153.27  2163.87  2504.47
                             4364.60  4374.75  4446.95  4456.30  4499.77
                             4549.39  4916.65

 Zero-point correction=                           0.096918 (Hartree/Particle)
 Thermal correction to Energy=                    0.102140
 Thermal correction to Enthalpy=                  0.103085
 Thermal correction to Gibbs Free Energy=         0.069464
 Sum of electronic and zero-point Energies=           -173.189659
 Sum of electronic and thermal Energies=              -173.184437
 Sum of electronic and thermal Enthalpies=            -173.183492
 Sum of electronic and thermal Free Energies=         -173.217113

                     E (Thermal)             CV                S
                      KCal/Mol        Cal/Mol-Kelvin    Cal/Mol-Kelvin
 Total                   64.094             17.261             70.760
 Electronic               0.000              0.000              0.000
 Translational            0.889              2.981             38.046
 Rotational               0.889              2.981             24.224
 Vibrational             62.317             11.299              8.490
 Vibration     1          0.611              1.925              2.973
 Vibration     2          0.632              1.860              2.271
 Vibration     3          0.754              1.501              1.017
 Vibration     4          0.828              1.315              0.735
 Vibration     5          0.867              1.224              0.630

 Optimization completed.
    -- Stationary point found.
 Normal termination of Gaussian 09 at Sat Aug 21 02:19:43 2021.
