 Gaussian 09, Revision E.01,
 Gaussian 09:  ES64L-G09RevE.01 30-Nov-2015

 ----------------------------
 #P OPT Freq B3LYP/6-31G(d,p)
 ----------------------------

 --------
 Frag_956
 --------
 Symbolic Z-matrix:
 Charge =  0 Multiplicity = 1

 SCF Done:  E(RB3LYP) =  -189.295602052     A.U. after   13 cycles
 SCF Done:  E(RB3LYP) =  -189.295639065     A.U. after    9 cycles
 SCF Done:  E(RB3LYP) =  -189.295641126     A.U. after    8 cycles
 SCF Done:  E(RB3LYP) =  -189.295641706     A.U. after    8 cycles
 Optimization completed.
    -- Stationary point found.
 Normal termination of Gaussian 09 at Thu Sep  8 15:16:54 2022.

 ----------------------------------------------------------------------
 #P Geom=AllCheck Guess=TCheck SCRF=Check GenChk RB3LYP/6-31G(d,p) Freq
 ----------------------------------------------------------------------

 Structure from the checkpoint file:  "B3LYP6-31Gdp.Frag_956.chk"
 --------
 Frag_956
 --------
 Charge =  0 Multiplicity = 1

                         Standard orientation:
 ---------------------------------------------------------------------
 Center     Atomic      Atomic             Coordinates (Angstroms)
 Number     Number       Type             X           Y           Z
 ---------------------------------------------------------------------
      1          6           0        1.732634   -0.007492   -0.220475
      2          7           0        0.658810   -0.384983    0.334449
      3          6           0       -0.500050    0.490341    0.239569
      4          7           0       -1.604911   -0.274532   -0.332722
      5          1           0        2.619314   -0.641136   -0.155518
      6          1           0        1.837754    0.934778   -0.779341
      7          1           0       -0.319963    1.371135   -0.400630
      8          1           0       -0.685978    0.860477    1.264720
      9          1           0       -2.453940    0.285763   -0.307842
     10          1           0       -1.769987   -1.091502    0.251954
 ---------------------------------------------------------------------

 SCF Done:  E(RB3LYP) =  -189.295641706     A.U. after    1 cycles

 The electronic state is 1-A.
 Alpha  occ. eigenvalues --  -14.33330 -14.31207 -10.23557 -10.22746  -0.93150
 Alpha  occ. eigenvalues --   -0.86037  -0.67723  -0.58033  -0.49995  -0.47183
 Alpha  occ. eigenvalues --   -0.46213  -0.41593  -0.37967  -0.31337  -0.25562
 Alpha  occ. eigenvalues --   -0.23560
 Alpha virt. eigenvalues --   -0.00728   0.09555   0.11116   0.15119   0.15840
 Alpha virt. eigenvalues --    0.17391   0.17988   0.21678   0.25140   0.33574
 Alpha virt. eigenvalues --    0.51019   0.54883   0.58524   0.59927   0.65367

 Mulliken charges:
               1
     1  C   -0.018808
     2  N   -0.311392
     3  C    0.070651
     4  N   -0.590641
     5  H    0.107904
     6  H    0.085161
     7  H    0.082964
     8  H    0.091678
     9  H    0.236118
    10  H    0.246364
 Sum of Mulliken charges =  -0.00000

 Dipole moment (field-independent basis, Debye):
    X=             -0.1949    Y=              1.4594    Z=              0.5403  Tot=              1.5684
 Quadrupole moment (field-independent basis, Debye-Ang):
   XX=            -19.0946   YY=            -24.9451   ZZ=            -27.1666
   XY=             -0.0118   XZ=             -3.0741   YZ=             -0.6867

  Exact polarizability:  49.509  -0.357  32.284  -4.515  -3.482  26.433
 Approx polarizability:  64.203   2.181  45.676  -8.624  -6.777  38.604

                      1                      2                      3
                      A                      A                      A
 Frequencies --    109.5203               210.4985               396.9888
 Red. masses --      3.1819                 1.0858                 2.2501
 Frc consts  --      0.0225                 0.0283                 0.2089
 IR Inten    --     12.1980                55.0503                 1.7221

                      4                      5                      6
                      A                      A                      A
 Frequencies --    489.2440               729.9909               860.3242
 Red. masses --      2.5575                 1.2804                 1.2731
 Frc consts  --      0.3607                 0.4020                 0.5552
 IR Inten    --      2.9165                 6.2068               134.5695

                      7                      8                      9
                      A                      A                      A
 Frequencies --    934.2481              1068.5487              1084.2225
 Red. masses --      2.3332                 1.3511                 2.5854
 Frc consts  --      1.1999                 0.9089                 1.7907
 IR Inten    --     25.5727                19.9073                28.1271

                     10                     11                     12
                      A                      A                      A
 Frequencies --   1106.7255              1189.5065              1268.7588
 Red. masses --      1.7426                 1.2328                 1.4577
 Frc consts  --      1.2575                 1.0277                 1.3826
 IR Inten    --     14.6762                 4.3401                13.7755

                     13                     14                     15
                      A                      A                      A
 Frequencies --   1308.6488              1441.4054              1511.6889
 Red. masses --      1.2586                 1.2996                 1.1460
 Frc consts  --      1.2699                 1.5909                 1.5429
 IR Inten    --     10.4129                42.9142                13.4233

                     16                     17                     18
                      A                      A                      A
 Frequencies --   1532.5642              1646.7135              1758.4819
 Red. masses --      1.1094                 1.0950                 6.3380
 Frc consts  --      1.5352                 1.7495                11.5473
 IR Inten    --      4.1012                34.1122                30.7005

                     19                     20                     21
                      A                      A                      A
 Frequencies --   2935.2308              2977.5234              3009.2824
 Red. masses --      1.0604                 1.1002                 1.0648
 Frc consts  --      5.3830                 5.7469                 5.6813
 IR Inten    --     86.9209                63.2497                55.7375

                     22                     23                     24
                      A                      A                      A
 Frequencies --   3146.3338              3485.7513              3577.6411
 Red. masses --      1.1052                 1.0493                 1.0926
 Frc consts  --      6.4460                 7.5116                 8.2394
 IR Inten    --     38.1346                 0.5447                 0.2063

 - Thermochemistry -
 -------------------
 Temperature   298.150 Kelvin.  Pressure   1.00000 Atm.
 Atom     1 has atomic number  6 and mass  12.00000

 Molecular mass:    58.05310 amu.
 Principal axes and moments of inertia in atomic units:
                           1         2         3
     Eigenvalues --    64.59744 386.36393 401.99582
           X            0.99971  -0.00025  -0.02395
           Y           -0.00227   0.99445  -0.10519
           Z            0.02385   0.10521   0.99416
 This molecule is an asymmetric top.
 Rotational symmetry number  1.
 Rotational temperatures (Kelvin)      1.34082     0.22418     0.21546
 Rotational constants (GHZ):          27.93828     4.67109     4.48945
 Zero-point vibrational energy     225973.6 (Joules/Mol)
                                   54.00900 (Kcal/Mol)
 Warning -- explicit consideration of   4 degrees of freedom as
           vibrations may cause significant error
 Vibrational temperatures:    157.58   302.86   571.18   703.91  1050.29
          (Kelvin)           1237.81  1344.17  1537.40  1559.95  1592.33
                             1711.43  1825.46  1882.85  2073.86  2174.98
                             2205.02  2369.25  2530.06  4223.14  4283.99
                             4329.68  4526.87  5015.21  5147.42

 Zero-point correction=                           0.086069 (Hartree/Particle)
 Thermal correction to Energy=                    0.091058
 Thermal correction to Enthalpy=                  0.092002
 Thermal correction to Gibbs Free Energy=         0.058839
 Sum of electronic and zero-point Energies=           -189.209573
 Sum of electronic and thermal Energies=              -189.204584
 Sum of electronic and thermal Enthalpies=            -189.203640
 Sum of electronic and thermal Free Energies=         -189.236803

                     E (Thermal)             CV                S
                      KCal/Mol        Cal/Mol-Kelvin    Cal/Mol-Kelvin
 Total                   57.140             15.964             69.797
 Electronic               0.000              0.000              0.000
 Translational            0.889              2.981             38.097
 Rotational               0.889              2.981             23.821
 Vibrational             55.362             10.002              7.879
 Vibration     1          0.606              1.942              3.277
 Vibration     2          0.643              1.825              2.039
 Vibration     3          0.763              1.477              0.974
 Vibration     4          0.845              1.274              0.686

 Normal termination of Gaussian 09 at Thu Sep  8 15:17:00 2022.
