 Gaussian 09, Revision E.01,
 Gaussian 09:  ES64L-G09RevE.01 30-Nov-2015

 --------------------------------
 #P OPT=calcfc Freq B3LYP/6-31G**
 --------------------------------

 --------
 Frag_399
 --------
 Symbolic Z-matrix:
 Charge =  0 Multiplicity = 1

 SCF Done:  E(RB3LYP) =  -367.664670133     A.U. after   12 cycles
 SCF Done:  E(RB3LYP) =  -367.671210692     A.U. after   11 cycles
 SCF Done:  E(RB3LYP) =  -367.671984565     A.U. after   10 cycles
 SCF Done:  E(RB3LYP) =  -367.672016972     A.U. after   10 cycles
 SCF Done:  E(RB3LYP) =  -367.672045198     A.U. after   10 cycles
 SCF Done:  E(RB3LYP) =  -367.672057792     A.U. after    9 cycles
 SCF Done:  E(RB3LYP) =  -367.672058871     A.U. after    7 cycles
 SCF Done:  E(RB3LYP) =  -367.672059074     A.U. after    6 cycles
 Optimization completed.
    -- Stationary point found.
 Normal termination of Gaussian 09 at Fri Sep 10 21:05:54 2021.

 ----------------------------------------------------------------------
 #P Geom=AllCheck Guess=TCheck SCRF=Check GenChk RB3LYP/6-31G(d,p) Freq
 ----------------------------------------------------------------------

 Structure from the checkpoint file:  "/public/home/users/caep010/.cache/gau_scr/Gau-46788.chk"
 --------
 Frag_399
 --------
 Charge =  0 Multiplicity = 1

                         Standard orientation:
 ---------------------------------------------------------------------
 Center     Atomic      Atomic             Coordinates (Angstroms)
 Number     Number       Type             X           Y           Z
 ---------------------------------------------------------------------
      1          6           0        1.317122    0.319699    1.435026
      2          6           0        0.783663    0.029870    0.015768
      3          6           0        1.360480   -1.322561   -0.454796
      4          6           0        1.279414    1.131543   -0.942193
      5          6           0       -0.793988   -0.029837   -0.013861
      6          6           0       -1.466779    1.324819    0.256486
      7          7           0       -1.257011   -1.084193    0.899260
      8          8           0       -1.251946   -0.400596   -1.312978
      9          1           0        0.905666    1.242980    1.855492
     10          1           0        2.405652    0.437390    1.404189
     11          1           0        1.108188   -0.499817    2.131366
     12          1           0        0.971061   -2.150566    0.142759
     13          1           0        2.452106   -1.315707   -0.368057
     14          1           0        1.122612   -1.511886   -1.506768
     15          1           0        2.364452    1.055934   -1.071760
     16          1           0        0.809025    1.027937   -1.923716
     17          1           0        1.066459    2.135563   -0.562428
     18          1           0       -2.552034    1.187274    0.232402
     19          1           0       -1.190659    1.722622    1.236670
     20          1           0       -1.211074    2.064383   -0.505230
     21          1           0       -0.963178   -0.894708    1.853786
     22          1           0       -2.275319   -1.078645    0.899958
     23          1           0       -1.077793   -1.349836   -1.388235
 ---------------------------------------------------------------------

 SCF Done:  E(RB3LYP) =  -367.672059074     A.U. after    1 cycles

 The electronic state is 1-A.
 Alpha  occ. eigenvalues --  -19.13467 -14.31443 -10.26016 -10.19300 -10.17468
 Alpha  occ. eigenvalues --  -10.16977 -10.16481 -10.16420  -1.02026  -0.87213
 Alpha  occ. eigenvalues --   -0.80027  -0.72178  -0.68128  -0.67279  -0.61022
 Alpha  occ. eigenvalues --   -0.53860  -0.49763  -0.48746  -0.45035  -0.43917
 Alpha  occ. eigenvalues --   -0.42456  -0.40864  -0.39161  -0.38568  -0.37525
 Alpha  occ. eigenvalues --   -0.36661  -0.35931  -0.34825  -0.32646  -0.31873
 Alpha  occ. eigenvalues --   -0.31493  -0.26662  -0.24149
 Alpha virt. eigenvalues --    0.06638   0.10596   0.12083   0.12472   0.13211
 Alpha virt. eigenvalues --    0.14182   0.15282   0.15923   0.16833   0.17933
 Alpha virt. eigenvalues --    0.19844   0.20081   0.20552   0.21404   0.22567

 Mulliken charges:
               1
     1  C   -0.321991
     2  C    0.057661
     3  C   -0.323357
     4  C   -0.312436
     5  C    0.373347
     6  C   -0.311229
     7  N   -0.610540
     8  O   -0.554090
     9  H    0.098246
    10  H    0.102831
    11  H    0.096342
    12  H    0.116890
    13  H    0.093700
    14  H    0.094155
    15  H    0.090984
    16  H    0.120071
    17  H    0.094260
    18  H    0.100157
    19  H    0.093218
    20  H    0.117524
    21  H    0.237578
    22  H    0.239437
    23  H    0.307241
 Sum of Mulliken charges =  -0.00000

 Dipole moment (field-independent basis, Debye):
    X=              0.0365    Y=              0.0445    Z=              1.5116  Tot=              1.5127
 Quadrupole moment (field-independent basis, Debye-Ang):
   XX=            -50.8859   YY=            -52.5818   ZZ=            -51.6961
   XY=              0.6959   XZ=             -2.8231   YZ=              1.5644

  Exact polarizability:  78.694  -0.169  73.272  -0.952   0.012  72.561
 Approx polarizability: 104.746   1.207 102.048   1.361  -0.343 105.016

                      1                      2                      3
                      A                      A                      A
 Frequencies --     76.4648               215.9307               222.4266
 Red. masses --      2.7867                 1.0552                 1.0834
 Frc consts  --      0.0096                 0.0290                 0.0316
 IR Inten    --      0.7711                 1.6726                17.9703

                      4                      5                      6
                      A                      A                      A
 Frequencies --    251.1188               262.0554               269.4759
 Red. masses --      1.1629                 1.5594                 1.6428
 Frc consts  --      0.0432                 0.0631                 0.0703
 IR Inten    --      1.1621                 1.2519                 2.8100

                      7                      8                      9
                      A                      A                      A
 Frequencies --    291.6810               303.3762               349.1920
 Red. masses --      1.5891                 1.5151                 1.9319
 Frc consts  --      0.0797                 0.0822                 0.1388
 IR Inten    --      2.9929                 1.1679                 3.5975

                     10                     11                     12
                      A                      A                      A
 Frequencies --    352.0101               371.7997               393.5312
 Red. masses --      2.6956                 2.2637                 2.1979
 Frc consts  --      0.1968                 0.1844                 0.2006
 IR Inten    --      9.4147                 0.2022                 5.9989

                     13                     14                     15
                      A                      A                      A
 Frequencies --    407.4196               468.0901               504.0444
 Red. masses --      2.1284                 1.4944                 2.9193
 Frc consts  --      0.2082                 0.1929                 0.4370
 IR Inten    --     17.2000                62.3832                 1.2743

                     16                     17                     18
                      A                      A                      A
 Frequencies --    527.3174               544.3758               671.1310
 Red. masses --      2.7955                 2.1742                 3.2389
 Frc consts  --      0.4580                 0.3796                 0.8595
 IR Inten    --      8.7485                54.6115                 6.3977

                     19                     20                     21
                      A                      A                      A
 Frequencies --    828.9548               889.3198               915.3721
 Red. masses --      2.6642                 1.5797                 1.8514
 Frc consts  --      1.0787                 0.7361                 0.9140
 IR Inten    --      3.6418               123.0002                27.8992

                     22                     23                     24
                      A                      A                      A
 Frequencies --    942.1812               944.3135               959.4071
 Red. masses --      1.7236                 1.6710                 1.6525
 Frc consts  --      0.9015                 0.8779                 0.8962
 IR Inten    --      1.8698                 3.0865                17.5239

                     25                     26                     27
                      A                      A                      A
 Frequencies --    965.8359              1020.8612              1043.8630
 Red. masses --      1.2841                 1.7016                 1.3705
 Frc consts  --      0.7057                 1.0448                 0.8798
 IR Inten    --      2.3440                26.8819                 0.1156

                     28                     29                     30
                      A                      A                      A
 Frequencies --   1061.0813              1096.0858              1204.2070
 Red. masses --      1.4649                 1.6477                 2.5479
 Frc consts  --      0.9718                 1.1663                 2.1769
 IR Inten    --     19.3170                53.3661                50.4301

                     31                     32                     33
                      A                      A                      A
 Frequencies --   1238.7759              1250.6798              1271.1463
 Red. masses --      2.1667                 2.6368                 2.9148
 Frc consts  --      1.9590                 2.4301                 2.7749
 IR Inten    --     29.5264                 6.2255                 5.7112

                     34                     35                     36
                      A                      A                      A
 Frequencies --   1333.7931              1362.3391              1404.9722
 Red. masses --      2.0924                 1.4808                 1.2518
 Frc consts  --      2.1932                 1.6192                 1.4559
 IR Inten    --     22.4098                49.3116                 6.5976

                     37                     38                     39
                      A                      A                      A
 Frequencies --   1411.0834              1426.4771              1441.9804
 Red. masses --      1.2460                 1.3419                 1.2391
 Frc consts  --      1.4617                 1.6087                 1.5180
 IR Inten    --      5.4773                27.7164                 5.9929

                     40                     41                     42
                      A                      A                      A
 Frequencies --   1492.7872              1498.6342              1505.6602
 Red. masses --      1.0507                 1.0538                 1.0493
 Frc consts  --      1.3795                 1.3945                 1.4016
 IR Inten    --      0.0691                 0.0646                 0.1823

                     43                     44                     45
                      A                      A                      A
 Frequencies --   1513.1901              1514.6444              1525.9566
 Red. masses --      1.0499                 1.0479                 1.0517
 Frc consts  --      1.4164                 1.4164                 1.4428
 IR Inten    --      0.9170                 4.3637                 2.8957

                     46                     47                     48
                      A                      A                      A
 Frequencies --   1527.7874              1543.9069              1650.4100
 Red. masses --      1.0516                 1.0592                 1.1068
 Frc consts  --      1.4462                 1.4875                 1.7762
 IR Inten    --      1.7116                11.0425                42.9160

                     49                     50                     51
                      A                      A                      A
 Frequencies --   3038.3756              3042.9700              3048.9398
 Red. masses --      1.0355                 1.0358                 1.0368
 Frc consts  --      5.6321                 5.6508                 5.6786
 IR Inten    --     27.1970                23.4077                21.3362

                     52                     53                     54
                      A                      A                      A
 Frequencies --   3060.1284              3102.8760              3106.7367
 Red. masses --      1.0370                 1.1014                 1.1019
 Frc consts  --      5.7213                 6.2477                 6.2660
 IR Inten    --     11.1105                17.8668                13.3195

                     55                     56                     57
                      A                      A                      A
 Frequencies --   3108.2434              3113.5990              3130.1794
 Red. masses --      1.1021                 1.1015                 1.1011
 Frc consts  --      6.2733                 6.2916                 6.3563
 IR Inten    --     26.0722                69.3317                13.5257

                     58                     59                     60
                      A                      A                      A
 Frequencies --   3134.2324              3136.0720              3147.7340
 Red. masses --      1.1017                 1.1015                 1.1020
 Frc consts  --      6.3761                 6.3828                 6.4335
 IR Inten    --     32.7491                21.4196                21.2973

                     61                     62                     63
                      A                      A                      A
 Frequencies --   3491.2271              3582.6290              3796.5383
 Red. masses --      1.0504                 1.0911                 1.0649
 Frc consts  --      7.5434                 8.2511                 9.0432
 IR Inten    --      0.5861                 0.1250                16.7666

 - Thermochemistry -
 -------------------
 Temperature   298.150 Kelvin.  Pressure   1.00000 Atm.
 Atom     1 has atomic number  6 and mass  12.00000

 Molecular mass:   117.11536 amu.
 Principal axes and moments of inertia in atomic units:
                           1         2         3
     Eigenvalues --   752.492001050.263471067.12899
           X            0.99882  -0.02313  -0.04267
           Y            0.02969   0.98663   0.16023
           Z            0.03840  -0.16130   0.98616
 This molecule is an asymmetric top.
 Rotational symmetry number  1.
 Warning -- assumption of classical behavior for rotation
           may cause significant error
 Rotational temperatures (Kelvin)      0.11510     0.08247     0.08117
 Rotational constants (GHZ):           2.39835     1.71837     1.69121
 Zero-point vibrational energy     552122.2 (Joules/Mol)
                                  131.96038 (Kcal/Mol)
 Warning -- explicit consideration of  17 degrees of freedom as
           vibrations may cause significant error
 Vibrational temperatures:    110.02   310.68   320.02   361.30   377.04
          (Kelvin)            387.72   419.66   436.49   502.41   506.46
                              534.94   566.20   586.19   673.48   725.21
                              758.69   783.23   965.61  1192.68  1279.53
                             1317.01  1355.59  1358.65  1380.37  1389.62
                             1468.79  1501.88  1526.66  1577.02  1732.58
                             1782.32  1799.45  1828.89  1919.03  1960.10
                             2021.44  2030.23  2052.38  2074.69  2147.79
                             2156.20  2166.31  2177.14  2179.23  2195.51
                             2198.14  2221.33  2374.57  4371.54  4378.15
                             4386.74  4402.84  4464.34  4469.90  4472.06
                             4479.77  4503.62  4509.46  4512.10  4528.88
                             5023.09  5154.60  5462.36

 Zero-point correction=                           0.210292 (Hartree/Particle)
 Thermal correction to Energy=                    0.220515
 Thermal correction to Enthalpy=                  0.221459
 Thermal correction to Gibbs Free Energy=         0.176833
 Sum of electronic and zero-point Energies=           -367.461767
 Sum of electronic and thermal Energies=              -367.451544
 Sum of electronic and thermal Enthalpies=            -367.450600
 Sum of electronic and thermal Free Energies=         -367.495226

                     E (Thermal)             CV                S
                      KCal/Mol        Cal/Mol-Kelvin    Cal/Mol-Kelvin
 Total                  138.375             40.136             93.923
 Electronic               0.000              0.000              0.000
 Translational            0.889              2.981             40.189
 Rotational               0.889              2.981             28.224
 Vibrational            136.598             34.174             25.510
 Vibration     1          0.599              1.965              3.980
 Vibration     2          0.645              1.817              1.993
 Vibration     3          0.648              1.807              1.939
 Vibration     4          0.663              1.761              1.723
 Vibration     5          0.669              1.742              1.648
 Vibration     6          0.674              1.729              1.600
 Vibration     7          0.687              1.689              1.464
 Vibration     8          0.695              1.667              1.398
 Vibration     9          0.726              1.577              1.170
 Vibration    10          0.729              1.571              1.157
 Vibration    11          0.744              1.530              1.072
 Vibration    12          0.761              1.484              0.987
 Vibration    13          0.772              1.454              0.936
 Vibration    14          0.825              1.321              0.743
 Vibration    15          0.859              1.241              0.648
 Vibration    16          0.882              1.190              0.593
 Vibration    17          0.900              1.152              0.556

 Optimization completed.
    -- Stationary point found.
 Normal termination of Gaussian 09 at Fri Sep 10 21:06:22 2021.
