 Gaussian 09, Revision E.01,
 Gaussian 09:  ES64L-G09RevE.01 30-Nov-2015

 ----------------------------
 #P OPT Freq B3LYP/6-31G(d,p)
 ----------------------------

 ---------
 Frag_1134
 ---------
 Symbolic Z-matrix:
 Charge =  0 Multiplicity = 1

 SCF Done:  E(RB3LYP) =  -285.076305214     A.U. after   14 cycles
 SCF Done:  E(RB3LYP) =  -285.076358609     A.U. after    9 cycles
 SCF Done:  E(RB3LYP) =  -285.076325130     A.U. after   11 cycles
 SCF Done:  E(RB3LYP) =  -285.076367565     A.U. after   11 cycles
 SCF Done:  E(RB3LYP) =  -285.076371191     A.U. after    8 cycles
 SCF Done:  E(RB3LYP) =  -285.076375516     A.U. after    8 cycles
 SCF Done:  E(RB3LYP) =  -285.076377193     A.U. after    8 cycles
 SCF Done:  E(RB3LYP) =  -285.076378254     A.U. after    7 cycles
 SCF Done:  E(RB3LYP) =  -285.076378653     A.U. after    7 cycles
 Optimization completed.
    -- Stationary point found.
 Normal termination of Gaussian 09 at Thu Sep  8 14:51:44 2022.

 ----------------------------------------------------------------------
 #P Geom=AllCheck Guess=TCheck SCRF=Check GenChk RB3LYP/6-31G(d,p) Freq
 ----------------------------------------------------------------------

 Structure from the checkpoint file:  "B3LYP6-31Gdp.Frag_1134.chk"
 ---------
 Frag_1134
 ---------
 Charge =  0 Multiplicity = 1

                         Standard orientation:
 ---------------------------------------------------------------------
 Center     Atomic      Atomic             Coordinates (Angstroms)
 Number     Number       Type             X           Y           Z
 ---------------------------------------------------------------------
      1          6           0        0.423839    1.221207    0.856264
      2          7           0        0.392258   -0.000002    0.004657
      3          6           0        1.514826    0.000010   -0.958661
      4          6           0        0.423834   -1.221226    0.856239
      5          7           0       -0.842948    0.000010   -0.925483
      6          7           0       -1.956419    0.000005   -0.050874
      7          1           0        0.443169    2.084638    0.191392
      8          1           0        1.293376    1.225309    1.522943
      9          1           0       -0.501304    1.225263    1.433656
     10          1           0        2.473803    0.000003   -0.433917
     11          1           0        1.407406   -0.885098   -1.584888
     12          1           0        1.407406    0.885127   -1.584877
     13          1           0        1.293375   -1.225344    1.522912
     14          1           0       -0.501310   -1.225286    1.433629
     15          1           0        0.443161   -2.084636    0.191342
     16          1           0       -2.542171    0.821604   -0.206679
     17          1           0       -2.542137   -0.821620   -0.206663
 ---------------------------------------------------------------------

 SCF Done:  E(RB3LYP) =  -285.076378653     A.U. after    1 cycles

 The electronic state is 1-A.
 Alpha  occ. eigenvalues --  -14.42214 -14.30015 -14.26082 -10.21523 -10.21241
 Alpha  occ. eigenvalues --  -10.21240  -0.98399  -0.86172  -0.72594  -0.72259
 Alpha  occ. eigenvalues --   -0.67046  -0.58659  -0.49132  -0.48730  -0.47834
 Alpha  occ. eigenvalues --   -0.44695  -0.42122  -0.40699  -0.38174  -0.38127
 Alpha  occ. eigenvalues --   -0.37744  -0.35834  -0.29909  -0.18277  -0.13065
 Alpha virt. eigenvalues --    0.07616   0.10999   0.12166   0.13544   0.13918
 Alpha virt. eigenvalues --    0.14426   0.15323   0.17094   0.18517   0.18675
 Alpha virt. eigenvalues --    0.18815   0.19156   0.20811   0.21518   0.22449

 Mulliken charges:
               1
     1  C   -0.152103
     2  N   -0.246292
     3  C   -0.138586
     4  C   -0.152103
     5  N   -0.411903
     6  N   -0.486310
     7  H    0.128466
     8  H    0.098427
     9  H    0.147534
    10  H    0.102961
    11  H    0.140444
    12  H    0.140445
    13  H    0.098428
    14  H    0.147534
    15  H    0.128466
    16  H    0.227297
    17  H    0.227296
 Sum of Mulliken charges =  -0.00000

 Dipole moment (field-independent basis, Debye):
    X=              2.2059    Y=             -0.0000    Z=              2.0028  Tot=              2.9795
 Quadrupole moment (field-independent basis, Debye-Ang):
   XX=            -34.6015   YY=            -36.0785   ZZ=            -41.4720
   XY=              0.0000   XZ=             -1.3695   YZ=              0.0000

  Exact polarizability:  68.199  -0.000  53.351   2.647  -0.000  52.374
 Approx polarizability:  92.508  -0.000  72.098   5.999  -0.000  76.220

                      1                      2                      3
                      A                      A                      A
 Frequencies --    167.3512               208.6527               256.3034
 Red. masses --      3.0732                 1.0668                 1.0357
 Frc consts  --      0.0507                 0.0274                 0.0401
 IR Inten    --      3.0027                 0.0455                 1.5595

                      4                      5                      6
                      A                      A                      A
 Frequencies --    277.0728               300.1427               340.6099
 Red. masses --      3.3978                 1.0876                 2.4026
 Frc consts  --      0.1537                 0.0577                 0.1642
 IR Inten    --      3.6026                 1.4377                 3.1825

                      7                      8                      9
                      A                      A                      A
 Frequencies --    347.2888               412.1526               428.9897
 Red. masses --      3.7975                 2.1643                 1.5572
 Frc consts  --      0.2699                 0.2166                 0.1688
 IR Inten    --      9.4643                18.5999                 6.1059

                     10                     11                     12
                      A                      A                      A
 Frequencies --    438.3240               512.2566               590.7588
 Red. masses --      2.3525                 1.6699                 3.0989
 Frc consts  --      0.2663                 0.2582                 0.6372
 IR Inten    --     10.4643                36.4476                47.0993

                     13                     14                     15
                      A                      A                      A
 Frequencies --    771.5544               862.6265               956.5222
 Red. masses --      4.3092                 2.9670                 2.0614
 Frc consts  --      1.5114                 1.3008                 1.1112
 IR Inten    --      4.5791                25.1418                 1.5793

                     16                     17                     18
                      A                      A                      A
 Frequencies --   1006.3929              1067.1186              1083.1108
 Red. masses --      1.8280                 1.1938                 2.2418
 Frc consts  --      1.0908                 0.8009                 1.5495
 IR Inten    --     11.7389                 0.4801                35.7693

                     19                     20                     21
                      A                      A                      A
 Frequencies --   1117.6902              1129.6076              1235.0512
 Red. masses --      1.3763                 1.4393                 1.6356
 Frc consts  --      1.0130                 1.0821                 1.4700
 IR Inten    --      6.9168                 3.3966                 4.8189

                     22                     23                     24
                      A                      A                      A
 Frequencies --   1239.4927              1289.3971              1315.8851
 Red. masses --      1.1582                 2.1605                 2.5559
 Frc consts  --      1.0484                 2.1163                 2.6076
 IR Inten    --      0.1387                 0.0565                 1.7166

                     25                     26                     27
                      A                      A                      A
 Frequencies --   1413.1789              1420.3828              1460.4293
 Red. masses --      1.1661                 1.1634                 1.2014
 Frc consts  --      1.3721                 1.3829                 1.5097
 IR Inten    --      2.2322                 3.2590                 4.5606

                     28                     29                     30
                      A                      A                      A
 Frequencies --   1466.8861              1485.0524              1499.9282
 Red. masses --      1.0498                 1.0460                 1.0655
 Frc consts  --      1.3309                 1.3592                 1.4123
 IR Inten    --      1.8498                 2.2138                15.3835

                     31                     32                     33
                      A                      A                      A
 Frequencies --   1505.2504              1515.1120              1537.0610
 Red. masses --      1.0411                 1.0529                 1.0447
 Frc consts  --      1.3898                 1.4241                 1.4541
 IR Inten    --      2.0406                 9.3857                14.1886

                     34                     35                     36
                      A                      A                      A
 Frequencies --   1685.4255              3039.9729              3050.0014
 Red. masses --      1.0698                 1.0404                 1.0393
 Frc consts  --      1.7905                 5.6650                 5.6965
 IR Inten    --      1.4976                23.3980                58.6364

                     37                     38                     39
                      A                      A                      A
 Frequencies --   3072.9783              3140.6357              3145.4703
 Red. masses --      1.0349                 1.0939                 1.0955
 Frc consts  --      5.7580                 6.3573                 6.3863
 IR Inten    --     35.7505                 6.5470                11.5328

                     40                     41                     42
                      A                      A                      A
 Frequencies --   3166.5452              3178.2461              3181.0890
 Red. masses --      1.1022                 1.1063                 1.1058
 Frc consts  --      6.5116                 6.5839                 6.5929
 IR Inten    --      9.0478                 1.3245                11.4856

                     43                     44                     45
                      A                      A                      A
 Frequencies --   3186.3869              3396.5090              3446.6563
 Red. masses --      1.1050                 1.0432                 1.0996
 Frc consts  --      6.6103                 7.0909                 7.6964
 IR Inten    --      7.9271                41.5863                11.9212

 - Thermochemistry -
 -------------------
 Temperature   298.150 Kelvin.  Pressure   1.00000 Atm.
 Atom     1 has atomic number  6 and mass  12.00000

 Molecular mass:    89.09530 amu.
 Principal axes and moments of inertia in atomic units:
                           1         2         3
     Eigenvalues --   386.85134 637.50158 641.93095
           X            0.99969  -0.02470  -0.00000
           Y           -0.00000  -0.00003   1.00000
           Z            0.02470   0.99969   0.00003
 This molecule is an asymmetric top.
 Rotational symmetry number  1.
 Rotational temperatures (Kelvin)      0.22389     0.13586     0.13493
 Rotational constants (GHZ):           4.66521     2.83096     2.81143
 Zero-point vibrational energy     402827.8 (Joules/Mol)
                                   96.27816 (Kcal/Mol)
 Warning -- explicit consideration of  12 degrees of freedom as
           vibrations may cause significant error
 Vibrational temperatures:    240.78   300.20   368.76   398.65   431.84
          (Kelvin)            490.06   499.67   592.99   617.22   630.65
                              737.02   849.97  1110.09  1241.13  1376.22
                             1447.97  1535.34  1558.35  1608.10  1625.25
                             1776.96  1783.35  1855.15  1893.26  2033.25
                             2043.61  2101.23  2110.52  2136.66  2158.06
                             2165.72  2179.91  2211.49  2424.95  4373.84
                             4388.27  4421.32  4518.67  4525.62  4555.95
                             4572.78  4576.87  4584.49  4886.81  4958.96

 Zero-point correction=                           0.153429 (Hartree/Particle)
 Thermal correction to Energy=                    0.161172
 Thermal correction to Enthalpy=                  0.162116
 Thermal correction to Gibbs Free Energy=         0.123012
 Sum of electronic and zero-point Energies=           -284.922950
 Sum of electronic and thermal Energies=              -284.915207
 Sum of electronic and thermal Enthalpies=            -284.914263
 Sum of electronic and thermal Free Energies=         -284.953367

                     E (Thermal)             CV                S
                      KCal/Mol        Cal/Mol-Kelvin    Cal/Mol-Kelvin
 Total                  101.137             29.106             82.302
 Electronic               0.000              0.000              0.000
 Translational            0.889              2.981             39.374
 Rotational               0.889              2.981             26.562
 Vibrational             99.359             23.144             16.366
 Vibration     1          0.624              1.883              2.465
 Vibration     2          0.642              1.827              2.055
 Vibration     3          0.666              1.752              1.687
 Vibration     4          0.678              1.716              1.552
 Vibration     5          0.693              1.673              1.416
 Vibration     6          0.720              1.594              1.209
 Vibration     7          0.725              1.581              1.178
 Vibration     8          0.776              1.444              0.919
 Vibration     9          0.790              1.407              0.862
 Vibration    10          0.798              1.387              0.832
 Vibration    11          0.867              1.223              0.628
 Vibration    12          0.948              1.051              0.466

 Optimization completed.
    -- Stationary point found.
 Normal termination of Gaussian 09 at Thu Sep  8 14:51:59 2022.
