 Gaussian 09, Revision E.01,
 Gaussian 09:  ES64L-G09RevE.01 30-Nov-2015

 ----------------------------
 #P OPT Freq B3LYP/6-31G(d,p)
 ----------------------------

 --------
 Frag_694
 --------
 Symbolic Z-matrix:
 Charge =  0 Multiplicity = 1

 SCF Done:  E(RB3LYP) =  -263.318897486     A.U. after   14 cycles
 SCF Done:  E(RB3LYP) =  -263.318978898     A.U. after   12 cycles
 SCF Done:  E(RB3LYP) =  -263.318988478     A.U. after   10 cycles
 SCF Done:  E(RB3LYP) =  -263.318992138     A.U. after   11 cycles
 SCF Done:  E(RB3LYP) =  -263.318995603     A.U. after   10 cycles
 SCF Done:  E(RB3LYP) =  -263.318998031     A.U. after   11 cycles
 SCF Done:  E(RB3LYP) =  -263.318998405     A.U. after    9 cycles
 Optimization completed.
    -- Stationary point found.
 Normal termination of Gaussian 09 at Thu Sep  8 15:04:55 2022.

 ----------------------------------------------------------------------
 #P Geom=AllCheck Guess=TCheck SCRF=Check GenChk RB3LYP/6-31G(d,p) Freq
 ----------------------------------------------------------------------

 Structure from the checkpoint file:  "B3LYP6-31Gdp.Frag_694.chk"
 --------
 Frag_694
 --------
 Charge =  0 Multiplicity = 1

                         Standard orientation:
 ---------------------------------------------------------------------
 Center     Atomic      Atomic             Coordinates (Angstroms)
 Number     Number       Type             X           Y           Z
 ---------------------------------------------------------------------
      1          6           0       -1.849394   -0.013805    0.080675
      2          7           0       -0.766048   -0.644884   -0.139906
      3          6           0        0.450452    0.091520   -0.027008
      4          7           0        0.524835    1.357120   -0.052613
      5          8           0        1.510856   -0.744597    0.080980
      6          1           0       -1.869973    1.046263    0.351545
      7          1           0       -2.792854   -0.551511   -0.013419
      8          1           0        1.497953    1.657448    0.018842
      9          1           0        1.160171   -1.647366    0.020818
 ---------------------------------------------------------------------

 SCF Done:  E(RB3LYP) =  -263.318998405     A.U. after    1 cycles

 The electronic state is 1-A.
 Alpha  occ. eigenvalues --  -19.18996 -14.35709 -14.30884 -10.30742 -10.25212
 Alpha  occ. eigenvalues --   -1.08571  -0.94628  -0.87561  -0.67729  -0.58923
 Alpha  occ. eigenvalues --   -0.54718  -0.49960  -0.46668  -0.43517  -0.38646
 Alpha  occ. eigenvalues --   -0.34346  -0.29599  -0.27994  -0.26896
 Alpha virt. eigenvalues --   -0.05676   0.07512   0.08624   0.11627   0.13293
 Alpha virt. eigenvalues --    0.16883   0.23278   0.28123   0.33284   0.42346
 Alpha virt. eigenvalues --    0.50571   0.57261   0.58419   0.59418   0.61081

 Mulliken charges:
               1
     1  C    0.013871
     2  N   -0.407015
     3  C    0.617581
     4  N   -0.552023
     5  O   -0.506060
     6  H    0.143638
     7  H    0.119909
     8  H    0.241048
     9  H    0.329050
 Sum of Mulliken charges =  -0.00000

 Dipole moment (field-independent basis, Debye):
    X=             -0.9764    Y=             -1.1510    Z=              0.4485  Tot=              1.5746
 Quadrupole moment (field-independent basis, Debye-Ang):
   XX=            -24.4024   YY=            -28.7484   ZZ=            -29.5530
   XY=             -0.1684   XZ=             -0.6943   YZ=              0.1914

  Exact polarizability:  50.166   0.946  42.238  -0.944   1.309  16.935
 Approx polarizability:  70.208  -3.405  70.287  -2.132   2.091  24.723

                      1                      2                      3
                      A                      A                      A
 Frequencies --     67.2273               330.8801               482.8328
 Red. masses --      3.5992                 3.1042                 2.3391
 Frc consts  --      0.0096                 0.2002                 0.3213
 IR Inten    --     14.3422                15.6729                10.2364

                      4                      5                      6
                      A                      A                      A
 Frequencies --    514.5071               536.4932               640.7809
 Red. masses --      1.3990                 1.6527                 3.3143
 Frc consts  --      0.2182                 0.2803                 0.8018
 IR Inten    --     93.9272                61.8056                10.7129

                      7                      8                      9
                      A                      A                      A
 Frequencies --    836.1784               859.0426               870.3906
 Red. masses --      2.5906                 1.2601                 2.9464
 Frc consts  --      1.0672                 0.5479                 1.3151
 IR Inten    --     11.7642                51.6302                43.1824

                     10                     11                     12
                      A                      A                      A
 Frequencies --   1102.6119              1109.4416              1227.8451
 Red. masses --      1.7968                 1.6231                 1.3084
 Frc consts  --      1.2870                 1.1771                 1.1622
 IR Inten    --     46.5242                29.8101                33.9021

                     13                     14                     15
                      A                      A                      A
 Frequencies --   1238.5411              1389.1199              1490.4928
 Red. masses --      1.4752                 2.3833                 1.1961
 Frc consts  --      1.3333                 2.7096                 1.5656
 IR Inten    --      9.6867               373.1215                89.5387

                     16                     17                     18
                      A                      A                      A
 Frequencies --   1723.9846              1774.0367              3079.2120
 Red. masses --      6.9606                 7.0165                 1.0561
 Frc consts  --     12.1888                13.0105                 5.8995
 IR Inten    --     76.5876               150.5760                16.2211

                     19                     20                     21
                      A                      A                      A
 Frequencies --   3188.6716              3509.3236              3768.7717
 Red. masses --      1.1179                 1.0749                 1.0647
 Frc consts  --      6.6971                 7.7992                 8.9103
 IR Inten    --     12.9386                 3.0573                65.3671

 - Thermochemistry -
 -------------------
 Temperature   298.150 Kelvin.  Pressure   1.00000 Atm.
 Atom     1 has atomic number  6 and mass  12.00000

 Molecular mass:    72.03236 amu.
 Principal axes and moments of inertia in atomic units:
                           1         2         3
     Eigenvalues --   171.83842 384.38300 551.77797
           X            0.99998   0.00228  -0.00538
           Y           -0.00224   0.99997   0.00791
           Z            0.00539  -0.00790   0.99995
 This molecule is an asymmetric top.
 Rotational symmetry number  1.
 Rotational temperatures (Kelvin)      0.50404     0.22533     0.15697
 Rotational constants (GHZ):          10.50255     4.69516     3.27077
 Zero-point vibrational energy     177887.0 (Joules/Mol)
                                   42.51602 (Kcal/Mol)
 Warning -- explicit consideration of   5 degrees of freedom as
           vibrations may cause significant error
 Vibrational temperatures:     96.72   476.06   694.69   740.26   771.89
          (Kelvin)            921.94  1203.07  1235.97  1252.30  1586.41
                             1596.24  1766.59  1781.98  1998.63  2144.48
                             2480.43  2552.44  4430.29  4587.78  5049.13
                             5422.42

 Zero-point correction=                           0.067754 (Hartree/Particle)
 Thermal correction to Energy=                    0.072843
 Thermal correction to Enthalpy=                  0.073787
 Thermal correction to Gibbs Free Energy=         0.039412
 Sum of electronic and zero-point Energies=           -263.251245
 Sum of electronic and thermal Energies=              -263.246156
 Sum of electronic and thermal Enthalpies=            -263.245211
 Sum of electronic and thermal Free Energies=         -263.279587

                     E (Thermal)             CV                S
                      KCal/Mol        Cal/Mol-Kelvin    Cal/Mol-Kelvin
 Total                   45.710             17.027             72.349
 Electronic               0.000              0.000              0.000
 Translational            0.889              2.981             38.740
 Rotational               0.889              2.981             25.103
 Vibrational             43.932             11.066              8.506
 Vibration     1          0.598              1.970              4.233
 Vibration     2          0.713              1.614              1.256
 Vibration     3          0.839              1.288              0.702
 Vibration     4          0.870              1.218              0.623
 Vibration     5          0.892              1.169              0.573

 Optimization completed.
    -- Stationary point found.
 Normal termination of Gaussian 09 at Thu Sep  8 15:05:01 2022.
