 Gaussian 09, Revision E.01,
 Gaussian 09:  ES64L-G09RevE.01 30-Nov-2015

 ----------------------------
 #P OPT Freq B3LYP/6-31G(d,p)
 ----------------------------

 --------
 Frag_752
 --------
 Symbolic Z-matrix:
 Charge =  0 Multiplicity = 1

 SCF Done:  E(RB3LYP) =  -301.178159071     A.U. after   13 cycles
 SCF Done:  E(RB3LYP) =  -301.178200957     A.U. after   10 cycles
 SCF Done:  E(RB3LYP) =  -301.178203059     A.U. after   10 cycles
 SCF Done:  E(RB3LYP) =  -301.178212496     A.U. after    9 cycles
 SCF Done:  E(RB3LYP) =  -301.178212908     A.U. after    7 cycles
 SCF Done:  E(RB3LYP) =  -301.178212948     A.U. after    6 cycles
 Optimization completed.
    -- Stationary point found.
 Normal termination of Gaussian 09 at Thu Sep  8 14:57:53 2022.

 ----------------------------------------------------------------------
 #P Geom=AllCheck Guess=TCheck SCRF=Check GenChk RB3LYP/6-31G(d,p) Freq
 ----------------------------------------------------------------------

 Structure from the checkpoint file:  "B3LYP6-31Gdp.Frag_752.chk"
 --------
 Frag_752
 --------
 Charge =  0 Multiplicity = 1

                         Standard orientation:
 ---------------------------------------------------------------------
 Center     Atomic      Atomic             Coordinates (Angstroms)
 Number     Number       Type             X           Y           Z
 ---------------------------------------------------------------------
      1          6           0       -1.810474   -0.661708   -0.427032
      2          6           0       -0.648189    0.321346   -0.367146
      3          7           0       -0.730154    1.146748    0.839081
      4          7           0        0.637039   -0.409440   -0.414575
      5          7           0        1.693283    0.654467   -0.446728
      6          7           0        0.775740   -1.164022    0.772070
      7          1           0       -1.821995   -1.279790    0.472032
      8          1           0       -1.707581   -1.310378   -1.300442
      9          1           0       -2.760451   -0.121901   -0.505926
     10          1           0       -0.647192    0.919465   -1.296161
     11          1           0       -0.035338    1.886182    0.781761
     12          1           0       -1.647863    1.574597    0.915694
     13          1           0        2.563546    0.124663   -0.372767
     14          1           0        1.692217    0.966569   -1.422648
     15          1           0        0.899004   -0.544425    1.576860
     16          1           0        1.586272   -1.767084    0.667735
 ---------------------------------------------------------------------

 SCF Done:  E(RB3LYP) =  -301.178212948     A.U. after    1 cycles

 The electronic state is 1-A.
 Alpha  occ. eigenvalues --  -14.36589 -14.33771 -14.33029 -14.30142 -10.22953
 Alpha  occ. eigenvalues --  -10.16226  -0.99219  -0.86839  -0.84353  -0.74679
 Alpha  occ. eigenvalues --   -0.68307  -0.57079  -0.50130  -0.49760  -0.47461
 Alpha  occ. eigenvalues --   -0.45858  -0.44259  -0.41535  -0.36357  -0.35232
 Alpha  occ. eigenvalues --   -0.34727  -0.32310  -0.24698  -0.23108  -0.19954
 Alpha virt. eigenvalues --    0.07007   0.10613   0.11564   0.13247   0.14854
 Alpha virt. eigenvalues --    0.15679   0.16074   0.17586   0.19615   0.20289
 Alpha virt. eigenvalues --    0.20683   0.23274   0.25650   0.27102   0.29055

 Mulliken charges:
               1
     1  C   -0.308498
     2  C    0.215796
     3  N   -0.603806
     4  N   -0.258926
     5  N   -0.470498
     6  N   -0.426557
     7  H    0.138954
     8  H    0.110029
     9  H    0.086583
    10  H    0.065220
    11  H    0.252340
    12  H    0.234594
    13  H    0.231711
    14  H    0.243778
    15  H    0.246155
    16  H    0.243124
 Sum of Mulliken charges =  -0.00000

 Dipole moment (field-independent basis, Debye):
    X=              1.0288    Y=              1.0813    Z=             -0.9131  Tot=              1.7497
 Quadrupole moment (field-independent basis, Debye-Ang):
   XX=            -31.3572   YY=            -37.3668   ZZ=            -38.3301
   XY=             -3.9286   XZ=              0.0064   YZ=             -1.4032

  Exact polarizability:  59.346  -0.754  49.725  -0.713  -2.548  48.372
 Approx polarizability:  74.723  -0.900  68.733  -1.756  -4.397  69.803

                      1                      2                      3
                      A                      A                      A
 Frequencies --    152.1159               164.5771               213.6237
 Red. masses --      2.8425                 1.0901                 1.0472
 Frc consts  --      0.0388                 0.0174                 0.0282
 IR Inten    --      2.5278                39.4477                11.6398

                      4                      5                      6
                      A                      A                      A
 Frequencies --    264.8488               283.8560               313.3386
 Red. masses --      1.7211                 1.7946                 1.9249
 Frc consts  --      0.0711                 0.0852                 0.1113
 IR Inten    --     14.1315                53.5851                12.2360

                      7                      8                      9
                      A                      A                      A
 Frequencies --    384.5045               439.3164               470.3159
 Red. masses --      2.6868                 1.5590                 2.0737
 Frc consts  --      0.2340                 0.1773                 0.2703
 IR Inten    --      3.5054                11.3416                32.3350

                     10                     11                     12
                      A                      A                      A
 Frequencies --    533.1945               657.3297               772.0787
 Red. masses --      3.2385                 2.6413                 3.1708
 Frc consts  --      0.5425                 0.6724                 1.1136
 IR Inten    --     35.7693                17.1968                19.1416

                     13                     14                     15
                      A                      A                      A
 Frequencies --    861.6811               869.3771               916.2439
 Red. masses --      1.5581                 2.1415                 2.3804
 Frc consts  --      0.6816                 0.9536                 1.1774
 IR Inten    --    148.4300                31.4440                72.1492

                     16                     17                     18
                      A                      A                      A
 Frequencies --    963.4908              1014.6062              1085.8245
 Red. masses --      2.3717                 1.6228                 1.6425
 Frc consts  --      1.2972                 0.9843                 1.1410
 IR Inten    --     21.1567                 6.2983                13.9109

                     19                     20                     21
                      A                      A                      A
 Frequencies --   1118.1474              1142.2032              1162.0237
 Red. masses --      1.7589                 1.3934                 1.9067
 Frc consts  --      1.2956                 1.0710                 1.5169
 IR Inten    --     43.3395                37.7124                19.6135

                     22                     23                     24
                      A                      A                      A
 Frequencies --   1268.7330              1339.5710              1365.7174
 Red. masses --      1.2673                 1.2797                 1.6817
 Frc consts  --      1.2019                 1.3530                 1.8481
 IR Inten    --      4.0321                 2.3038                 8.8716

                     25                     26                     27
                      A                      A                      A
 Frequencies --   1387.2747              1409.1289              1443.6190
 Red. masses --      1.2822                 1.2447                 1.5638
 Frc consts  --      1.4539                 1.4561                 1.9202
 IR Inten    --     16.5206                10.3865                21.3212

                     28                     29                     30
                      A                      A                      A
 Frequencies --   1497.0868              1513.9201              1634.1931
 Red. masses --      1.0447                 1.0539                 1.1001
 Frc consts  --      1.3795                 1.4232                 1.7309
 IR Inten    --      2.4925                 1.9826                45.7336

                     31                     32                     33
                      A                      A                      A
 Frequencies --   1644.0327              1649.0230              2945.7298
 Red. masses --      1.0772                 1.0832                 1.0830
 Frc consts  --      1.7154                 1.7354                 5.5368
 IR Inten    --     43.9204                19.7811                85.1415

                     34                     35                     36
                      A                      A                      A
 Frequencies --   3055.4192              3128.4924              3163.0215
 Red. masses --      1.0397                 1.0984                 1.1021
 Frc consts  --      5.7185                 6.3342                 6.4964
 IR Inten    --     25.2586                23.6576                12.0027

                     37                     38                     39
                      A                      A                      A
 Frequencies --   3411.4674              3418.4115              3505.8618
 Red. masses --      1.0526                 1.0506                 1.0892
 Frc consts  --      7.2179                 7.2335                 7.8878
 IR Inten    --      2.8640                 9.5220                 1.4356

                     40                     41                     42
                      A                      A                      A
 Frequencies --   3510.3843              3566.2701              3603.8416
 Red. masses --      1.0489                 1.0904                 1.0937
 Frc consts  --      7.6152                 8.1708                 8.3689
 IR Inten    --      2.0210                 0.4657                 1.4355

 - Thermochemistry -
 -------------------
 Temperature   298.150 Kelvin.  Pressure   1.00000 Atm.
 Atom     1 has atomic number  6 and mass  12.00000

 Molecular mass:    90.09055 amu.
 Principal axes and moments of inertia in atomic units:
                           1         2         3
     Eigenvalues --   373.64524 620.37301 725.03351
           X            0.99992   0.00472   0.01190
           Y           -0.00449   0.99980  -0.01938
           Z           -0.01199   0.01932   0.99974
 This molecule is an asymmetric top.
 Rotational symmetry number  1.
 Rotational temperatures (Kelvin)      0.23181     0.13962     0.11946
 Rotational constants (GHZ):           4.83009     2.90912     2.48918
 Zero-point vibrational energy     378282.5 (Joules/Mol)
                                   90.41169 (Kcal/Mol)
 Warning -- explicit consideration of  10 degrees of freedom as
           vibrations may cause significant error
 Vibrational temperatures:    218.86   236.79   307.36   381.06   408.40
          (Kelvin)            450.82   553.22   632.08   676.68   767.15
                              945.75  1110.85  1239.77  1250.84  1318.27
                             1386.25  1459.79  1562.26  1608.76  1643.37
                             1671.89  1825.42  1927.34  1964.96  1995.98
                             2027.42  2077.04  2153.97  2178.19  2351.24
                             2365.39  2372.57  4238.24  4396.06  4501.20
                             4550.88  4908.33  4918.33  5044.15  5050.65
                             5131.06  5185.12

 Zero-point correction=                           0.144080 (Hartree/Particle)
 Thermal correction to Energy=                    0.151695
 Thermal correction to Enthalpy=                  0.152639
 Thermal correction to Gibbs Free Energy=         0.113456
 Sum of electronic and zero-point Energies=           -301.034133
 Sum of electronic and thermal Energies=              -301.026518
 Sum of electronic and thermal Enthalpies=            -301.025574
 Sum of electronic and thermal Free Energies=         -301.064757

                     E (Thermal)             CV                S
                      KCal/Mol        Cal/Mol-Kelvin    Cal/Mol-Kelvin
 Total                   95.190             28.039             82.468
 Electronic               0.000              0.000              0.000
 Translational            0.889              2.981             39.407
 Rotational               0.889              2.981             26.622
 Vibrational             93.413             22.077             16.439
 Vibration     1          0.619              1.900              2.646
 Vibration     2          0.623              1.886              2.497
 Vibration     3          0.644              1.820              2.012
 Vibration     4          0.671              1.737              1.630
 Vibration     5          0.682              1.704              1.510
 Vibration     6          0.701              1.648              1.345
 Vibration     7          0.753              1.503              1.021
 Vibration     8          0.799              1.384              0.829
 Vibration     9          0.827              1.316              0.737
 Vibration    10          0.888              1.177              0.580

 Optimization completed.
    -- Stationary point found.
 Normal termination of Gaussian 09 at Thu Sep  8 14:58:06 2022.
