 Gaussian 09, Revision D.01,
 Gaussian 09:  ES64L-G09RevD.01 24-Apr-2013

 -------------------------
 #P OPT Freq B3LYP/6-31G**
 -------------------------

 -------
 Frag_88
 -------
 Symbolic Z-matrix:
 Charge =  0 Multiplicity = 1

 SCF Done:  E(RB3LYP) =  -267.949417260     A.U. after   12 cycles
 Optimization completed.
    -- Stationary point found.
 Normal termination of Gaussian 09 at Fri Jul 23 00:23:06 2021.

 ----------------------------------------------------------------------
 #P Geom=AllCheck Guess=TCheck SCRF=Check GenChk RB3LYP/6-31G(d,p) Freq
 ----------------------------------------------------------------------

 Structure from the checkpoint file:  "/vol2/users/liuj201281/HOFBenchmark/IsodesmicSplit/Sample60/Ring26/Running/Gau-191679.chk"
 -------
 Frag_88
 -------
 Charge =  0 Multiplicity = 1

                         Standard orientation:
 ---------------------------------------------------------------------
 Center     Atomic      Atomic             Coordinates (Angstroms)
 Number     Number       Type             X           Y           Z
 ---------------------------------------------------------------------
      1          6           0        1.561831    1.217246   -0.051792
      2          6           0        0.672802    0.008367   -0.006692
      3          7           0        1.349372   -1.251849   -0.017192
      4          6           0       -0.676698   -0.000300   -0.007592
      5          6           0       -1.577769    1.198321    0.060208
      6          7           0       -1.351828   -1.253084    0.022308
      7          1           0        2.165733    1.311032    0.862508
      8          1           0        1.005053    2.146259   -0.180892
      9          1           0        2.267529    1.144829   -0.891492
     10          1           0        0.998757   -1.868541    0.712508
     11          1           0        2.349675   -1.146673    0.106308
     12          1           0       -2.245771    1.129437    0.929408
     13          1           0       -2.220368    1.265136   -0.829692
     14          1           0       -1.027247    2.135608    0.143908
     15          1           0       -0.853344   -1.945196   -0.532992
     16          1           0       -2.303826   -1.179162   -0.320192
 ---------------------------------------------------------------------

 SCF Done:  E(RB3LYP) =  -267.949417260     A.U. after    1 cycles

 The electronic state is 1-A.
 Alpha  occ. eigenvalues --  -14.31687 -14.31497 -10.19018 -10.18817 -10.17655
 Alpha  occ. eigenvalues --  -10.17611  -0.90489  -0.86186  -0.74633  -0.70420
 Alpha  occ. eigenvalues --   -0.64062  -0.51895  -0.50586  -0.46825  -0.45327
 Alpha  occ. eigenvalues --   -0.41810  -0.40012  -0.39022  -0.37802  -0.36526
 Alpha  occ. eigenvalues --   -0.36051  -0.30422  -0.26784  -0.15999
 Alpha virt. eigenvalues --    0.06422   0.08172   0.11530   0.12574   0.14957
 Alpha virt. eigenvalues --    0.15268   0.15891   0.17085   0.17747   0.20295
 Alpha virt. eigenvalues --    0.23335   0.25611   0.26691   0.27277   0.38836

 Mulliken charges:
               1
     1  C   -0.374273
     2  C    0.200294
     3  N   -0.658754
     4  C    0.213681
     5  C   -0.373274
     6  N   -0.651056
     7  H    0.103126
     8  H    0.109178
     9  H    0.110107
    10  H    0.255012
    11  H    0.242293
    12  H    0.116246
    13  H    0.101911
    14  H    0.109909
    15  H    0.255680
    16  H    0.239921
 Sum of Mulliken charges =   0.00000

 Dipole moment (field-independent basis, Debye):
    X=              0.1994    Y=              0.1811    Z=             -0.0380  Tot=              0.2720
 Quadrupole moment (field-independent basis, Debye-Ang):
   XX=            -32.7053   YY=            -36.6673   ZZ=            -39.8408
   XY=             -0.3338   XZ=              3.3541   YZ=             -0.0825

  Exact polarizability:  81.543   0.318  58.651   1.002  -0.181  38.126
 Approx polarizability: 119.399   0.714  77.565  -0.250  -0.454  54.272

                      1                      2                      3
                      A                      A                      A
 Frequencies --     29.4775               159.5005               177.8806
 Red. masses --      1.0852                 1.0509                 2.0180
 Frc consts  --      0.0006                 0.0158                 0.0376
 IR Inten    --     25.4903                 1.9646                 0.9304

                      4                      5                      6
                      A                      A                      A
 Frequencies --    192.4212               279.2951               324.3558
 Red. masses --      1.2299                 3.2228                 2.5795
 Frc consts  --      0.0268                 0.1481                 0.1599
 IR Inten    --      0.3843                 0.5645                15.0010

                      7                      8                      9
                      A                      A                      A
 Frequencies --    372.0955               426.1033               434.3074
 Red. masses --      2.4387                 2.0654                 1.1809
 Frc consts  --      0.1989                 0.2209                 0.1312
 IR Inten    --      1.1380                 5.7399                 4.8464

                     10                     11                     12
                      A                      A                      A
 Frequencies --    543.3563               575.8216               722.2068
 Red. masses --      3.6099                 3.4067                 3.9684
 Frc consts  --      0.6279                 0.6655                 1.2195
 IR Inten    --      7.4142                16.6062                10.1984

                     13                     14                     15
                      A                      A                      A
 Frequencies --    758.9280               853.1049               964.1101
 Red. masses --      1.4083                 1.2950                 1.9357
 Frc consts  --      0.4779                 0.5553                 1.0601
 IR Inten    --    246.0928               208.5941                 5.3467

                     16                     17                     18
                      A                      A                      A
 Frequencies --   1017.6994              1036.0191              1065.6925
 Red. masses --      1.3172                 1.4245                 1.4661
 Frc consts  --      0.8038                 0.9008                 0.9810
 IR Inten    --      0.6709                 3.1930                 2.9787

                     19                     20                     21
                      A                      A                      A
 Frequencies --   1071.9113              1153.4758              1274.1697
 Red. masses --      1.4689                 1.3885                 2.7480
 Frc consts  --      0.9944                 1.0885                 2.6286
 IR Inten    --      2.0244                 0.2212                51.3535

                     22                     23                     24
                      A                      A                      A
 Frequencies --   1278.9176              1363.9487              1429.8838
 Red. masses --      2.7937                 1.8311                 1.5731
 Frc consts  --      2.6923                 2.0070                 1.8949
 IR Inten    --     50.4919                 4.9922                 6.9200

                     25                     26                     27
                      A                      A                      A
 Frequencies --   1441.6143              1488.6274              1494.3742
 Red. masses --      1.2778                 1.0455                 1.0440
 Frc consts  --      1.5646                 1.3650                 1.3736
 IR Inten    --      3.5196                 0.7235                 9.1659

                     28                     29                     30
                      A                      A                      A
 Frequencies --   1508.5969              1517.0418              1644.8204
 Red. masses --      1.0482                 1.0672                 1.1396
 Frc consts  --      1.4055                 1.4471                 1.8165
 IR Inten    --      1.0625                13.5378                54.6558

                     31                     32                     33
                      A                      A                      A
 Frequencies --   1669.5374              1779.0999              3005.5222
 Red. masses --      1.1006                 6.2591                 1.0436
 Frc consts  --      1.8074                11.6725                 5.5542
 IR Inten    --     31.0234                11.3480               104.3223

                     34                     35                     36
                      A                      A                      A
 Frequencies --   3011.1344              3044.7686              3052.7777
 Red. masses --      1.0458                 1.0997                 1.0977
 Frc consts  --      5.5868                 6.0065                 6.0275
 IR Inten    --     34.7188                36.2877                35.2705

                     37                     38                     39
                      A                      A                      A
 Frequencies --   3144.0749              3158.8711              3485.7992
 Red. masses --      1.0944                 1.0913                 1.0513
 Frc consts  --      6.3741                 6.4159                 7.5266
 IR Inten    --     16.4975                25.2344                 6.4683

                     40                     41                     42
                      A                      A                      A
 Frequencies --   3493.4741              3600.1758              3611.7213
 Red. masses --      1.0516                 1.0935                 1.0913
 Frc consts  --      7.5616                 8.3505                 8.3874
 IR Inten    --      0.2942                 5.0434                 5.0663

 - Thermochemistry -
 -------------------
 Temperature   298.150 Kelvin.  Pressure   1.00000 Atm.
 Atom     1 has atomic number  6 and mass  12.00000

 Molecular mass:    86.08440 amu.
 Principal axes and moments of inertia in atomic units:
                           1         2         3
     Eigenvalues --   386.56017 571.44904 928.32353
           X            0.99995  -0.00242   0.00932
           Y            0.00242   1.00000  -0.00010
           Z           -0.00932   0.00012   0.99996
 This molecule is an asymmetric top.
 Rotational symmetry number  1.
 Rotational temperatures (Kelvin)      0.22406     0.15157     0.09330
 Rotational constants (GHZ):           4.66872     3.15818     1.94409
 Zero-point vibrational energy     374770.4 (Joules/Mol)
                                   89.57227 (Kcal/Mol)
 Warning -- explicit consideration of  11 degrees of freedom as
           vibrations may cause significant error
 Vibrational temperatures:     42.41   229.49   255.93   276.85   401.84
          (Kelvin)            466.68   535.36   613.07   624.87   781.77
                              828.48  1039.09  1091.93  1227.43  1387.14
                             1464.24  1490.60  1533.29  1542.24  1659.59
                             1833.24  1840.07  1962.42  2057.28  2074.16
                             2141.80  2150.07  2170.53  2182.68  2366.53
                             2402.09  2559.72  4324.27  4332.35  4380.74
                             4392.26  4523.62  4544.91  5015.28  5026.32
                             5179.84  5196.45

 Zero-point correction=                           0.142742 (Hartree/Particle)
 Thermal correction to Energy=                    0.150871
 Thermal correction to Enthalpy=                  0.151816
 Thermal correction to Gibbs Free Energy=         0.110448
 Sum of electronic and zero-point Energies=           -267.806675
 Sum of electronic and thermal Energies=              -267.798546
 Sum of electronic and thermal Enthalpies=            -267.797602
 Sum of electronic and thermal Free Energies=         -267.838969

                     E (Thermal)             CV                S
                      KCal/Mol        Cal/Mol-Kelvin    Cal/Mol-Kelvin
 Total                   94.673             28.555             87.065
 Electronic               0.000              0.000              0.000
 Translational            0.889              2.981             39.271
 Rotational               0.889              2.981             26.819
 Vibrational             92.896             22.593             20.974
 Vibration     1          0.593              1.984              5.864
 Vibration     2          0.621              1.892              2.556
 Vibration     3          0.628              1.870              2.351
 Vibration     4          0.634              1.850              2.204
 Vibration     5          0.680              1.712              1.538
 Vibration     6          0.709              1.627              1.288
 Vibration     7          0.744              1.529              1.071
 Vibration     8          0.788              1.413              0.871
 Vibration     9          0.795              1.395              0.845
 Vibration    10          0.898              1.154              0.558
 Vibration    11          0.932              1.084              0.493

 Normal termination of Gaussian 09 at Fri Jul 23 00:23:21 2021.
