 Gaussian 09, Revision E.01,
 Gaussian 09:  ES64L-G09RevE.01 30-Nov-2015

 --------------------------------
 #P OPT=calcfc Freq B3LYP/6-31G**
 --------------------------------

 --------
 Frag_304
 --------
 Symbolic Z-matrix:
 Charge =  0 Multiplicity = 1

 SCF Done:  E(RB3LYP) =  -244.624449277     A.U. after   13 cycles
 SCF Done:  E(RB3LYP) =  -244.648008684     A.U. after   13 cycles
 SCF Done:  E(RB3LYP) =  -244.617038698     A.U. after   13 cycles
 SCF Done:  E(RB3LYP) =  -244.648507221     A.U. after    9 cycles
 SCF Done:  E(RB3LYP) =  -244.652068862     A.U. after   13 cycles
 SCF Done:  E(RB3LYP) =  -244.656425095     A.U. after   12 cycles
 SCF Done:  E(RB3LYP) =  -244.655989086     A.U. after   12 cycles
 SCF Done:  E(RB3LYP) =  -244.657425839     A.U. after   10 cycles
 SCF Done:  E(RB3LYP) =  -244.659560089     A.U. after   14 cycles
 SCF Done:  E(RB3LYP) =  -244.663849517     A.U. after   14 cycles
 SCF Done:  E(RB3LYP) =  -244.650856587     A.U. after   13 cycles
 SCF Done:  E(RB3LYP) =  -244.666230759     A.U. after    9 cycles
 SCF Done:  E(RB3LYP) =  -244.667445685     A.U. after   11 cycles
 SCF Done:  E(RB3LYP) =  -244.668320262     A.U. after   11 cycles
 SCF Done:  E(RB3LYP) =  -244.668792268     A.U. after   11 cycles
 SCF Done:  E(RB3LYP) =  -244.669014793     A.U. after   10 cycles
 SCF Done:  E(RB3LYP) =  -244.669059318     A.U. after   10 cycles
 SCF Done:  E(RB3LYP) =  -244.669078649     A.U. after   10 cycles
 SCF Done:  E(RB3LYP) =  -244.669081294     A.U. after    8 cycles
 Optimization completed.
    -- Stationary point found.
 Normal termination of Gaussian 09 at Fri Sep 10 15:21:59 2021.

 ----------------------------------------------------------------------
 #P Geom=AllCheck Guess=TCheck SCRF=Check GenChk RB3LYP/6-31G(d,p) Freq
 ----------------------------------------------------------------------

 Structure from the checkpoint file:  "/public/home/users/caep010/.cache/gau_scr/Gau-139588.chk"
 --------
 Frag_304
 --------
 Charge =  0 Multiplicity = 1

                         Standard orientation:
 ---------------------------------------------------------------------
 Center     Atomic      Atomic             Coordinates (Angstroms)
 Number     Number       Type             X           Y           Z
 ---------------------------------------------------------------------
      1          7           0       -1.936632    0.024245   -0.030163
      2          6           0       -0.703438   -0.710982    0.029781
      3          6           0        0.466968   -0.036701    0.008323
      4          7           0        1.726150   -0.647009   -0.099679
      5          7           0        0.538500    1.356276    0.090578
      6          1           0       -2.490874   -0.109381    0.813081
      7          1           0       -2.516842   -0.284166   -0.807691
      8          1           0       -0.699285   -1.799770    0.098433
      9          1           0        1.675102   -1.657208   -0.045183
     10          1           0        2.383225   -0.287867    0.586263
     11          1           0        1.169741    1.748719   -0.600883
     12          1           0       -0.398368    1.741182    0.002205
 ---------------------------------------------------------------------

 SCF Done:  E(RB3LYP) =  -244.669081294     A.U. after    1 cycles

 The electronic state is 1-A.
 Alpha  occ. eigenvalues --  -14.32757 -14.31561 -14.31010 -10.22951 -10.16577
 Alpha  occ. eigenvalues --   -0.93133  -0.86370  -0.84367  -0.67903  -0.55844
 Alpha  occ. eigenvalues --   -0.50662  -0.49564  -0.46336  -0.43336  -0.41181
 Alpha  occ. eigenvalues --   -0.40440  -0.34180  -0.25089  -0.23735  -0.17839
 Alpha virt. eigenvalues --    0.07067   0.08854   0.09612   0.13622   0.14693
 Alpha virt. eigenvalues --    0.16923   0.17298   0.20674   0.25743   0.29870
 Alpha virt. eigenvalues --    0.40371   0.43801   0.56747   0.57712   0.61643

 Mulliken charges:
               1
     1  N   -0.635963
     2  C   -0.088542
     3  C    0.449699
     4  N   -0.639587
     5  N   -0.640005
     6  H    0.243820
     7  H    0.241006
     8  H    0.040529
     9  H    0.251685
    10  H    0.255540
    11  H    0.249141
    12  H    0.272678
 Sum of Mulliken charges =   0.00000

 Dipole moment (field-independent basis, Debye):
    X=             -0.0982    Y=             -0.8693    Z=              0.0888  Tot=              0.8793
 Quadrupole moment (field-independent basis, Debye-Ang):
   XX=            -24.9318   YY=            -27.8414   ZZ=            -31.6672
   XY=              0.3807   XZ=              1.3431   YZ=             -2.4395

  Exact polarizability:  59.929   4.611  45.609   0.012  -0.336  25.343
 Approx polarizability:  84.848  11.460  64.752  -0.634   0.830  35.941

                      1                      2                      3
                      A                      A                      A
 Frequencies --    212.5384               273.8962               299.4996
 Red. masses --      1.6061                 2.1802                 1.7370
 Frc consts  --      0.0427                 0.0964                 0.0918
 IR Inten    --     28.4845                 3.3689                 6.2533

                      4                      5                      6
                      A                      A                      A
 Frequencies --    373.7755               442.8724               452.0983
 Red. masses --      1.1841                 1.5677                 1.5769
 Frc consts  --      0.0975                 0.1812                 0.1899
 IR Inten    --     34.7016                28.3831                27.3462

                      7                      8                      9
                      A                      A                      A
 Frequencies --    570.3744               613.6774               696.3108
 Red. masses --      2.4695                 3.2944                 1.2132
 Frc consts  --      0.4733                 0.7310                 0.3466
 IR Inten    --     44.4835                44.6936                71.9169

                     10                     11                     12
                      A                      A                      A
 Frequencies --    793.9115               844.2937               861.5375
 Red. masses --      1.5430                 1.4830                 1.3537
 Frc consts  --      0.5730                 0.6228                 0.5920
 IR Inten    --    262.6736                60.0986               297.3013

                     13                     14                     15
                      A                      A                      A
 Frequencies --    938.7385              1096.6601              1155.7603
 Red. masses --      3.2224                 2.5555                 1.3701
 Frc consts  --      1.6731                 1.8108                 1.0783
 IR Inten    --     14.2501                19.1878                10.4026

                     16                     17                     18
                      A                      A                      A
 Frequencies --   1200.4499              1204.0178              1345.7700
 Red. masses --      1.3831                 1.2062                 1.8434
 Frc consts  --      1.1743                 1.0303                 1.9670
 IR Inten    --      3.4515                 0.9754                59.0601

                     19                     20                     21
                      A                      A                      A
 Frequencies --   1443.7946              1625.8834              1640.0803
 Red. masses --      2.3614                 1.2185                 1.1740
 Frc consts  --      2.9002                 1.8979                 1.8606
 IR Inten    --     21.4659                17.5835                94.7354

                     22                     23                     24
                      A                      A                      A
 Frequencies --   1659.4643              1770.4103              3115.6402
 Red. masses --      1.1229                 3.8988                 1.0883
 Frc consts  --      1.8219                 7.1999                 6.2243
 IR Inten    --      7.3251               120.8748                53.5752

                     25                     26                     27
                      A                      A                      A
 Frequencies --   3471.5249              3501.2225              3520.8846
 Red. masses --      1.0478                 1.0472                 1.0495
 Frc consts  --      7.4399                 7.5637                 7.6653
 IR Inten    --      5.7827                16.9341                 1.9143

                     28                     29                     30
                      A                      A                      A
 Frequencies --   3534.9802              3607.7053              3633.0577
 Red. masses --      1.0935                 1.0960                 1.0942
 Frc consts  --      8.0512                 8.4050                 8.5091
 IR Inten    --      0.1282                15.9743                 4.5512

 - Thermochemistry -
 -------------------
 Temperature   298.150 Kelvin.  Pressure   1.00000 Atm.
 Atom     1 has atomic number  7 and mass  14.00307

 Molecular mass:    73.06400 amu.
 Principal axes and moments of inertia in atomic units:
                           1         2         3
     Eigenvalues --   187.02785 472.68107 643.33145
           X            0.99999   0.00197   0.00429
           Y           -0.00186   0.99970  -0.02446
           Z           -0.00434   0.02445   0.99969
 This molecule is an asymmetric top.
 Rotational symmetry number  1.
 Rotational temperatures (Kelvin)      0.46311     0.18324     0.13463
 Rotational constants (GHZ):           9.64959     3.81809     2.80531
 Zero-point vibrational energy     274547.9 (Joules/Mol)
                                   65.61853 (Kcal/Mol)
 Warning -- explicit consideration of   8 degrees of freedom as
           vibrations may cause significant error
 Vibrational temperatures:    305.80   394.08   430.91   537.78   637.19
          (Kelvin)            650.47   820.64   882.94  1001.83  1142.26
                             1214.75  1239.56  1350.63  1577.85  1662.88
                             1727.18  1732.31  1936.26  2077.30  2339.28
                             2359.71  2387.60  2547.22  4482.71  4994.74
                             5037.47  5065.76  5086.04  5190.68  5227.15

 Zero-point correction=                           0.104570 (Hartree/Particle)
 Thermal correction to Energy=                    0.110489
 Thermal correction to Enthalpy=                  0.111433
 Thermal correction to Gibbs Free Energy=         0.076190
 Sum of electronic and zero-point Energies=           -244.564512
 Sum of electronic and thermal Energies=              -244.558592
 Sum of electronic and thermal Enthalpies=            -244.557648
 Sum of electronic and thermal Free Energies=         -244.592892

                     E (Thermal)             CV                S
                      KCal/Mol        Cal/Mol-Kelvin    Cal/Mol-Kelvin
 Total                   69.333             21.926             74.177
 Electronic               0.000              0.000              0.000
 Translational            0.889              2.981             38.783
 Rotational               0.889              2.981             25.545
 Vibrational             67.556             15.964              9.849
 Vibration     1          0.644              1.822              2.022
 Vibration     2          0.676              1.722              1.571
 Vibration     3          0.692              1.675              1.420
 Vibration     4          0.745              1.526              1.064
 Vibration     5          0.803              1.377              0.818
 Vibration     6          0.811              1.356              0.789
 Vibration     7          0.926              1.095              0.504
 Vibration     8          0.973              1.003              0.427

 Optimization completed.
    -- Stationary point found.
 Normal termination of Gaussian 09 at Fri Sep 10 15:22:08 2021.
