 Gaussian 09, Revision E.01,
 Gaussian 09:  ES64L-G09RevE.01 30-Nov-2015

 --------------------------------
 #P OPT=calcfc Freq B3LYP/6-31G**
 --------------------------------

 --------
 Frag_300
 --------
 Symbolic Z-matrix:
 Charge =  0 Multiplicity = 1

 SCF Done:  E(RB3LYP) =  -229.853876898     A.U. after   12 cycles
 SCF Done:  E(RB3LYP) =  -229.858129429     A.U. after   11 cycles
 SCF Done:  E(RB3LYP) =  -229.858250062     A.U. after   10 cycles
 SCF Done:  E(RB3LYP) =  -229.858251397     A.U. after    7 cycles
 Optimization completed.
    -- Stationary point found.
 Normal termination of Gaussian 09 at Fri Sep 10 21:18:33 2021.

 ----------------------------------------------------------------------
 #P Geom=AllCheck Guess=TCheck SCRF=Check GenChk RB3LYP/6-31G(d,p) Freq
 ----------------------------------------------------------------------

 Structure from the checkpoint file:  "/public/home/users/caep010/.cache/gau_scr/Gau-130826.chk"
 --------
 Frag_300
 --------
 Charge =  0 Multiplicity = 1

                         Standard orientation:
 ---------------------------------------------------------------------
 Center     Atomic      Atomic             Coordinates (Angstroms)
 Number     Number       Type             X           Y           Z
 ---------------------------------------------------------------------
      1          6           0       -1.059637    1.089361   -0.113168
      2          6           0        0.002378   -0.019365   -0.009473
      3          6           0        1.409450    0.560662   -0.206390
      4          7           0       -0.248846   -0.980510   -1.085007
      5          7           0       -0.010872   -0.706344    1.304583
      6          1           0       -2.065139    0.674712    0.032252
      7          1           0       -0.900081    1.853084    0.654953
      8          1           0       -1.032458    1.571852   -1.094578
      9          1           0        1.641086    1.302672    0.565691
     10          1           0        1.486296    1.039280   -1.185234
     11          1           0        2.156804   -0.235984   -0.143646
     12          1           0       -1.203550   -1.330156   -1.013029
     13          1           0        0.355240   -1.786759   -0.931883
     14          1           0       -0.960488   -1.018405    1.507883
     15          1           0        0.227169   -0.046266    2.044740
 ---------------------------------------------------------------------

 SCF Done:  E(RB3LYP) =  -229.858251397     A.U. after    1 cycles

 The electronic state is 1-A.
 Alpha  occ. eigenvalues --  -14.30659 -14.30393 -10.23957 -10.17234 -10.16708
 Alpha  occ. eigenvalues --   -0.91341  -0.82686  -0.73104  -0.68586  -0.55811
 Alpha  occ. eigenvalues --   -0.48734  -0.47004  -0.46075  -0.42572  -0.39094
 Alpha  occ. eigenvalues --   -0.37479  -0.36603  -0.35290  -0.33364  -0.24525
 Alpha  occ. eigenvalues --   -0.23077
 Alpha virt. eigenvalues --    0.06471   0.11964   0.12541   0.14199   0.15707
 Alpha virt. eigenvalues --    0.16401   0.16702   0.18965   0.20897   0.21957
 Alpha virt. eigenvalues --    0.22625   0.25493   0.26536   0.27942   0.51368

 Mulliken charges:
               1
     1  C   -0.297370
     2  C    0.219372
     3  C   -0.284653
     4  N   -0.569910
     5  N   -0.581410
     6  H    0.084193
     7  H    0.093433
     8  H    0.116665
     9  H    0.088170
    10  H    0.114518
    11  H    0.108035
    12  H    0.223921
    13  H    0.238753
    14  H    0.219429
    15  H    0.226854
 Sum of Mulliken charges =   0.00000

 Dipole moment (field-independent basis, Debye):
    X=             -1.0533    Y=              0.3473    Z=              1.1632  Tot=              1.6072
 Quadrupole moment (field-independent basis, Debye-Ang):
   XX=            -31.2266   YY=            -32.1142   ZZ=            -34.7494
   XY=              1.9945   XZ=             -1.1821   YZ=              1.6577

  Exact polarizability:  48.890   1.435  47.240   0.160   1.267  47.185
 Approx polarizability:  64.455   2.420  63.132   0.970   2.136  65.552

                      1                      2                      3
                      A                      A                      A
 Frequencies --    226.5539               268.4248               290.5210
 Red. masses --      1.0221                 1.0661                 1.0531
 Frc consts  --      0.0309                 0.0453                 0.0524
 IR Inten    --     10.2913                 7.8998                15.9539

                      4                      5                      6
                      A                      A                      A
 Frequencies --    313.2207               351.3806               363.1461
 Red. masses --      1.1802                 1.8583                 2.4733
 Frc consts  --      0.0682                 0.1352                 0.1922
 IR Inten    --     31.8567                18.6180                 5.7055

                      7                      8                      9
                      A                      A                      A
 Frequencies --    443.3489               475.9862               478.8698
 Red. masses --      2.3025                 2.4830                 2.3869
 Frc consts  --      0.2666                 0.3314                 0.3225
 IR Inten    --      0.4450                23.9268                17.0270

                     10                     11                     12
                      A                      A                      A
 Frequencies --    760.6336               891.7874               892.9526
 Red. masses --      4.0278                 1.7404                 1.7181
 Frc consts  --      1.3730                 0.8155                 0.8072
 IR Inten    --      4.5053               122.3560               145.0240

                     13                     14                     15
                      A                      A                      A
 Frequencies --    930.1129               936.8762               997.7780
 Red. masses --      1.6283                 1.5231                 1.3655
 Frc consts  --      0.8300                 0.7876                 0.8010
 IR Inten    --      0.3496                13.0565                11.5943

                     16                     17                     18
                      A                      A                      A
 Frequencies --   1015.8321              1062.8747              1154.4991
 Red. masses --      1.3575                 1.4471                 1.3683
 Frc consts  --      0.8254                 0.9632                 1.0745
 IR Inten    --      7.1088                25.3507                13.0496

                     19                     20                     21
                      A                      A                      A
 Frequencies --   1231.7655              1321.0685              1380.5312
 Red. masses --      2.5201                 2.0925                 1.5814
 Frc consts  --      2.2528                 2.1516                 1.7757
 IR Inten    --     60.6993                29.5266                 3.6705

                     22                     23                     24
                      A                      A                      A
 Frequencies --   1417.5665              1429.2528              1494.4073
 Red. masses --      1.4693                 1.2943                 1.0473
 Frc consts  --      1.7396                 1.5578                 1.3780
 IR Inten    --     16.7031                10.3970                 0.0974

                     25                     26                     27
                      A                      A                      A
 Frequencies --   1501.0490              1511.9987              1520.7922
 Red. masses --      1.0613                 1.0550                 1.0657
 Frc consts  --      1.4089                 1.4210                 1.4522
 IR Inten    --      0.2682                 0.8827                 3.6678

                     28                     29                     30
                      A                      A                      A
 Frequencies --   1658.3212              1674.0251              3032.3274
 Red. masses --      1.1012                 1.0968                 1.0381
 Frc consts  --      1.7843                 1.8109                 5.6241
 IR Inten    --     26.4758                24.7460                27.3693

                     31                     32                     33
                      A                      A                      A
 Frequencies --   3049.1093              3101.2444              3117.6504
 Red. masses --      1.0373                 1.0988                 1.1010
 Frc consts  --      5.6818                 6.2262                 6.3054
 IR Inten    --     14.8467                33.1737                24.0839

                     34                     35                     36
                      A                      A                      A
 Frequencies --   3125.8146              3145.0296              3454.0045
 Red. masses --      1.1029                 1.1025                 1.0494
 Frc consts  --      6.3489                 6.4254                 7.3759
 IR Inten    --     27.5610                25.4914                 5.1029

                     37                     38                     39
                      A                      A                      A
 Frequencies --   3469.6598              3540.9815              3553.5096
 Red. masses --      1.0495                 1.0918                 1.0915
 Frc consts  --      7.4439                 8.0657                 8.1204
 IR Inten    --      2.4155                 3.1039                 1.0178

 - Thermochemistry -
 -------------------
 Temperature   298.150 Kelvin.  Pressure   1.00000 Atm.
 Atom     1 has atomic number  6 and mass  12.00000

 Molecular mass:    74.08440 amu.
 Principal axes and moments of inertia in atomic units:
                           1         2         3
     Eigenvalues --   379.57908 390.41619 394.78706
           X            0.96652   0.21018  -0.14718
           Y           -0.15866   0.94035   0.30096
           Z            0.20166  -0.26753   0.94221
 This molecule is an asymmetric top.
 Rotational symmetry number  1.
 Rotational temperatures (Kelvin)      0.22818     0.22185     0.21939
 Rotational constants (GHZ):           4.75459     4.62261     4.57143
 Zero-point vibrational energy     362378.2 (Joules/Mol)
                                   86.61047 (Kcal/Mol)
 Warning -- explicit consideration of   9 degrees of freedom as
           vibrations may cause significant error
 Vibrational temperatures:    325.96   386.20   417.99   450.65   505.56
          (Kelvin)            522.49   637.88   684.84   688.99  1094.38
                             1283.08  1284.76  1338.22  1347.95  1435.58
                             1461.55  1529.24  1661.06  1772.23  1900.72
                             1986.27  2039.56  2056.37  2150.12  2159.67
                             2175.43  2188.08  2385.95  2408.55  4362.84
                             4386.98  4461.99  4485.60  4497.34  4524.99
                             4969.54  4992.06  5094.68  5112.70

 Zero-point correction=                           0.138023 (Hartree/Particle)
 Thermal correction to Energy=                    0.144620
 Thermal correction to Enthalpy=                  0.145564
 Thermal correction to Gibbs Free Energy=         0.109219
 Sum of electronic and zero-point Energies=           -229.720229
 Sum of electronic and thermal Energies=              -229.713632
 Sum of electronic and thermal Enthalpies=            -229.712687
 Sum of electronic and thermal Free Energies=         -229.749032

                     E (Thermal)             CV                S
                      KCal/Mol        Cal/Mol-Kelvin    Cal/Mol-Kelvin
 Total                   90.750             24.878             76.494
 Electronic               0.000              0.000              0.000
 Translational            0.889              2.981             38.824
 Rotational               0.889              2.981             25.573
 Vibrational             88.973             18.916             12.097
 Vibration     1          0.650              1.801              1.906
 Vibration     2          0.673              1.731              1.606
 Vibration     3          0.686              1.691              1.471
 Vibration     4          0.701              1.648              1.345
 Vibration     5          0.728              1.572              1.160
 Vibration     6          0.737              1.548              1.109
 Vibration     7          0.803              1.376              0.816
 Vibration     8          0.833              1.303              0.721
 Vibration     9          0.835              1.297              0.713

 Optimization completed.
    -- Stationary point found.
 Normal termination of Gaussian 09 at Fri Sep 10 21:18:45 2021.
