 Gaussian 09, Revision E.01,
 Gaussian 09:  ES64L-G09RevE.01 30-Nov-2015

 ----------------------------
 #P OPT Freq B3LYP/6-31G(d,p)
 ----------------------------

 --------
 Frag_778
 --------
 Symbolic Z-matrix:
 Charge =  0 Multiplicity = 1

 SCF Done:  E(RB3LYP) =  -228.563468228     A.U. after   14 cycles
 SCF Done:  E(RB3LYP) =  -228.563534828     A.U. after    9 cycles
 SCF Done:  E(RB3LYP) =  -228.563538299     A.U. after    8 cycles
 SCF Done:  E(RB3LYP) =  -228.563539202     A.U. after    8 cycles
 SCF Done:  E(RB3LYP) =  -228.563539515     A.U. after    8 cycles
 Optimization completed.
    -- Stationary point found.
 Normal termination of Gaussian 09 at Thu Sep  8 14:55:45 2022.

 ----------------------------------------------------------------------
 #P Geom=AllCheck Guess=TCheck SCRF=Check GenChk RB3LYP/6-31G(d,p) Freq
 ----------------------------------------------------------------------

 Structure from the checkpoint file:  "B3LYP6-31Gdp.Frag_778.chk"
 --------
 Frag_778
 --------
 Charge =  0 Multiplicity = 1

                         Standard orientation:
 ---------------------------------------------------------------------
 Center     Atomic      Atomic             Coordinates (Angstroms)
 Number     Number       Type             X           Y           Z
 ---------------------------------------------------------------------
      1          6           0       -1.470116   -0.905501   -0.222951
      2          7           0       -0.623242    0.057394    0.091722
      3          7           0       -0.891494    1.336900   -0.053610
      4          6           0        0.720489   -0.352782    0.599798
      5          6           0        1.820287   -0.055139   -0.415318
      6          1           0       -2.434649   -0.619776   -0.614437
      7          1           0       -1.174098   -1.932701   -0.089802
      8          1           0       -0.075398    1.841525    0.301468
      9          1           0        0.875406    0.202391    1.529854
     10          1           0        0.685817   -1.416213    0.841425
     11          1           0        2.789823   -0.355233   -0.007044
     12          1           0        1.864808    1.009759   -0.655492
     13          1           0        1.647486   -0.609275   -1.341927
 ---------------------------------------------------------------------

 SCF Done:  E(RB3LYP) =  -228.563539515     A.U. after    1 cycles

 The electronic state is 1-A.
 Alpha  occ. eigenvalues --  -14.44462 -14.29960 -10.24323 -10.19938 -10.19383
 Alpha  occ. eigenvalues --   -1.02366  -0.80329  -0.77444  -0.66658  -0.57364
 Alpha  occ. eigenvalues --   -0.52358  -0.48649  -0.46674  -0.44124  -0.40961
 Alpha  occ. eigenvalues --   -0.39331  -0.37143  -0.35912  -0.25967  -0.17736
 Alpha virt. eigenvalues --   -0.00228   0.07325   0.11208   0.12213   0.13913
 Alpha virt. eigenvalues --    0.14279   0.16540   0.17483   0.19484   0.20293
 Alpha virt. eigenvalues --    0.22196   0.29669   0.34637   0.48280   0.51317

 Mulliken charges:
               1
     1  C   -0.134481
     2  N   -0.086973
     3  N   -0.439668
     4  C   -0.091118
     5  C   -0.312983
     6  H    0.122637
     7  H    0.103521
     8  H    0.211845
     9  H    0.131356
    10  H    0.120630
    11  H    0.117721
    12  H    0.126944
    13  H    0.130568
 Sum of Mulliken charges =  -0.00000

 Dipole moment (field-independent basis, Debye):
    X=              2.8529    Y=             -1.9986    Z=              0.9435  Tot=              3.6089
 Quadrupole moment (field-independent basis, Debye-Ang):
   XX=            -32.4373   YY=            -32.3865   ZZ=            -32.3308
   XY=              3.7253   XZ=              0.7429   YZ=              1.0043

  Exact polarizability:  52.927   7.459  61.176   5.247   2.146  33.430
 Approx polarizability:  68.704  19.349 123.151   9.007   5.924  46.382

                      1                      2                      3
                      A                      A                      A
 Frequencies --     87.4308               219.1431               280.8126
 Red. masses --      2.2543                 1.0908                 2.9688
 Frc consts  --      0.0102                 0.0309                 0.1379
 IR Inten    --      0.5732                 0.4105                 9.4149

                      4                      5                      6
                      A                      A                      A
 Frequencies --    389.2785               488.1949               531.9382
 Red. masses --      1.1560                 2.2924                 2.7920
 Frc consts  --      0.1032                 0.3219                 0.4655
 IR Inten    --      6.9006                 0.3954                 6.1916

                      7                      8                      9
                      A                      A                      A
 Frequencies --    612.0405               643.1738               770.1953
 Red. masses --      2.3443                 1.1565                 1.4301
 Frc consts  --      0.5174                 0.2819                 0.4998
 IR Inten    --     10.6941               125.8462                 1.4426

                     10                     11                     12
                      A                      A                      A
 Frequencies --    807.3942               817.4581              1008.1347
 Red. masses --      1.9819                 1.3311                 2.3018
 Frc consts  --      0.7612                 0.5241                 1.3783
 IR Inten    --      0.7018                 1.1159                 5.1084

                     13                     14                     15
                      A                      A                      A
 Frequencies --   1096.8373              1110.3831              1155.7356
 Red. masses --      1.8320                 1.9763                 1.5771
 Frc consts  --      1.2986                 1.4356                 1.2412
 IR Inten    --     40.7613                 9.6493                30.0537

                     16                     17                     18
                      A                      A                      A
 Frequencies --   1286.3139              1308.7713              1375.2037
 Red. masses --      1.2197                 1.9927                 1.3275
 Frc consts  --      1.1890                 2.0110                 1.4792
 IR Inten    --     22.1469                15.1454                17.0854

                     19                     20                     21
                      A                      A                      A
 Frequencies --   1412.7375              1430.6566              1484.4917
 Red. masses --      1.5598                 1.3846                 1.1578
 Frc consts  --      1.8342                 1.6697                 1.5033
 IR Inten    --    123.1466                32.9510                 6.9656

                     22                     23                     24
                      A                      A                      A
 Frequencies --   1501.7381              1508.8291              1525.4945
 Red. masses --      1.0428                 1.0749                 1.0910
 Frc consts  --      1.3856                 1.4417                 1.4958
 IR Inten    --     13.3818                 1.3788                 5.7163

                     25                     26                     27
                      A                      A                      A
 Frequencies --   1678.7508              3061.1501              3078.0915
 Red. masses --      3.1935                 1.0353                 1.0627
 Frc consts  --      5.3026                 5.7159                 5.9322
 IR Inten    --     65.4757                12.9158                16.6955

                     28                     29                     30
                      A                      A                      A
 Frequencies --   3131.0800              3136.3995              3151.7199
 Red. masses --      1.1031                 1.1023                 1.1050
 Frc consts  --      6.3714                 6.3887                 6.4668
 IR Inten    --      0.8195                19.4350                22.5245

                     31                     32                     33
                      A                      A                      A
 Frequencies --   3218.8172              3345.2533              3439.9168
 Red. masses --      1.0504                 1.1254                 1.0749
 Frc consts  --      6.4118                 7.4199                 7.4941
 IR Inten    --      1.7274                 1.4127                 3.2542

 - Thermochemistry -
 -------------------
 Temperature   298.150 Kelvin.  Pressure   1.00000 Atm.
 Atom     1 has atomic number  6 and mass  12.00000

 Molecular mass:    72.06875 amu.
 Principal axes and moments of inertia in atomic units:
                           1         2         3
     Eigenvalues --   215.65759 442.80828 566.06364
           X            0.99916   0.04103   0.00070
           Y           -0.04103   0.99910   0.01114
           Z           -0.00024  -0.01116   0.99994
 This molecule is an asymmetric top.
 Rotational symmetry number  1.
 Rotational temperatures (Kelvin)      0.40163     0.19560     0.15301
 Rotational constants (GHZ):           8.36855     4.07567     3.18823
 Zero-point vibrational energy     299626.1 (Joules/Mol)
                                   71.61235 (Kcal/Mol)
 Warning -- explicit consideration of   7 degrees of freedom as
           vibrations may cause significant error
 Vibrational temperatures:    125.79   315.30   404.03   560.08   702.40
          (Kelvin)            765.34   880.59   925.38  1108.14  1161.66
                             1176.14  1450.48  1578.10  1597.59  1662.84
                             1850.72  1883.03  1978.61  2032.61  2058.39
                             2135.85  2160.66  2170.87  2194.84  2415.34
                             4404.31  4428.68  4504.92  4512.57  4534.62
                             4631.15  4813.07  4949.27

 Zero-point correction=                           0.114122 (Hartree/Particle)
 Thermal correction to Energy=                    0.120143
 Thermal correction to Enthalpy=                  0.121087
 Thermal correction to Gibbs Free Energy=         0.085175
 Sum of electronic and zero-point Energies=           -228.449418
 Sum of electronic and thermal Energies=              -228.443397
 Sum of electronic and thermal Enthalpies=            -228.442452
 Sum of electronic and thermal Free Energies=         -228.478364

                     E (Thermal)             CV                S
                      KCal/Mol        Cal/Mol-Kelvin    Cal/Mol-Kelvin
 Total                   75.391             21.403             75.583
 Electronic               0.000              0.000              0.000
 Translational            0.889              2.981             38.742
 Rotational               0.889              2.981             25.495
 Vibrational             73.613             15.441             11.347
 Vibration     1          0.601              1.958              3.717
 Vibration     2          0.647              1.812              1.966
 Vibration     3          0.680              1.709              1.529
 Vibration     4          0.757              1.493              1.003
 Vibration     5          0.844              1.276              0.688
 Vibration     6          0.887              1.179              0.583
 Vibration     7          0.971              1.006              0.429

 Optimization completed.
    -- Stationary point found.
 Normal termination of Gaussian 09 at Thu Sep  8 14:55:55 2022.
