 Gaussian 09, Revision D.01,
 Gaussian 09:  ES64L-G09RevD.01 24-Apr-2013

 -------------------------
 #P OPT Freq B3LYP/6-31G**
 -------------------------

 -------
 Frag_25
 -------
 Symbolic Z-matrix:
 Charge =  0 Multiplicity = 1

 SCF Done:  E(RB3LYP) =  -355.726377967     A.U. after   15 cycles
 Optimization completed.
    -- Stationary point found.
 Normal termination of Gaussian 09 at Fri Jul 23 18:45:54 2021.

 ----------------------------------------------------------------------
 #P Geom=AllCheck Guess=TCheck SCRF=Check GenChk RB3LYP/6-31G(d,p) Freq
 ----------------------------------------------------------------------

 Structure from the checkpoint file:  "/vol2/users/liuj201281/HOFBenchmark/IsodesmicSplit/Sample60/Ring26/Running/Gau-338069.chk"
 -------
 Frag_25
 -------
 Charge =  0 Multiplicity = 1

                         Standard orientation:
 ---------------------------------------------------------------------
 Center     Atomic      Atomic             Coordinates (Angstroms)
 Number     Number       Type             X           Y           Z
 ---------------------------------------------------------------------
      1          7           0       -1.450296   -1.066020    0.064698
      2          6           0       -0.696900    0.078283    0.385098
      3          7           0       -1.145104    1.210981   -0.375502
      4          7           0        0.846800   -0.056212    0.029398
      5          8           0        1.263304   -1.165910   -0.273502
      6          8           0        1.521197    0.963891    0.135498
      7          1           0       -1.453696   -1.217720   -0.940102
      8          1           0       -1.095293   -1.895319    0.527798
      9          1           0       -0.643401    0.199383    1.479198
     10          1           0       -2.105205    1.423978   -0.124202
     11          1           0       -0.556807    2.014883   -0.179402
 ---------------------------------------------------------------------

 SCF Done:  E(RB3LYP) =  -355.726377967     A.U. after    1 cycles

 The electronic state is 1-A.
 Alpha  occ. eigenvalues --  -19.18873 -19.18595 -14.55780 -14.34759 -14.34329
 Alpha  occ. eigenvalues --  -10.30645  -1.22298  -1.05611  -0.96170  -0.87339
 Alpha  occ. eigenvalues --   -0.73129  -0.60796  -0.56355  -0.55995  -0.51264
 Alpha  occ. eigenvalues --   -0.51052  -0.48196  -0.45203  -0.43807  -0.33300
 Alpha  occ. eigenvalues --   -0.31441  -0.30099  -0.27601  -0.26200
 Alpha virt. eigenvalues --   -0.06278   0.07152   0.09216   0.11587   0.12342
 Alpha virt. eigenvalues --    0.14807   0.16170   0.22193   0.25045   0.28887
 Alpha virt. eigenvalues --    0.38424   0.51381   0.52327   0.57825   0.59308

 Mulliken charges:
               1
     1  N   -0.552225
     2  C    0.250200
     3  N   -0.588293
     4  N    0.443925
     5  O   -0.376111
     6  O   -0.378568
     7  H    0.267443
     8  H    0.264981
     9  H    0.130039
    10  H    0.266297
    11  H    0.272311
 Sum of Mulliken charges =   0.00000

 Dipole moment (field-independent basis, Debye):
    X=             -2.8213    Y=              0.2172    Z=              1.2287  Tot=              3.0849
 Quadrupole moment (field-independent basis, Debye-Ang):
   XX=            -39.4490   YY=            -31.5803   ZZ=            -33.6154
   XY=             -1.3722   XZ=              0.2221   YZ=              0.6447

  Exact polarizability:  40.508   1.551  47.701   0.609   1.165  28.792
 Approx polarizability:  55.259   5.960  87.523   1.277   5.772  42.280

                      1                      2                      3
                      A                      A                      A
 Frequencies --     47.9909               272.7575               298.5938
 Red. masses --      5.5697                 1.6320                 1.7616
 Frc consts  --      0.0076                 0.0715                 0.0925
 IR Inten    --      0.5512                 8.4912                39.3060

                      4                      5                      6
                      A                      A                      A
 Frequencies --    323.5149               371.9066               435.3619
 Red. masses --      2.2033                 1.6438                 4.8734
 Frc consts  --      0.1359                 0.1340                 0.5442
 IR Inten    --     34.7360                27.3557                11.8525

                      7                      8                      9
                      A                      A                      A
 Frequencies --    529.6847               562.2114               739.4183
 Red. masses --      2.9679                 4.7129                 2.9677
 Frc consts  --      0.4906                 0.8777                 0.9560
 IR Inten    --     19.1899                13.5043                54.8723

                     10                     11                     12
                      A                      A                      A
 Frequencies --    832.9150               846.7190               891.3237
 Red. masses --      2.0719                 4.0735                 1.4713
 Frc consts  --      0.8469                 1.7206                 0.6887
 IR Inten    --    191.9709               150.6421               134.1417

                     13                     14                     15
                      A                      A                      A
 Frequencies --   1009.1854              1188.8479              1210.6678
 Red. masses --      2.5825                 1.3910                 1.4362
 Frc consts  --      1.5496                 1.1584                 1.2402
 IR Inten    --     10.1216                16.2037                 7.2387

                     16                     17                     18
                      A                      A                      A
 Frequencies --   1329.4173              1364.6552              1428.8800
 Red. masses --      1.5785                 1.3905                11.6273
 Frc consts  --      1.6437                 1.5257                13.9869
 IR Inten    --     14.3558                40.7297                65.1211

                     19                     20                     21
                      A                      A                      A
 Frequencies --   1457.7360              1626.8471              1662.5563
 Red. masses --      1.6994                 1.2998                 1.1763
 Frc consts  --      2.1276                 2.0268                 1.9156
 IR Inten    --     46.0160               186.0171                14.0745

                     22                     23                     24
                      A                      A                      A
 Frequencies --   1681.7615              2994.6710              3528.8404
 Red. masses --      4.1065                 1.0844                 1.0496
 Frc consts  --      6.8430                 5.7298                 7.7011
 IR Inten    --    169.6644                54.8915                 1.1426

                     25                     26                     27
                      A                      A                      A
 Frequencies --   3530.0424              3625.2386              3629.4843
 Red. masses --      1.0488                 1.0945                 1.0938
 Frc consts  --      7.7004                 8.4752                 8.4890
 IR Inten    --     15.5649                13.9452                14.4514

 - Thermochemistry -
 -------------------
 Temperature   298.150 Kelvin.  Pressure   1.00000 Atm.
 Atom     1 has atomic number  7 and mass  14.00307

 Molecular mass:    91.03818 amu.
 Principal axes and moments of inertia in atomic units:
                           1         2         3
     Eigenvalues --   332.77173 511.11920 781.51926
           X            0.99996  -0.00865   0.00117
           Y            0.00865   0.99996  -0.00120
           Z           -0.00116   0.00121   1.00000
 This molecule is an asymmetric top.
 Rotational symmetry number  1.
 Rotational temperatures (Kelvin)      0.26028     0.16946     0.11083
 Rotational constants (GHZ):           5.42336     3.53096     2.30927
 Zero-point vibrational energy     223828.7 (Joules/Mol)
                                   53.49633 (Kcal/Mol)
 Warning -- explicit consideration of   8 degrees of freedom as
           vibrations may cause significant error
 Vibrational temperatures:     69.05   392.44   429.61   465.47   535.09
          (Kelvin)            626.39   762.10   808.90  1063.86  1198.38
                             1218.24  1282.41  1451.99  1710.48  1741.88
                             1912.73  1963.43  2055.84  2097.35  2340.67
                             2392.04  2419.68  4308.66  5077.21  5078.94
                             5215.90  5222.01

 Zero-point correction=                           0.085252 (Hartree/Particle)
 Thermal correction to Energy=                    0.091588
 Thermal correction to Enthalpy=                  0.092532
 Thermal correction to Gibbs Free Energy=         0.054964
 Sum of electronic and zero-point Energies=           -355.641126
 Sum of electronic and thermal Energies=              -355.634790
 Sum of electronic and thermal Enthalpies=            -355.633845
 Sum of electronic and thermal Free Energies=         -355.671414

                     E (Thermal)             CV                S
                      KCal/Mol        Cal/Mol-Kelvin    Cal/Mol-Kelvin
 Total                   57.473             21.974             79.070
 Electronic               0.000              0.000              0.000
 Translational            0.889              2.981             39.438
 Rotational               0.889              2.981             26.389
 Vibrational             55.695             16.012             13.243
 Vibration     1          0.595              1.978              4.899
 Vibration     2          0.676              1.724              1.579
 Vibration     3          0.692              1.676              1.425
 Vibration     4          0.708              1.628              1.292
 Vibration     5          0.744              1.530              1.072
 Vibration     6          0.796              1.393              0.841
 Vibration     7          0.885              1.184              0.588
 Vibration     8          0.918              1.113              0.519

 Optimization completed.
    -- Stationary point found.
 Normal termination of Gaussian 09 at Fri Jul 23 18:46:09 2021.
