 Gaussian 09, Revision E.01,
 Gaussian 09:  ES64L-G09RevE.01 30-Nov-2015

 --------------------------------
 #P OPT=calcfc Freq B3LYP/6-31G**
 --------------------------------

 --------
 Frag_317
 --------
 Symbolic Z-matrix:
 Charge =  0 Multiplicity = 1

 SCF Done:  E(RB3LYP) =  -340.958769467     A.U. after   13 cycles
 SCF Done:  E(RB3LYP) =  -340.968060808     A.U. after   13 cycles
 SCF Done:  E(RB3LYP) =  -340.971769013     A.U. after   13 cycles
 SCF Done:  E(RB3LYP) =  -340.972978513     A.U. after   11 cycles
 SCF Done:  E(RB3LYP) =  -340.973321016     A.U. after   11 cycles
 SCF Done:  E(RB3LYP) =  -340.973586800     A.U. after   11 cycles
 SCF Done:  E(RB3LYP) =  -340.973738082     A.U. after   10 cycles
 SCF Done:  E(RB3LYP) =  -340.973760023     A.U. after   10 cycles
 SCF Done:  E(RB3LYP) =  -340.973766768     A.U. after    8 cycles
 SCF Done:  E(RB3LYP) =  -340.973766824     A.U. after    7 cycles
 Optimization completed.
    -- Stationary point found.
 Normal termination of Gaussian 09 at Fri Sep 10 20:40:11 2021.

 ----------------------------------------------------------------------
 #P Geom=AllCheck Guess=TCheck SCRF=Check GenChk RB3LYP/6-31G(d,p) Freq
 ----------------------------------------------------------------------

 Structure from the checkpoint file:  "/public/home/users/caep010/.cache/gau_scr/Gau-137866.chk"
 --------
 Frag_317
 --------
 Charge =  0 Multiplicity = 1

                         Standard orientation:
 ---------------------------------------------------------------------
 Center     Atomic      Atomic             Coordinates (Angstroms)
 Number     Number       Type             X           Y           Z
 ---------------------------------------------------------------------
      1          7           0        1.024891   -1.076854    0.809681
      2          6           0        0.699218   -0.331890   -0.388781
      3          8           0        1.595389    0.761439   -0.528766
      4          6           0       -0.718953    0.278462   -0.392366
      5          7           0       -0.855861    1.113321    0.779940
      6          8           0       -1.696349   -0.749162   -0.273909
      7          1           0        0.606304   -0.582991    1.599402
      8          1           0        0.571397   -1.986271    0.772928
      9          1           0        0.781280   -1.019119   -1.248058
     10          1           0        2.435590    0.441156   -0.169654
     11          1           0       -0.864537    0.818076   -1.347820
     12          1           0       -1.774097    1.546668    0.795629
     13          1           0       -0.147288    1.841132    0.739377
     14          1           0       -1.865775   -1.091563   -1.160880
 ---------------------------------------------------------------------

 SCF Done:  E(RB3LYP) =  -340.973766824     A.U. after    1 cycles

 The electronic state is 1-A.
 Alpha  occ. eigenvalues --  -19.14961 -19.14109 -14.31392 -14.30938 -10.25764
 Alpha  occ. eigenvalues --  -10.25253  -1.03508  -1.01779  -0.87948  -0.86020
 Alpha  occ. eigenvalues --   -0.68887  -0.59267  -0.53457  -0.51548  -0.48335
 Alpha  occ. eigenvalues --   -0.47176  -0.44174  -0.42053  -0.39788  -0.35548
 Alpha  occ. eigenvalues --   -0.34664  -0.29002  -0.27514  -0.24762  -0.23644
 Alpha virt. eigenvalues --    0.06562   0.08895   0.11931   0.12517   0.14055
 Alpha virt. eigenvalues --    0.17120   0.17653   0.19511   0.20455   0.22913
 Alpha virt. eigenvalues --    0.26492   0.27710   0.32741   0.54461   0.57755

 Mulliken charges:
               1
     1  N   -0.603367
     2  C    0.265804
     3  O   -0.549744
     4  C    0.273164
     5  N   -0.603496
     6  O   -0.536948
     7  H    0.260334
     8  H    0.244799
     9  H    0.062783
    10  H    0.311034
    11  H    0.067693
    12  H    0.246689
    13  H    0.257473
    14  H    0.303783
 Sum of Mulliken charges =   0.00000

 Dipole moment (field-independent basis, Debye):
    X=             -0.6868    Y=             -0.0237    Z=             -1.3568  Tot=              1.5209
 Quadrupole moment (field-independent basis, Debye-Ang):
   XX=            -35.9900   YY=            -33.0174   ZZ=            -35.6589
   XY=             -1.0858   XZ=              3.1657   YZ=              3.3357

  Exact polarizability:  44.705   0.860  44.498   1.386   1.964  41.691
 Approx polarizability:  57.927   3.641  60.917   1.480   2.167  58.578

                      1                      2                      3
                      A                      A                      A
 Frequencies --    122.7610               231.2390               254.2141
 Red. masses --      4.5738                 1.4974                 1.1105
 Frc consts  --      0.0406                 0.0472                 0.0423
 IR Inten    --      2.9050                16.5595                93.5929

                      4                      5                      6
                      A                      A                      A
 Frequencies --    258.3207               295.5422               316.7800
 Red. masses --      2.8133                 1.3451                 1.7411
 Frc consts  --      0.1106                 0.0692                 0.1029
 IR Inten    --     44.2730                56.6843                22.2771

                      7                      8                      9
                      A                      A                      A
 Frequencies --    380.9440               447.6799               515.7918
 Red. masses --      1.8219                 2.1482                 2.0861
 Frc consts  --      0.1558                 0.2537                 0.3270
 IR Inten    --     44.1391                38.6481                26.1821

                     10                     11                     12
                      A                      A                      A
 Frequencies --    577.4352               710.1191               846.0387
 Red. masses --      4.4519                 2.7438                 2.2611
 Frc consts  --      0.8746                 0.8152                 0.9535
 IR Inten    --      1.4876                78.4444                17.6127

                     13                     14                     15
                      A                      A                      A
 Frequencies --    896.3321               943.9542              1003.8723
 Red. masses --      1.6887                 1.6167                 2.6895
 Frc consts  --      0.7994                 0.8487                 1.5969
 IR Inten    --    122.3416               207.5229                53.7728

                     16                     17                     18
                      A                      A                      A
 Frequencies --   1038.6177              1095.0823              1137.1983
 Red. masses --      2.5539                 1.9837                 1.9262
 Frc consts  --      1.6232                 1.4016                 1.4677
 IR Inten    --     19.3216               210.5986                17.3465

                     19                     20                     21
                      A                      A                      A
 Frequencies --   1197.4599              1264.4970              1286.7137
 Red. masses --      1.4545                 1.2626                 1.2376
 Frc consts  --      1.2288                 1.1895                 1.2072
 IR Inten    --     42.8043                18.3696                30.6415

                     22                     23                     24
                      A                      A                      A
 Frequencies --   1308.0111              1387.4864              1427.7352
 Red. masses --      1.3657                 1.3282                 1.8427
 Frc consts  --      1.3766                 1.5065                 2.2131
 IR Inten    --     66.2006                 9.3340                21.3281

                     25                     26                     27
                      A                      A                      A
 Frequencies --   1437.1175              1462.9997              1632.8190
 Red. masses --      1.3635                 1.4029                 1.1142
 Frc consts  --      1.6592                 1.7691                 1.7502
 IR Inten    --     21.2800                24.0516                54.1316

                     28                     29                     30
                      A                      A                      A
 Frequencies --   1677.9538              2921.9532              2976.5429
 Red. masses --      1.1070                 1.0828                 1.0855
 Frc consts  --      1.8363                 5.4468                 5.6662
 IR Inten    --     38.6410               102.6755                98.3780

                     31                     32                     33
                      A                      A                      A
 Frequencies --   3471.1646              3513.4375              3571.9139
 Red. masses --      1.0532                 1.0487                 1.0876
 Frc consts  --      7.4771                 7.6269                 8.1754
 IR Inten    --      7.5827                 2.8462                 4.6912

                     34                     35                     36
                      A                      A                      A
 Frequencies --   3609.0034              3792.1810              3827.1076
 Red. masses --      1.0940                 1.0652                 1.0662
 Frc consts  --      8.3951                 9.0255                 9.2008
 IR Inten    --      6.2989                30.5985                18.2293

 - Thermochemistry -
 -------------------
 Temperature   298.150 Kelvin.  Pressure   1.00000 Atm.
 Atom     1 has atomic number  7 and mass  14.00307

 Molecular mass:    92.05858 amu.
 Principal axes and moments of inertia in atomic units:
                           1         2         3
     Eigenvalues --   369.25486 624.08705 735.57138
           X            0.99902  -0.04115   0.01645
           Y            0.04036   0.99815   0.04556
           Z           -0.01829  -0.04485   0.99883
 This molecule is an asymmetric top.
 Rotational symmetry number  1.
 Rotational temperatures (Kelvin)      0.23456     0.13878     0.11775
 Rotational constants (GHZ):           4.88752     2.89181     2.45352
 Zero-point vibrational energy     316041.5 (Joules/Mol)
                                   75.53574 (Kcal/Mol)
 Warning -- explicit consideration of  10 degrees of freedom as
           vibrations may cause significant error
 Vibrational temperatures:    176.63   332.70   365.76   371.67   425.22
          (Kelvin)            455.78   548.09   644.11   742.11   830.80
                             1021.70  1217.26  1289.62  1358.14  1444.35
                             1494.34  1575.58  1636.17  1722.88  1819.33
                             1851.29  1881.93  1996.28  2054.19  2067.69
                             2104.93  2349.26  2414.20  4204.03  4282.58
                             4994.23  5055.05  5139.18  5192.54  5456.10
                             5506.35

 Zero-point correction=                           0.120374 (Hartree/Particle)
 Thermal correction to Energy=                    0.127647
 Thermal correction to Enthalpy=                  0.128591
 Thermal correction to Gibbs Free Energy=         0.089944
 Sum of electronic and zero-point Energies=           -340.853393
 Sum of electronic and thermal Energies=              -340.846120
 Sum of electronic and thermal Enthalpies=            -340.845176
 Sum of electronic and thermal Free Energies=         -340.883823

                     E (Thermal)             CV                S
                      KCal/Mol        Cal/Mol-Kelvin    Cal/Mol-Kelvin
 Total                   80.099             26.408             81.339
 Electronic               0.000              0.000              0.000
 Translational            0.889              2.981             39.471
 Rotational               0.889              2.981             26.630
 Vibrational             78.322             20.446             15.237
 Vibration     1          0.610              1.930              3.056
 Vibration     2          0.653              1.793              1.869
 Vibration     3          0.665              1.756              1.701
 Vibration     4          0.667              1.749              1.673
 Vibration     5          0.690              1.682              1.442
 Vibration     6          0.704              1.642              1.327
 Vibration     7          0.751              1.511              1.035
 Vibration     8          0.807              1.366              0.803
 Vibration     9          0.871              1.215              0.620
 Vibration    10          0.934              1.080              0.490

 Optimization completed.
    -- Stationary point found.
 Normal termination of Gaussian 09 at Fri Sep 10 20:40:22 2021.
