 Gaussian 09, Revision E.01,
 Gaussian 09:  ES64L-G09RevE.01 30-Nov-2015

 --------------------------------
 #P OPT=calcfc Freq B3LYP/6-31G**
 --------------------------------

 --------
 Frag_120
 --------
 Symbolic Z-matrix:
 Charge =  0 Multiplicity = 1

 SCF Done:  E(RB3LYP) =  -248.520488963     A.U. after   14 cycles
 SCF Done:  E(RB3LYP) =  -248.530933213     A.U. after   13 cycles
 SCF Done:  E(RB3LYP) =  -248.530481460     A.U. after   12 cycles
 SCF Done:  E(RB3LYP) =  -248.530933453     A.U. after    8 cycles
 SCF Done:  E(RB3LYP) =  -248.531180954     A.U. after   12 cycles
 SCF Done:  E(RB3LYP) =  -248.530888538     A.U. after   12 cycles
 SCF Done:  E(RB3LYP) =  -248.505842310     A.U. after   13 cycles
 SCF Done:  E(RB3LYP) =  -248.531231090     A.U. after    9 cycles
 SCF Done:  E(RB3LYP) =  -248.531236547     A.U. after   11 cycles
 SCF Done:  E(RB3LYP) =  -248.531239413     A.U. after    8 cycles
 SCF Done:  E(RB3LYP) =  -248.531239954     A.U. after    7 cycles
 SCF Done:  E(RB3LYP) =  -248.531240261     A.U. after    7 cycles
 SCF Done:  E(RB3LYP) =  -248.531240373     A.U. after    7 cycles
 SCF Done:  E(RB3LYP) =  -248.531240456     A.U. after    7 cycles
 SCF Done:  E(RB3LYP) =  -248.531240584     A.U. after    8 cycles
 Optimization completed.
    -- Stationary point found.
 Normal termination of Gaussian 09 at Sat Aug 21 02:18:59 2021.

 ----------------------------------------------------------------------
 #P Geom=AllCheck Guess=TCheck SCRF=Check GenChk RB3LYP/6-31G(d,p) Freq
 ----------------------------------------------------------------------

 Structure from the checkpoint file:  "/public/home/users/caep010/.cache/gau_scr/Gau-226736.chk"
 --------
 Frag_120
 --------
 Charge =  0 Multiplicity = 1

                         Standard orientation:
 ---------------------------------------------------------------------
 Center     Atomic      Atomic             Coordinates (Angstroms)
 Number     Number       Type             X           Y           Z
 ---------------------------------------------------------------------
      1          6           0        1.897010    0.079064   -0.034381
      2          7           0        0.654875   -0.664661    0.071826
      3          6           0       -0.621180   -0.163645    0.005667
      4          6           0       -0.755266    1.351314    0.008679
      5          8           0       -1.591663   -0.908914   -0.033452
      6          1           0        2.720099   -0.559300    0.294755
      7          1           0        1.884523    0.958385    0.615569
      8          1           0        2.115187    0.412658   -1.058673
      9          1           0        0.690674   -1.672313   -0.000126
     10          1           0       -1.814764    1.594589   -0.060902
     11          1           0       -0.347084    1.784355    0.928424
     12          1           0       -0.222836    1.805165   -0.834004
 ---------------------------------------------------------------------

 SCF Done:  E(RB3LYP) =  -248.531240584     A.U. after    1 cycles

 The electronic state is 1-A.
 Alpha  occ. eigenvalues --  -19.10095 -14.35492 -10.28106 -10.23133 -10.18824
 Alpha  occ. eigenvalues --   -1.02128  -0.91420  -0.73751  -0.70691  -0.57540
 Alpha  occ. eigenvalues --   -0.49247  -0.47137  -0.46222  -0.42093  -0.40646
 Alpha  occ. eigenvalues --   -0.39398  -0.38662  -0.35431  -0.24621  -0.23934
 Alpha virt. eigenvalues --    0.03416   0.07822   0.09902   0.12978   0.14512
 Alpha virt. eigenvalues --    0.16001   0.16945   0.18993   0.21486   0.24465
 Alpha virt. eigenvalues --    0.32188   0.37669   0.48310   0.50410   0.52001

 Mulliken charges:
               1
     1  C   -0.170887
     2  N   -0.503039
     3  C    0.545484
     4  C   -0.400790
     5  O   -0.500792
     6  H    0.123014
     7  H    0.126470
     8  H    0.119076
     9  H    0.265132
    10  H    0.144403
    11  H    0.128321
    12  H    0.123607
 Sum of Mulliken charges =  -0.00000

 Dipole moment (field-independent basis, Debye):
    X=              3.5843    Y=              1.4899    Z=             -0.0675  Tot=              3.8822
 Quadrupole moment (field-independent basis, Debye-Ang):
   XX=            -32.6991   YY=            -29.1747   ZZ=            -30.7640
   XY=             -4.4724   XZ=             -0.1705   YZ=              0.1701

  Exact polarizability:  52.414   0.876  42.432  -0.074  -0.051  29.684
 Approx polarizability:  74.929   6.817  57.640   0.610   0.107  41.581

                      1                      2                      3
                      A                      A                      A
 Frequencies --     60.1396               124.1850               146.0364
 Red. masses --      1.1898                 1.5561                 1.5209
 Frc consts  --      0.0025                 0.0141                 0.0191
 IR Inten    --      1.1188                 1.7860                 0.8211

                      4                      5                      6
                      A                      A                      A
 Frequencies --    281.9888               475.7380               515.7496
 Red. masses --      2.5333                 2.0910                 1.7092
 Frc consts  --      0.1187                 0.2788                 0.2679
 IR Inten    --      1.3300                15.9828                37.6086

                      7                      8                      9
                      A                      A                      A
 Frequencies --    573.2381               625.3344               805.3885
 Red. masses --      3.7511                 1.9073                 3.8435
 Frc consts  --      0.7262                 0.4394                 1.4689
 IR Inten    --      8.8203                66.1800                 0.3030

                     10                     11                     12
                      A                      A                      A
 Frequencies --    992.7001              1053.6238              1095.0049
 Red. masses --      1.4877                 1.7628                 1.7481
 Frc consts  --      0.8638                 1.1530                 1.2350
 IR Inten    --     25.9251                 6.0790                19.2758

                     13                     14                     15
                      A                      A                      A
 Frequencies --   1149.3274              1200.2146              1349.4737
 Red. masses --      1.2769                 2.2574                 1.7957
 Frc consts  --      0.9938                 1.9159                 1.9267
 IR Inten    --      6.8959                 4.5245               109.8856

                     16                     17                     18
                      A                      A                      A
 Frequencies --   1410.6913              1467.7782              1475.3581
 Red. masses --      1.5086                 1.5881                 1.1281
 Frc consts  --      1.7688                 2.0158                 1.4468
 IR Inten    --     65.5866                25.7742                32.0006

                     19                     20                     21
                      A                      A                      A
 Frequencies --   1492.0893              1500.0713              1508.1121
 Red. masses --      1.1469                 1.1330                 1.0579
 Frc consts  --      1.5044                 1.5022                 1.4176
 IR Inten    --      4.2002                14.2418                 9.1824

                     22                     23                     24
                      A                      A                      A
 Frequencies --   1534.4088              1797.8489              3015.7632
 Red. masses --      1.0992                 8.0149                 1.0495
 Frc consts  --      1.5248                15.2636                 5.6238
 IR Inten    --     32.1886               338.0745                55.9517

                     25                     26                     27
                      A                      A                      A
 Frequencies --   3050.6875              3095.5021              3112.9939
 Red. masses --      1.0391                 1.0872                 1.1006
 Frc consts  --      5.6980                 6.1382                 6.2842
 IR Inten    --      6.6835                28.2801                12.6038

                     28                     29                     30
                      A                      A                      A
 Frequencies --   3136.3517              3177.5954              3625.0066
 Red. masses --      1.1029                 1.1005                 1.0764
 Frc consts  --      6.3917                 6.5469                 8.3336
 IR Inten    --     19.7482                 6.6875                22.1668

 - Thermochemistry -
 -------------------
 Temperature   298.150 Kelvin.  Pressure   1.00000 Atm.
 Atom     1 has atomic number  6 and mass  12.00000

 Molecular mass:    73.05276 amu.
 Principal axes and moments of inertia in atomic units:
                           1         2         3
     Eigenvalues --   206.50127 442.22706 625.32322
           X            0.99852  -0.05433  -0.00266
           Y            0.05433   0.99852   0.00088
           Z            0.00261  -0.00102   1.00000
 This molecule is an asymmetric top.
 Rotational symmetry number  1.
 Rotational temperatures (Kelvin)      0.41943     0.19586     0.13851
 Rotational constants (GHZ):           8.73961     4.08103     2.88609
 Zero-point vibrational energy     268253.0 (Joules/Mol)
                                   64.11401 (Kcal/Mol)
 Warning -- explicit consideration of   7 degrees of freedom as
           vibrations may cause significant error
 Vibrational temperatures:     86.53   178.67   210.11   405.72   684.48
          (Kelvin)            742.05   824.76   899.72  1158.77  1428.27
                             1515.93  1575.47  1653.62  1726.84  1941.59
                             2029.67  2111.80  2122.71  2146.78  2158.27
                             2169.83  2207.67  2586.70  4339.01  4389.25
                             4453.73  4478.90  4512.50  4571.85  5215.57

 Zero-point correction=                           0.102172 (Hartree/Particle)
 Thermal correction to Energy=                    0.108634
 Thermal correction to Enthalpy=                  0.109578
 Thermal correction to Gibbs Free Energy=         0.072063
 Sum of electronic and zero-point Energies=           -248.429068
 Sum of electronic and thermal Energies=              -248.422607
 Sum of electronic and thermal Enthalpies=            -248.421663
 Sum of electronic and thermal Free Energies=         -248.459177

                     E (Thermal)             CV                S
                      KCal/Mol        Cal/Mol-Kelvin    Cal/Mol-Kelvin
 Total                   68.169             20.854             78.956
 Electronic               0.000              0.000              0.000
 Translational            0.889              2.981             38.782
 Rotational               0.889              2.981             25.549
 Vibrational             66.391             14.892             14.625
 Vibration     1          0.597              1.973              4.453
 Vibration     2          0.610              1.929              3.034
 Vibration     3          0.617              1.907              2.723
 Vibration     4          0.681              1.707              1.522
 Vibration     5          0.832              1.304              0.722
 Vibration     6          0.871              1.215              0.620
 Vibration     7          0.929              1.089              0.498

 Optimization completed.
    -- Stationary point found.
 Normal termination of Gaussian 09 at Sat Aug 21 02:19:08 2021.
