 Gaussian 09, Revision E.01,
 Gaussian 09:  ES64L-G09RevE.01 30-Nov-2015

 ----------------------------
 #P OPT Freq B3LYP/6-31G(d,p)
 ----------------------------

 --------
 Frag_675
 --------
 Symbolic Z-matrix:
 Charge =  0 Multiplicity = 1

 SCF Done:  E(RB3LYP) =  -322.506141375     A.U. after   14 cycles
 SCF Done:  E(RB3LYP) =  -322.506243575     A.U. after   11 cycles
 SCF Done:  E(RB3LYP) =  -322.506256415     A.U. after    8 cycles
 SCF Done:  E(RB3LYP) =  -322.506261164     A.U. after   10 cycles
 SCF Done:  E(RB3LYP) =  -322.506265062     A.U. after   10 cycles
 SCF Done:  E(RB3LYP) =  -322.506266481     A.U. after    9 cycles
 SCF Done:  E(RB3LYP) =  -322.506267134     A.U. after    8 cycles
 Optimization completed.
    -- Stationary point found.
 Normal termination of Gaussian 09 at Thu Sep  8 15:06:59 2022.

 ----------------------------------------------------------------------
 #P Geom=AllCheck Guess=TCheck SCRF=Check GenChk RB3LYP/6-31G(d,p) Freq
 ----------------------------------------------------------------------

 Structure from the checkpoint file:  "B3LYP6-31Gdp.Frag_675.chk"
 --------
 Frag_675
 --------
 Charge =  0 Multiplicity = 1

                         Standard orientation:
 ---------------------------------------------------------------------
 Center     Atomic      Atomic             Coordinates (Angstroms)
 Number     Number       Type             X           Y           Z
 ---------------------------------------------------------------------
      1          6           0        1.483257    1.134770   -0.083682
      2          6           0        0.754074    0.011848   -0.001643
      3          8           0        1.313815   -1.213046    0.092343
      4          6           0       -0.739757   -0.025078   -0.012531
      5          7           0       -1.288603   -1.170253   -0.101916
      6          8           0       -1.435539    1.133482    0.066299
      7          1           0        2.564749    1.090914   -0.064258
      8          1           0        1.030369    2.109546   -0.218113
      9          1           0        0.561643   -1.840733    0.072179
     10          1           0       -2.306852   -1.113274   -0.082114
     11          1           0       -0.841331    1.852598    0.323724
 ---------------------------------------------------------------------

 SCF Done:  E(RB3LYP) =  -322.506267134     A.U. after    1 cycles

 The electronic state is 1-A.
 Alpha  occ. eigenvalues --  -19.20728 -19.17095 -14.32868 -10.30372 -10.26400
 Alpha  occ. eigenvalues --  -10.19009  -1.09680  -1.05985  -0.90560  -0.77435
 Alpha  occ. eigenvalues --   -0.65366  -0.60391  -0.57611  -0.51174  -0.45401
 Alpha  occ. eigenvalues --   -0.44561  -0.43015  -0.41653  -0.38299  -0.35177
 Alpha  occ. eigenvalues --   -0.30581  -0.29178  -0.23934
 Alpha virt. eigenvalues --   -0.03521   0.05014   0.09571   0.10037   0.14281
 Alpha virt. eigenvalues --    0.15609   0.17153   0.22236   0.28600   0.30478
 Alpha virt. eigenvalues --    0.38057   0.41390   0.51842   0.54333   0.56048

 Mulliken charges:
               1
     1  C   -0.335747
     2  C    0.398008
     3  O   -0.550847
     4  C    0.470868
     5  N   -0.595433
     6  O   -0.514402
     7  H    0.124353
     8  H    0.086810
     9  H    0.340234
    10  H    0.249702
    11  H    0.326453
 Sum of Mulliken charges =  -0.00000

 Dipole moment (field-independent basis, Debye):
    X=             -0.8191    Y=              1.9770    Z=              0.4556  Tot=              2.1880
 Quadrupole moment (field-independent basis, Debye-Ang):
   XX=            -35.5379   YY=            -31.4066   ZZ=            -36.2333
   XY=              2.3874   XZ=             -0.5362   YZ=              0.4814

  Exact polarizability:  55.139  12.924  59.852   0.053  -0.110  19.435
 Approx polarizability:  78.099  26.216 106.307   0.469   0.034  28.160

                      1                      2                      3
                      A                      A                      A
 Frequencies --     89.0417               285.7874               381.8204
 Red. masses --      4.2881                 3.1978                 2.7793
 Frc consts  --      0.0200                 0.1539                 0.2387
 IR Inten    --      5.4462                32.5759                 2.5561

                      4                      5                      6
                      A                      A                      A
 Frequencies --    395.1779               425.7996               514.1422
 Red. masses --      1.9138                 1.7699                 3.0534
 Frc consts  --      0.1761                 0.1891                 0.4756
 IR Inten    --     61.8303                57.2357                 9.2775

                      7                      8                      9
                      A                      A                      A
 Frequencies --    590.3675               599.9603               717.2197
 Red. masses --      3.7549                 1.3012                 1.2477
 Frc consts  --      0.7711                 0.2760                 0.3781
 IR Inten    --     26.3568                57.0369                54.6079

                     10                     11                     12
                      A                      A                      A
 Frequencies --    743.0576               789.0860               826.1447
 Red. masses --      3.4676                 3.3395                 1.3799
 Frc consts  --      1.1281                 1.2251                 0.5549
 IR Inten    --      2.3114                15.0374                70.3069

                     13                     14                     15
                      A                      A                      A
 Frequencies --    875.5630               988.5645              1112.7921
 Red. masses --      1.2328                 1.8844                 2.0788
 Frc consts  --      0.5568                 1.0850                 1.5166
 IR Inten    --     71.4154                28.2833                82.2072

                     16                     17                     18
                      A                      A                      A
 Frequencies --   1206.6954              1255.0953              1386.4545
 Red. masses --      1.3935                 1.9379                 1.5763
 Frc consts  --      1.1955                 1.7986                 1.7852
 IR Inten    --     33.8342                84.6252               495.2932

                     19                     20                     21
                      A                      A                      A
 Frequencies --   1450.5489              1475.9084              1732.5347
 Red. masses --      1.9171                 1.6076                 5.1479
 Frc consts  --      2.3766                 2.0633                 9.1043
 IR Inten    --     22.7833                21.2057               156.7608

                     22                     23                     24
                      A                      A                      A
 Frequencies --   1763.8974              3187.4812              3275.9533
 Red. masses --      7.2588                 1.0617                 1.1159
 Frc consts  --     13.3064                 6.3556                 7.0558
 IR Inten    --     60.1704                 2.8080                 4.8085

                     25                     26                     27
                      A                      A                      A
 Frequencies --   3524.0013              3589.5479              3801.1967
 Red. masses --      1.0755                 1.0645                 1.0653
 Frc consts  --      7.8694                 8.0811                 9.0694
 IR Inten    --      7.4627               169.1120                37.3329

 - Thermochemistry -
 -------------------
 Temperature   298.150 Kelvin.  Pressure   1.00000 Atm.
 Atom     1 has atomic number  6 and mass  12.00000

 Molecular mass:    87.03203 amu.
 Principal axes and moments of inertia in atomic units:
                           1         2         3
     Eigenvalues --   330.54258 495.77624 821.98704
           X            0.99428   0.10676  -0.00312
           Y           -0.10676   0.99428   0.00014
           Z            0.00312   0.00020   1.00000
 This molecule is an asymmetric top.
 Rotational symmetry number  1.
 Rotational temperatures (Kelvin)      0.26204     0.17470     0.10537
 Rotational constants (GHZ):           5.45994     3.64023     2.19558
 Zero-point vibrational energy     221212.5 (Joules/Mol)
                                   52.87105 (Kcal/Mol)
 Warning -- explicit consideration of   8 degrees of freedom as
           vibrations may cause significant error
 Vibrational temperatures:    128.11   411.18   549.35   568.57   612.63
          (Kelvin)            739.74   849.41   863.21  1031.92  1069.09
                             1135.32  1188.64  1259.74  1422.32  1601.06
                             1736.16  1805.80  1994.80  2087.01  2123.50
                             2492.73  2537.85  4586.07  4713.36  5070.25
                             5164.55  5469.07

 Zero-point correction=                           0.084255 (Hartree/Particle)
 Thermal correction to Energy=                    0.090277
 Thermal correction to Enthalpy=                  0.091221
 Thermal correction to Gibbs Free Energy=         0.054779
 Sum of electronic and zero-point Energies=           -322.422012
 Sum of electronic and thermal Energies=              -322.415990
 Sum of electronic and thermal Enthalpies=            -322.415046
 Sum of electronic and thermal Free Energies=         -322.451488

                     E (Thermal)             CV                S
                      KCal/Mol        Cal/Mol-Kelvin    Cal/Mol-Kelvin
 Total                   56.650             22.057             76.698
 Electronic               0.000              0.000              0.000
 Translational            0.889              2.981             39.304
 Rotational               0.889              2.981             26.402
 Vibrational             54.872             16.095             10.992
 Vibration     1          0.602              1.957              3.681
 Vibration     2          0.684              1.700              1.499
 Vibration     3          0.751              1.509              1.032
 Vibration     4          0.762              1.480              0.981
 Vibration     5          0.788              1.414              0.872
 Vibration     6          0.869              1.219              0.624
 Vibration     7          0.948              1.052              0.467
 Vibration     8          0.958              1.032              0.450

 Optimization completed.
    -- Stationary point found.
 Normal termination of Gaussian 09 at Thu Sep  8 15:07:07 2022.
