 Gaussian 09, Revision E.01,
 Gaussian 09:  ES64L-G09RevE.01 30-Nov-2015

 ----------------------------
 #P OPT Freq B3LYP/6-31G(d,p)
 ----------------------------

 --------
 Frag_747
 --------
 Symbolic Z-matrix:
 Charge =  0 Multiplicity = 1

 SCF Done:  E(RB3LYP) =  -324.939243689     A.U. after   13 cycles
 SCF Done:  E(RB3LYP) =  -324.939284481     A.U. after   10 cycles
 SCF Done:  E(RB3LYP) =  -324.939291745     A.U. after   10 cycles
 SCF Done:  E(RB3LYP) =  -324.939308207     A.U. after    9 cycles
 SCF Done:  E(RB3LYP) =  -324.939310628     A.U. after    7 cycles
 SCF Done:  E(RB3LYP) =  -324.939311987     A.U. after    8 cycles
 SCF Done:  E(RB3LYP) =  -324.939312246     A.U. after    7 cycles
 SCF Done:  E(RB3LYP) =  -324.939312392     A.U. after    7 cycles
 SCF Done:  E(RB3LYP) =  -324.939312516     A.U. after    7 cycles
 SCF Done:  E(RB3LYP) =  -324.939312790     A.U. after    7 cycles
 SCF Done:  E(RB3LYP) =  -324.939313207     A.U. after    8 cycles
 SCF Done:  E(RB3LYP) =  -324.939313290     A.U. after    7 cycles
 Optimization completed.
    -- Stationary point found.
 Normal termination of Gaussian 09 at Thu Sep  8 14:56:08 2022.

 ----------------------------------------------------------------------
 #P Geom=AllCheck Guess=TCheck SCRF=Check GenChk RB3LYP/6-31G(d,p) Freq
 ----------------------------------------------------------------------

 Structure from the checkpoint file:  "B3LYP6-31Gdp.Frag_747.chk"
 --------
 Frag_747
 --------
 Charge =  0 Multiplicity = 1

                         Standard orientation:
 ---------------------------------------------------------------------
 Center     Atomic      Atomic             Coordinates (Angstroms)
 Number     Number       Type             X           Y           Z
 ---------------------------------------------------------------------
      1          6           0       -0.695907    1.444424   -0.334791
      2          6           0       -0.436155   -0.016547   -0.005731
      3          8           0       -0.402022   -0.112531    1.421721
      4          8           0       -1.510141   -0.776726   -0.528161
      5          6           0        0.894927   -0.545830   -0.570398
      6          7           0        2.018922    0.186562   -0.006553
      7          1           0       -0.730623    1.582841   -1.418020
      8          1           0        0.100905    2.063914    0.078504
      9          1           0       -1.654672    1.741480    0.095668
     10          1           0       -0.624391   -1.026646    1.645332
     11          1           0       -1.193941   -1.676076   -0.695873
     12          1           0        0.914168   -1.639807   -0.367543
     13          1           0        0.892536   -0.425263   -1.659728
     14          1           0        2.900486   -0.206968   -0.321825
     15          1           0        1.983187    0.102360    1.006398
 ---------------------------------------------------------------------

 SCF Done:  E(RB3LYP) =  -324.939313290     A.U. after    1 cycles

 The electronic state is 1-A.
 Alpha  occ. eigenvalues --  -19.15326 -19.14325 -14.31325 -10.28430 -10.21319
 Alpha  occ. eigenvalues --  -10.16227  -1.05832  -0.98892  -0.88062  -0.74353
 Alpha  occ. eigenvalues --   -0.67342  -0.58546  -0.53918  -0.49503  -0.46802
 Alpha  occ. eigenvalues --   -0.45331  -0.42300  -0.38488  -0.37496  -0.37186
 Alpha  occ. eigenvalues --   -0.35697  -0.34472  -0.28924  -0.27348  -0.23575
 Alpha virt. eigenvalues --    0.05792   0.08451   0.11373   0.13548   0.14762
 Alpha virt. eigenvalues --    0.15812   0.17646   0.19669   0.20259   0.22495
 Alpha virt. eigenvalues --    0.25048   0.25801   0.27614   0.27908   0.53211

 Mulliken charges:
               1
     1  C   -0.292306
     2  C    0.448040
     3  O   -0.533787
     4  O   -0.540911
     5  C   -0.063460
     6  N   -0.597102
     7  H    0.102889
     8  H    0.130528
     9  H    0.117625
    10  H    0.292348
    11  H    0.296972
    12  H    0.042086
    13  H    0.109551
    14  H    0.237951
    15  H    0.249576
 Sum of Mulliken charges =  -0.00000

 Dipole moment (field-independent basis, Debye):
    X=              1.4130    Y=             -2.8409    Z=             -0.2817  Tot=              3.1854
 Quadrupole moment (field-independent basis, Debye-Ang):
   XX=            -37.7769   YY=            -33.3235   ZZ=            -37.0882
   XY=             -1.7164   XZ=             -0.1034   YZ=             -1.2073

  Exact polarizability:  49.082   0.475  48.091   0.472   0.421  44.539
 Approx polarizability:  63.339   2.848  64.743   1.399   1.897  63.400

                      1                      2                      3
                      A                      A                      A
 Frequencies --     76.2851               162.9947               229.5222
 Red. masses --      1.2523                 2.0247                 1.2037
 Frc consts  --      0.0043                 0.0317                 0.0374
 IR Inten    --     69.6786                 1.1229                 0.1737

                      4                      5                      6
                      A                      A                      A
 Frequencies --    252.1231               297.5698               320.6867
 Red. masses --      2.2531                 1.1535                 1.3912
 Frc consts  --      0.0844                 0.0602                 0.0843
 IR Inten    --      5.9746                 7.7220               146.8161

                      7                      8                      9
                      A                      A                      A
 Frequencies --    364.8578               394.9479               468.3189
 Red. masses --      1.8352                 2.8104                 4.2031
 Frc consts  --      0.1439                 0.2583                 0.5431
 IR Inten    --     36.9363                 3.5442                 3.3856

                     10                     11                     12
                      A                      A                      A
 Frequencies --    502.0715               575.6449               764.6305
 Red. masses --      2.5894                 3.9502                 3.6040
 Frc consts  --      0.3846                 0.7712                 1.2415
 IR Inten    --     14.0632                19.2762                13.1506

                     13                     14                     15
                      A                      A                      A
 Frequencies --    861.5568               916.9053               951.1607
 Red. masses --      1.2802                 1.7499                 2.0095
 Frc consts  --      0.5599                 0.8668                 1.0712
 IR Inten    --    139.6500                20.4265                70.3610

                     16                     17                     18
                      A                      A                      A
 Frequencies --    994.7289              1084.8334              1111.6982
 Red. masses --      2.2123                 1.9253                 1.5192
 Frc consts  --      1.2898                 1.3350                 1.1062
 IR Inten    --     83.8436                 6.6527                27.0941

                     19                     20                     21
                      A                      A                      A
 Frequencies --   1131.0707              1169.8657              1239.1351
 Red. masses --      1.8027                 1.6107                 1.9463
 Frc consts  --      1.3588                 1.2988                 1.7607
 IR Inten    --     11.1092                58.9986                86.7318

                     22                     23                     24
                      A                      A                      A
 Frequencies --   1292.5695              1312.5357              1398.8594
 Red. masses --      1.4243                 1.3902                 1.2508
 Frc consts  --      1.4020                 1.4110                 1.4421
 IR Inten    --    104.8207                46.3144                14.9884

                     25                     26                     27
                      A                      A                      A
 Frequencies --   1436.2600              1465.2645              1497.1368
 Red. masses --      1.5442                 1.8468                 1.0518
 Frc consts  --      1.8768                 2.3361                 1.3891
 IR Inten    --      2.5712                38.4466                 1.3078

                     28                     29                     30
                      A                      A                      A
 Frequencies --   1504.4428              1522.8446              1651.8079
 Red. masses --      1.0701                 1.0929                 1.0937
 Frc consts  --      1.4271                 1.4932                 1.7583
 IR Inten    --      0.4385                 1.4275                38.8024

                     31                     32                     33
                      A                      A                      A
 Frequencies --   2860.1245              3071.8443              3075.5257
 Red. masses --      1.0736                 1.0585                 1.0615
 Frc consts  --      5.1745                 5.8851                 5.9157
 IR Inten    --    134.3686                 8.8954                30.6401

                     34                     35                     36
                      A                      A                      A
 Frequencies --   3151.7401              3170.6891              3503.1044
 Red. masses --      1.1037                 1.1031                 1.0489
 Frc consts  --      6.4595                 6.5340                 7.5841
 IR Inten    --     19.6610                 8.6994                 2.4273

                     37                     38                     39
                      A                      A                      A
 Frequencies --   3595.3101              3779.7461              3808.2772
 Red. masses --      1.0935                 1.0661                 1.0659
 Frc consts  --      8.3281                 8.9734                 9.1077
 IR Inten    --      1.8777                 7.1416                14.4808

 - Thermochemistry -
 -------------------
 Temperature   298.150 Kelvin.  Pressure   1.00000 Atm.
 Atom     1 has atomic number  6 and mass  12.00000

 Molecular mass:    91.06333 amu.
 Principal axes and moments of inertia in atomic units:
                           1         2         3
     Eigenvalues --   381.47613 657.97160 674.46688
           X            0.99903  -0.04348   0.00752
           Y            0.04408   0.97640  -0.21142
           Z            0.00185   0.21154   0.97737
 This molecule is an asymmetric top.
 Rotational symmetry number  1.
 Rotational temperatures (Kelvin)      0.22705     0.13164     0.12842
 Rotational constants (GHZ):           4.73094     2.74289     2.67580
 Zero-point vibrational energy     340748.4 (Joules/Mol)
                                   81.44083 (Kcal/Mol)
 Warning -- explicit consideration of  11 degrees of freedom as
           vibrations may cause significant error
 Vibrational temperatures:    109.76   234.51   330.23   362.75   428.14
          (Kelvin)            461.40   524.95   568.24   673.81   722.37
                              828.22  1100.13  1239.59  1319.22  1368.51
                             1431.19  1560.83  1599.48  1627.36  1683.17
                             1782.84  1859.72  1888.44  2012.64  2066.46
                             2108.19  2154.04  2164.55  2191.03  2376.58
                             4115.08  4419.69  4424.99  4534.65  4561.91
                             5040.18  5172.84  5438.20  5479.25

 Zero-point correction=                           0.129784 (Hartree/Particle)
 Thermal correction to Energy=                    0.137589
 Thermal correction to Enthalpy=                  0.138534
 Thermal correction to Gibbs Free Energy=         0.098614
 Sum of electronic and zero-point Energies=           -324.809529
 Sum of electronic and thermal Energies=              -324.801724
 Sum of electronic and thermal Enthalpies=            -324.800780
 Sum of electronic and thermal Free Energies=         -324.840700

                     E (Thermal)             CV                S
                      KCal/Mol        Cal/Mol-Kelvin    Cal/Mol-Kelvin
 Total                   86.339             27.982             84.019
 Electronic               0.000              0.000              0.000
 Translational            0.889              2.981             39.439
 Rotational               0.889              2.981             26.629
 Vibrational             84.561             22.020             17.951
 Vibration     1          0.599              1.965              3.984
 Vibration     2          0.623              1.888              2.515
 Vibration     3          0.652              1.796              1.883
 Vibration     4          0.664              1.759              1.716
 Vibration     5          0.691              1.678              1.431
 Vibration     6          0.706              1.634              1.307
 Vibration     7          0.738              1.545              1.101
 Vibration     8          0.762              1.481              0.981
 Vibration     9          0.826              1.320              0.742
 Vibration    10          0.857              1.245              0.653
 Vibration    11          0.932              1.084              0.493

 Optimization completed.
    -- Stationary point found.
 Normal termination of Gaussian 09 at Thu Sep  8 14:56:20 2022.
