 Gaussian 09, Revision E.01,
 Gaussian 09:  ES64L-G09RevE.01 30-Nov-2015

 ----------------------------
 #P OPT Freq B3LYP/6-31G(d,p)
 ----------------------------

 --------
 Frag_857
 --------
 Symbolic Z-matrix:
 Charge =  0 Multiplicity = 1

 SCF Done:  E(RB3LYP) =  -285.173566227     A.U. after   12 cycles
 SCF Done:  E(RB3LYP) =  -285.173593882     A.U. after    9 cycles
 SCF Done:  E(RB3LYP) =  -285.173597816     A.U. after    9 cycles
 SCF Done:  E(RB3LYP) =  -285.173599885     A.U. after    7 cycles
 SCF Done:  E(RB3LYP) =  -285.173600234     A.U. after    7 cycles
 SCF Done:  E(RB3LYP) =  -285.173600399     A.U. after    7 cycles
 SCF Done:  E(RB3LYP) =  -285.173600463     A.U. after    7 cycles
 SCF Done:  E(RB3LYP) =  -285.173600462     A.U. after    6 cycles
 Optimization completed.
    -- Stationary point found.
 Normal termination of Gaussian 09 at Thu Sep  8 15:00:31 2022.

 ----------------------------------------------------------------------
 #P Geom=AllCheck Guess=TCheck SCRF=Check GenChk RB3LYP/6-31G(d,p) Freq
 ----------------------------------------------------------------------

 Structure from the checkpoint file:  "B3LYP6-31Gdp.Frag_857.chk"
 --------
 Frag_857
 --------
 Charge =  0 Multiplicity = 1

                         Standard orientation:
 ---------------------------------------------------------------------
 Center     Atomic      Atomic             Coordinates (Angstroms)
 Number     Number       Type             X           Y           Z
 ---------------------------------------------------------------------
      1          6           0        1.589430   -0.758815   -0.568415
      2          6           0        0.386588    0.010043    0.001859
      3          6           0        0.428204    1.480198   -0.426091
      4          7           0        0.339135   -0.051031    1.484150
      5          7           0       -0.815357   -0.625861   -0.559682
      6          7           0       -2.001171    0.014045   -0.073363
      7          1           0        2.525861   -0.341392   -0.185736
      8          1           0        1.551113   -1.816484   -0.275999
      9          1           0        1.604303   -0.713212   -1.660857
     10          1           0        0.377687    1.549722   -1.515185
     11          1           0       -0.424214    2.017050   -0.008148
     12          1           0        1.358463    1.950416   -0.088692
     13          1           0        0.904105    0.689194    1.892769
     14          1           0        0.740088   -0.929247    1.809207
     15          1           0       -0.792325   -1.607048   -0.263599
     16          1           0       -2.780033   -0.341432   -0.618151
     17          1           0       -2.148628   -0.206200    0.912543
 ---------------------------------------------------------------------

 SCF Done:  E(RB3LYP) =  -285.173600462     A.U. after    1 cycles

 The electronic state is 1-A.
 Alpha  occ. eigenvalues --  -14.33004 -14.32213 -14.30773 -10.23641 -10.17288
 Alpha  occ. eigenvalues --  -10.16021  -0.95263  -0.86984  -0.76848  -0.70605
 Alpha  occ. eigenvalues --   -0.68225  -0.55430  -0.49355  -0.47842  -0.47273
 Alpha  occ. eigenvalues --   -0.45487  -0.42775  -0.38734  -0.37594  -0.36285
 Alpha  occ. eigenvalues --   -0.35129  -0.33104  -0.25113  -0.23557  -0.21489
 Alpha virt. eigenvalues --    0.06778   0.10940   0.12102   0.13198   0.14949
 Alpha virt. eigenvalues --    0.16353   0.17010   0.17512   0.18655   0.19943
 Alpha virt. eigenvalues --    0.21388   0.23231   0.24536   0.27129   0.27813

 Mulliken charges:
               1
     1  C   -0.310972
     2  C    0.254996
     3  C   -0.295971
     4  N   -0.597390
     5  N   -0.377098
     6  N   -0.464733
     7  H    0.097227
     8  H    0.083246
     9  H    0.118662
    10  H    0.112433
    11  H    0.135933
    12  H    0.081144
    13  H    0.235299
    14  H    0.223706
    15  H    0.215187
    16  H    0.245352
    17  H    0.242977
 Sum of Mulliken charges =  -0.00000

 Dipole moment (field-independent basis, Debye):
    X=              0.9109    Y=             -1.4759    Z=              1.1008  Tot=              2.0542
 Quadrupole moment (field-independent basis, Debye-Ang):
   XX=            -34.9572   YY=            -36.9481   ZZ=            -39.5623
   XY=              3.0832   XZ=              1.3055   YZ=             -0.7419

  Exact polarizability:  59.973   0.148  53.104   0.862   0.275  51.949
 Approx polarizability:  76.266   0.130  72.630   2.108   1.187  73.320

                      1                      2                      3
                      A                      A                      A
 Frequencies --    154.7359               180.9969               231.2040
 Red. masses --      1.8264                 1.1617                 1.2094
 Frc consts  --      0.0258                 0.0224                 0.0381
 IR Inten    --      9.6750                26.8762                 8.9860

                      4                      5                      6
                      A                      A                      A
 Frequencies --    251.2187               270.9941               316.8767
 Red. masses --      1.8792                 1.0441                 1.4651
 Frc consts  --      0.0699                 0.0452                 0.0867
 IR Inten    --     21.8204                 1.7609                40.5360

                      7                      8                      9
                      A                      A                      A
 Frequencies --    353.7500               392.0344               436.4351
 Red. masses --      2.2323                 2.5438                 2.3702
 Frc consts  --      0.1646                 0.2303                 0.2660
 IR Inten    --      1.7191                 7.9893                 1.0775

                     10                     11                     12
                      A                      A                      A
 Frequencies --    488.6045               571.7324               759.0027
 Red. masses --      2.4507                 3.0434                 4.0869
 Frc consts  --      0.3447                 0.5861                 1.3872
 IR Inten    --     18.1415                11.0478                 9.4982

                     13                     14                     15
                      A                      A                      A
 Frequencies --    827.0461               858.9632               920.9029
 Red. masses --      2.2765                 1.4714                 1.4554
 Frc consts  --      0.9174                 0.6396                 0.7272
 IR Inten    --    120.8796                63.2980                54.5009

                     16                     17                     18
                      A                      A                      A
 Frequencies --    939.5177               947.5442              1004.4216
 Red. masses --      1.5186                 1.7976                 1.2914
 Frc consts  --      0.7898                 0.9509                 0.7676
 IR Inten    --      2.7431                10.7123                16.7957

                     19                     20                     21
                      A                      A                      A
 Frequencies --   1039.2290              1112.2216              1136.0018
 Red. masses --      1.4324                 1.3853                 2.3460
 Frc consts  --      0.9114                 1.0096                 1.7838
 IR Inten    --     28.5333                 5.8854                11.4101

                     22                     23                     24
                      A                      A                      A
 Frequencies --   1224.1770              1244.6524              1328.9539
 Red. masses --      2.4569                 2.6773                 1.2114
 Frc consts  --      2.1693                 2.4436                 1.2605
 IR Inten    --     42.8141                56.6947                 4.2296

                     25                     26                     27
                      A                      A                      A
 Frequencies --   1352.2843              1406.8682              1423.8093
 Red. masses --      1.8756                 1.3168                 1.2578
 Frc consts  --      2.0208                 1.5356                 1.5023
 IR Inten    --      5.6072                11.9877                 8.8436

                     28                     29                     30
                      A                      A                      A
 Frequencies --   1485.2054              1495.0345              1501.7717
 Red. masses --      1.0802                 1.0927                 1.0482
 Frc consts  --      1.4039                 1.4390                 1.3929
 IR Inten    --      2.6574                 3.3322                 0.5924

                     31                     32                     33
                      A                      A                      A
 Frequencies --   1522.4067              1526.5080              1644.8429
 Red. masses --      1.1236                 1.0968                 1.0918
 Frc consts  --      1.5344                 1.5058                 1.7404
 IR Inten    --      3.0983                 1.3505                19.0580

                     34                     35                     36
                      A                      A                      A
 Frequencies --   1660.4434              3030.1707              3053.9733
 Red. masses --      1.0979                 1.0412                 1.0413
 Frc consts  --      1.7834                 5.6326                 5.7222
 IR Inten    --     26.2083                25.1981                20.8714

                     37                     38                     39
                      A                      A                      A
 Frequencies --   3101.5623              3128.3775              3134.4512
 Red. masses --      1.0947                 1.1002                 1.1003
 Frc consts  --      6.2045                 6.3441                 6.3691
 IR Inten    --     33.7638                 0.9780                44.1741

                     40                     41                     42
                      A                      A                      A
 Frequencies --   3165.0349              3367.8203              3438.4052
 Red. masses --      1.1017                 1.0738                 1.0519
 Frc consts  --      6.5023                 7.1756                 7.3273
 IR Inten    --     10.3411                28.3101                10.1134

                     43                     44                     45
                      A                      A                      A
 Frequencies --   3479.5213              3571.1729              3581.9656
 Red. masses --      1.0503                 1.0920                 1.0906
 Frc consts  --      7.4921                 8.2050                 8.2442
 IR Inten    --      2.2916                 0.3760                 0.1499

 - Thermochemistry -
 -------------------
 Temperature   298.150 Kelvin.  Pressure   1.00000 Atm.
 Atom     1 has atomic number  6 and mass  12.00000

 Molecular mass:    89.09530 amu.
 Principal axes and moments of inertia in atomic units:
                           1         2         3
     Eigenvalues --   399.62817 656.63934 666.58706
           X            0.99986  -0.00239  -0.01641
           Y           -0.00208   0.96375  -0.26679
           Z            0.01645   0.26678   0.96362
 This molecule is an asymmetric top.
 Rotational symmetry number  1.
 Rotational temperatures (Kelvin)      0.21674     0.13190     0.12994
 Rotational constants (GHZ):           4.51605     2.74845     2.70744
 Zero-point vibrational energy     407106.2 (Joules/Mol)
                                   97.30072 (Kcal/Mol)
 Warning -- explicit consideration of  11 degrees of freedom as
           vibrations may cause significant error
 Vibrational temperatures:    222.63   260.41   332.65   361.45   389.90
          (Kelvin)            455.91   508.97   564.05   627.93   702.99
                              822.59  1092.03  1189.93  1235.85  1324.97
                             1351.75  1363.30  1445.14  1495.22  1600.24
                             1634.45  1761.32  1790.77  1912.07  1945.63
                             2024.17  2048.54  2136.88  2151.02  2160.71
                             2190.40  2196.30  2366.56  2389.00  4359.73
                             4393.98  4462.45  4501.03  4509.77  4553.77
                             4845.54  4947.09  5006.25  5138.11  5153.64

 Zero-point correction=                           0.155059 (Hartree/Particle)
 Thermal correction to Energy=                    0.162903
 Thermal correction to Enthalpy=                  0.163847
 Thermal correction to Gibbs Free Energy=         0.124361
 Sum of electronic and zero-point Energies=           -285.018542
 Sum of electronic and thermal Energies=              -285.010698
 Sum of electronic and thermal Enthalpies=            -285.009754
 Sum of electronic and thermal Free Energies=         -285.049240

                     E (Thermal)             CV                S
                      KCal/Mol        Cal/Mol-Kelvin    Cal/Mol-Kelvin
 Total                  102.223             29.216             83.106
 Electronic               0.000              0.000              0.000
 Translational            0.889              2.981             39.374
 Rotational               0.889              2.981             26.661
 Vibrational            100.445             23.254             17.070
 Vibration     1          0.620              1.897              2.613
 Vibration     2          0.630              1.866              2.318
 Vibration     3          0.653              1.793              1.870
 Vibration     4          0.663              1.761              1.722
 Vibration     5          0.675              1.727              1.590
 Vibration     6          0.704              1.641              1.326
 Vibration     7          0.730              1.568              1.149
 Vibration     8          0.759              1.487              0.992
 Vibration     9          0.797              1.391              0.838
 Vibration    10          0.844              1.275              0.687
 Vibration    11          0.928              1.092              0.501

 Optimization completed.
    -- Stationary point found.
 Normal termination of Gaussian 09 at Thu Sep  8 15:00:46 2022.
