 Gaussian 09, Revision E.01,
 Gaussian 09:  ES64L-G09RevE.01 30-Nov-2015

 -------------------------
 #P OPT Freq B3LYP/6-31G**
 -------------------------

 --------
 Frag_233
 --------
 Symbolic Z-matrix:
 Charge =  0 Multiplicity = 1

 SCF Done:  E(RB3LYP) =  -209.123632686     A.U. after   14 cycles
 SCF Done:  E(RB3LYP) =  -209.140633182     A.U. after   12 cycles
 SCF Done:  E(RB3LYP) =  -209.142025058     A.U. after   12 cycles
 SCF Done:  E(RB3LYP) =  -209.142201898     A.U. after   10 cycles
 SCF Done:  E(RB3LYP) =  -209.142222407     A.U. after    9 cycles
 Optimization completed.
    -- Stationary point found.
 Normal termination of Gaussian 09 at Sat Aug 21 01:36:06 2021.

 ----------------------------------------------------------------------
 #P Geom=AllCheck Guess=TCheck SCRF=Check GenChk RB3LYP/6-31G(d,p) Freq
 ----------------------------------------------------------------------

 Structure from the checkpoint file:  "/public/home/users/caep010/.cache/gau_scr/Gau-156069.chk"
 --------
 Frag_233
 --------
 Charge =  0 Multiplicity = 1

                         Standard orientation:
 ---------------------------------------------------------------------
 Center     Atomic      Atomic             Coordinates (Angstroms)
 Number     Number       Type             X           Y           Z
 ---------------------------------------------------------------------
      1          6           0        1.840079   -0.094077   -0.000005
      2          6           0        0.420187    0.376022    0.000008
      3          7           0       -0.531870   -0.473818    0.000007
      4          8           0       -1.784213    0.171871   -0.000005
      5          1           0        2.374451    0.280605   -0.881184
      6          1           0        1.879593   -1.185369   -0.000004
      7          1           0        2.374462    0.280604    0.881168
      8          1           0        0.205501    1.448532    0.000003
      9          1           0       -2.398813   -0.574287   -0.000012
 ---------------------------------------------------------------------

 SCF Done:  E(RB3LYP) =  -209.142222407     A.U. after    1 cycles

 The electronic state is 1-A.
 Alpha  occ. eigenvalues --  -19.18001 -14.37876 -10.22080 -10.19172  -1.06996
 Alpha  occ. eigenvalues --   -0.86141  -0.72314  -0.56206  -0.52781  -0.45103
 Alpha  occ. eigenvalues --   -0.43025  -0.40222  -0.38370  -0.38312  -0.27395
 Alpha  occ. eigenvalues --   -0.24884
 Alpha virt. eigenvalues --    0.00930   0.07943   0.11323   0.13605   0.16515
 Alpha virt. eigenvalues --    0.16613   0.18676   0.26583   0.33927   0.54749
 Alpha virt. eigenvalues --    0.54885   0.58229   0.60278   0.65224   0.70147

 Mulliken charges:
               1
     1  C   -0.360477
     2  C    0.146901
     3  N   -0.175805
     4  O   -0.425118
     5  H    0.124408
     6  H    0.134342
     7  H    0.124407
     8  H    0.100898
     9  H    0.330446
 Sum of Mulliken charges =  -0.00000

 Dipole moment (field-independent basis, Debye):
    X=              0.6177    Y=              0.0438    Z=             -0.0000  Tot=              0.6193
 Quadrupole moment (field-independent basis, Debye-Ang):
   XX=            -19.2113   YY=            -24.1496   ZZ=            -24.7498
   XY=              3.0002   XZ=              0.0000   YZ=              0.0000

  Exact polarizability:  50.235   4.590  30.191   0.000   0.000  20.314
 Approx polarizability:  69.913  10.613  45.303   0.000   0.000  27.939

                      1                      2                      3
                      A                      A                      A
 Frequencies --    208.0295               284.9787               324.9959
 Red. masses --      1.2390                 3.6479                 3.0326
 Frc consts  --      0.0316                 0.1745                 0.1887
 IR Inten    --      0.2755                 1.7308                 2.9205

                      4                      5                      6
                      A                      A                      A
 Frequencies --    409.7673               564.5455               914.2846
 Red. masses --      1.1076                 4.1933                 1.9450
 Frc consts  --      0.1096                 0.7874                 0.9579
 IR Inten    --    136.3239                14.4417                16.0764

                      7                      8                      9
                      A                      A                      A
 Frequencies --    915.5368              1016.6859              1081.5020
 Red. masses --      1.2326                 4.6558                 1.5424
 Frc consts  --      0.6087                 2.8354                 1.0629
 IR Inten    --      9.0018               138.7269                 0.3717

                     10                     11                     12
                      A                      A                      A
 Frequencies --   1155.1278              1292.4746              1409.0345
 Red. masses --      2.1292                 1.1584                 1.2088
 Frc consts  --      1.6739                 1.1401                 1.4139
 IR Inten    --      5.4092                58.5752                20.9439

                     13                     14                     15
                      A                      A                      A
 Frequencies --   1449.4985              1492.4032              1495.9278
 Red. masses --      1.4572                 1.0446                 1.0619
 Frc consts  --      1.8039                 1.3708                 1.4001
 IR Inten    --      9.0682                 7.8075                 7.9224

                     16                     17                     18
                      A                      A                      A
 Frequencies --   1741.8959              3038.6619              3091.5261
 Red. masses --      6.3511                 1.0379                 1.1005
 Frc consts  --     11.3538                 5.6463                 6.1969
 IR Inten    --      1.1434                19.8239                18.0362

                     19                     20                     21
                      A                      A                      A
 Frequencies --   3108.5112              3148.4895              3816.3463
 Red. masses --      1.0892                 1.1005                 1.0677
 Frc consts  --      6.2011                 6.4275                 9.1621
 IR Inten    --     14.1865                13.7710                64.8379

 - Thermochemistry -
 -------------------
 Temperature   298.150 Kelvin.  Pressure   1.00000 Atm.
 Atom     1 has atomic number  6 and mass  12.00000

 Molecular mass:    59.03711 amu.
 Principal axes and moments of inertia in atomic units:
                           1         2         3
     Eigenvalues --    39.27913 427.24132 455.34234
           X            0.99997   0.00727  -0.00000
           Y           -0.00727   0.99997   0.00000
           Z            0.00000  -0.00000   1.00000
 This molecule is an asymmetric top.
 Rotational symmetry number  1.
 Rotational temperatures (Kelvin)      2.20508     0.20273     0.19022
 Rotational constants (GHZ):          45.94656     4.22417     3.96348
 Zero-point vibrational energy     191164.6 (Joules/Mol)
                                   45.68943 (Kcal/Mol)
 Warning -- explicit consideration of   5 degrees of freedom as
           vibrations may cause significant error
 Vibrational temperatures:    299.31   410.02   467.60   589.56   812.25
          (Kelvin)           1315.45  1317.25  1462.78  1556.04  1661.97
                             1859.58  2027.28  2085.50  2147.23  2152.30
                             2506.20  4371.95  4448.01  4472.45  4529.97
                             5490.86

 Zero-point correction=                           0.072811 (Hartree/Particle)
 Thermal correction to Energy=                    0.077721
 Thermal correction to Enthalpy=                  0.078665
 Thermal correction to Gibbs Free Energy=         0.046097
 Sum of electronic and zero-point Energies=           -209.069412
 Sum of electronic and thermal Energies=              -209.064501
 Sum of electronic and thermal Enthalpies=            -209.063557
 Sum of electronic and thermal Free Energies=         -209.096125

                     E (Thermal)             CV                S
                      KCal/Mol        Cal/Mol-Kelvin    Cal/Mol-Kelvin
 Total                   48.771             16.054             68.545
 Electronic               0.000              0.000              0.000
 Translational            0.889              2.981             38.147
 Rotational               0.889              2.981             23.551
 Vibrational             46.993             10.093              6.848
 Vibration     1          0.641              1.828              2.061
 Vibration     2          0.683              1.702              1.504
 Vibration     3          0.709              1.625              1.285
 Vibration     4          0.774              1.449              0.927
 Vibration     5          0.920              1.108              0.515

 Optimization completed.
    -- Stationary point found.
 Normal termination of Gaussian 09 at Sat Aug 21 01:36:13 2021.
