 Gaussian 09, Revision E.01,
 Gaussian 09:  ES64L-G09RevE.01 30-Nov-2015

 ----------------------------
 #P OPT Freq B3LYP/6-31G(d,p)
 ----------------------------

 ---------
 Frag_1029
 ---------
 Symbolic Z-matrix:
 Charge =  0 Multiplicity = 1

 SCF Done:  E(RB3LYP) =  -245.813808191     A.U. after   12 cycles
 SCF Done:  E(RB3LYP) =  -245.813832226     A.U. after    8 cycles
 SCF Done:  E(RB3LYP) =  -245.813835347     A.U. after    7 cycles
 SCF Done:  E(RB3LYP) =  -245.813835711     A.U. after    7 cycles
 Optimization completed.
    -- Stationary point found.
 Normal termination of Gaussian 09 at Thu Sep  8 14:45:05 2022.

 ----------------------------------------------------------------------
 #P Geom=AllCheck Guess=TCheck SCRF=Check GenChk RB3LYP/6-31G(d,p) Freq
 ----------------------------------------------------------------------

 Structure from the checkpoint file:  "B3LYP6-31Gdp.Frag_1029.chk"
 ---------
 Frag_1029
 ---------
 Charge =  0 Multiplicity = 1

                         Standard orientation:
 ---------------------------------------------------------------------
 Center     Atomic      Atomic             Coordinates (Angstroms)
 Number     Number       Type             X           Y           Z
 ---------------------------------------------------------------------
      1          6           0        1.976869   -0.061417   -0.225336
      2          7           0        0.749857   -0.426631    0.469411
      3          7           0       -0.400654   -0.062405   -0.279546
      4          6           0       -0.846904    1.295511    0.020145
      5          7           0       -1.423219   -1.032979   -0.062743
      6          1           0        2.072354    1.010244   -0.474271
      7          1           0        2.039423   -0.630634   -1.155907
      8          1           0        2.825036   -0.337833    0.409380
      9          1           0        0.724212    0.009054    1.396521
     10          1           0       -1.174434    1.407184    1.073329
     11          1           0       -1.685934    1.563636   -0.629269
     12          1           0       -0.034877    2.004747   -0.167442
     13          1           0       -2.041119   -0.994519   -0.870200
     14          1           0       -1.986332   -0.782341    0.759152
 ---------------------------------------------------------------------

 SCF Done:  E(RB3LYP) =  -245.813835711     A.U. after    1 cycles

 The electronic state is 1-A.
 Alpha  occ. eigenvalues --  -14.37183 -14.33603 -14.33334 -10.20902 -10.19654
 Alpha  occ. eigenvalues --   -0.99895  -0.86721  -0.75910  -0.67806  -0.61543
 Alpha  occ. eigenvalues --   -0.50067  -0.49360  -0.47938  -0.44481  -0.41169
 Alpha  occ. eigenvalues --   -0.39732  -0.39095  -0.37046  -0.24774  -0.22827
 Alpha  occ. eigenvalues --   -0.22419
 Alpha virt. eigenvalues --    0.06968   0.10881   0.12785   0.13891   0.14472
 Alpha virt. eigenvalues --    0.15735   0.17235   0.17561   0.19079   0.20445
 Alpha virt. eigenvalues --    0.22465   0.25598   0.27848   0.53020   0.54134

 Mulliken charges:
               1
     1  C   -0.149141
     2  N   -0.329826
     3  N   -0.226378
     4  C   -0.165347
     5  N   -0.413344
     6  H    0.075421
     7  H    0.128978
     8  H    0.102127
     9  H    0.214712
    10  H    0.074280
    11  H    0.109736
    12  H    0.114827
    13  H    0.250339
    14  H    0.213616
 Sum of Mulliken charges =  -0.00000

 Dipole moment (field-independent basis, Debye):
    X=             -0.8806    Y=              2.3644    Z=              0.6054  Tot=              2.5946
 Quadrupole moment (field-independent basis, Debye-Ang):
   XX=            -26.6720   YY=            -36.0617   ZZ=            -30.9556
   XY=              0.1242   XZ=              0.6768   YZ=              1.0350

  Exact polarizability:  55.732   1.391  41.915   0.565   0.462  41.488
 Approx polarizability:  67.886   2.764  56.300   1.275   0.646  59.994

                      1                      2                      3
                      A                      A                      A
 Frequencies --    105.3056               220.1514               237.8460
 Red. masses --      2.2910                 1.1416                 1.2329
 Frc consts  --      0.0150                 0.0326                 0.0411
 IR Inten    --      0.0780                 2.3811                33.5868

                      4                      5                      6
                      A                      A                      A
 Frequencies --    288.2998               330.5702               429.6793
 Red. masses --      1.0307                 2.1005                 2.2032
 Frc consts  --      0.0505                 0.1352                 0.2397
 IR Inten    --      9.6848                 2.0515                 2.8421

                      7                      8                      9
                      A                      A                      A
 Frequencies --    465.2920               531.7885               746.6994
 Red. masses --      2.4616                 3.5685                 2.5866
 Frc consts  --      0.3140                 0.5946                 0.8497
 IR Inten    --     14.5192                 4.2087                31.4113

                     10                     11                     12
                      A                      A                      A
 Frequencies --    841.6683               938.3482              1043.0264
 Red. masses --      2.3028                 1.3321                 1.5788
 Frc consts  --      0.9611                 0.6911                 1.0120
 IR Inten    --     37.9699                97.7434                50.3566

                     13                     14                     15
                      A                      A                      A
 Frequencies --   1094.1729              1118.5531              1145.0723
 Red. masses --      2.3688                 2.5516                 1.4227
 Frc consts  --      1.6709                 1.8809                 1.0991
 IR Inten    --      4.3188                19.8396                 6.9888

                     16                     17                     18
                      A                      A                      A
 Frequencies --   1180.6729              1209.0464              1269.1226
 Red. masses --      1.9443                 1.7549                 2.2965
 Frc consts  --      1.5969                 1.5115                 2.1794
 IR Inten    --      1.3498                 8.0419                 6.3475

                     19                     20                     21
                      A                      A                      A
 Frequencies --   1333.1558              1449.4204              1460.0573
 Red. masses --      1.2290                 1.1911                 1.1498
 Frc consts  --      1.2869                 1.4743                 1.4441
 IR Inten    --      8.0783                 1.3357                 1.1822

                     22                     23                     24
                      A                      A                      A
 Frequencies --   1495.5373              1497.7819              1505.5676
 Red. masses --      1.0926                 1.0637                 1.0544
 Frc consts  --      1.4399                 1.4059                 1.4082
 IR Inten    --      1.4572                 3.1055                 8.4105

                     25                     26                     27
                      A                      A                      A
 Frequencies --   1513.4990              1539.2205              1675.4380
 Red. masses --      1.1005                 1.0872                 1.0836
 Frc consts  --      1.4853                 1.5176                 1.7922
 IR Inten    --      6.3485                 8.2644                10.2943

                     28                     29                     30
                      A                      A                      A
 Frequencies --   2922.0217              2959.1741              3076.7156
 Red. masses --      1.0595                 1.0591                 1.0717
 Frc consts  --      5.3300                 5.4644                 5.9772
 IR Inten    --     79.5485                85.7902                38.8632

                     31                     32                     33
                      A                      A                      A
 Frequencies --   3081.5906              3119.7224              3134.4012
 Red. masses --      1.0747                 1.1045                 1.1025
 Frc consts  --      6.0128                 6.3335                 6.3820
 IR Inten    --     41.8780                26.9056                21.0306

                     34                     35                     36
                      A                      A                      A
 Frequencies --   3351.8035              3382.9573              3539.4563
 Red. masses --      1.0568                 1.0738                 1.0836
 Frc consts  --      6.9954                 7.2407                 7.9981
 IR Inten    --     32.2477                21.2227                 0.2991

 - Thermochemistry -
 -------------------
 Temperature   298.150 Kelvin.  Pressure   1.00000 Atm.
 Atom     1 has atomic number  6 and mass  12.00000

 Molecular mass:    75.07965 amu.
 Principal axes and moments of inertia in atomic units:
                           1         2         3
     Eigenvalues --   216.86003 482.06764 617.02578
           X            0.99988  -0.01161  -0.00983
           Y            0.01177   0.99980   0.01602
           Z            0.00964  -0.01613   0.99982
 This molecule is an asymmetric top.
 Rotational symmetry number  1.
 Rotational temperatures (Kelvin)      0.39940     0.17967     0.14037
 Rotational constants (GHZ):           8.32215     3.74375     2.92490
 Zero-point vibrational energy     330365.7 (Joules/Mol)
                                   78.95930 (Kcal/Mol)
 Warning -- explicit consideration of   8 degrees of freedom as
           vibrations may cause significant error
 Vibrational temperatures:    151.51   316.75   342.21   414.80   475.62
          (Kelvin)            618.21   669.45   765.12  1074.33  1210.97
                             1350.07  1500.68  1574.27  1609.35  1647.50
                             1698.72  1739.55  1825.98  1918.11  2085.39
                             2100.69  2151.74  2154.97  2166.17  2177.58
                             2214.59  2410.58  4204.13  4257.59  4426.70
                             4433.72  4488.58  4509.70  4822.49  4867.31
                             5092.48

 Zero-point correction=                           0.125830 (Hartree/Particle)
 Thermal correction to Energy=                    0.132377
 Thermal correction to Enthalpy=                  0.133322
 Thermal correction to Gibbs Free Energy=         0.096436
 Sum of electronic and zero-point Energies=           -245.688006
 Sum of electronic and thermal Energies=              -245.681458
 Sum of electronic and thermal Enthalpies=            -245.680514
 Sum of electronic and thermal Free Energies=         -245.717400

                     E (Thermal)             CV                S
                      KCal/Mol        Cal/Mol-Kelvin    Cal/Mol-Kelvin
 Total                   83.068             22.916             77.633
 Electronic               0.000              0.000              0.000
 Translational            0.889              2.981             38.864
 Rotational               0.889              2.981             25.670
 Vibrational             81.291             16.954             13.099
 Vibration     1          0.605              1.945              3.354
 Vibration     2          0.647              1.810              1.958
 Vibration     3          0.656              1.783              1.819
 Vibration     4          0.685              1.695              1.484
 Vibration     5          0.713              1.614              1.257
 Vibration     6          0.791              1.406              0.860
 Vibration     7          0.823              1.327              0.751
 Vibration     8          0.887              1.180              0.583

 Normal termination of Gaussian 09 at Thu Sep  8 14:45:15 2022.
