 Gaussian 09, Revision E.01,
 Gaussian 09:  ES64L-G09RevE.01 30-Nov-2015

 ----------------------------
 #P OPT Freq B3LYP/6-31G(d,p)
 ----------------------------

 --------
 Frag_635
 --------
 Symbolic Z-matrix:
 Charge =  0 Multiplicity = 1

 SCF Done:  E(RB3LYP) =  -346.994439822     A.U. after   14 cycles
 SCF Done:  E(RB3LYP) =  -346.994507168     A.U. after    9 cycles
 SCF Done:  E(RB3LYP) =  -346.994511175     A.U. after    8 cycles
 SCF Done:  E(RB3LYP) =  -346.994512523     A.U. after    8 cycles
 SCF Done:  E(RB3LYP) =  -346.994512671     A.U. after    7 cycles
 SCF Done:  E(RB3LYP) =  -346.994512595     A.U. after    7 cycles
 SCF Done:  E(RB3LYP) =  -346.994512315     A.U. after    7 cycles
 Optimization completed.
    -- Stationary point found.
 Normal termination of Gaussian 09 at Thu Sep  8 15:19:43 2022.

 ----------------------------------------------------------------------
 #P Geom=AllCheck Guess=TCheck SCRF=Check GenChk RB3LYP/6-31G(d,p) Freq
 ----------------------------------------------------------------------

 Structure from the checkpoint file:  "B3LYP6-31Gdp.Frag_635.chk"
 --------
 Frag_635
 --------
 Charge =  0 Multiplicity = 1

                         Standard orientation:
 ---------------------------------------------------------------------
 Center     Atomic      Atomic             Coordinates (Angstroms)
 Number     Number       Type             X           Y           Z
 ---------------------------------------------------------------------
      1          6           0       -1.508234    1.358116   -0.176642
      2          6           0       -0.926462    0.162096   -0.058307
      3          6           0       -1.718863   -1.118219    0.046798
      4          6           0        0.592994    0.014260    0.022734
      5          6           0        1.170439   -0.882336   -1.074561
      6          8           0        1.161732    1.308392   -0.043250
      7          8           0        0.955587   -0.607841    1.254955
      8          1           0       -0.925315    2.267294   -0.255341
      9          1           0       -2.590665    1.450517   -0.202546
     10          1           0       -1.386301   -1.714438    0.902613
     11          1           0       -2.785567   -0.908308    0.157052
     12          1           0       -1.593233   -1.745513   -0.844129
     13          1           0        0.755330   -1.890996   -1.027816
     14          1           0        2.254633   -0.962626   -0.942341
     15          1           0        0.960626   -0.450326   -2.055527
     16          1           0        2.115981    1.188857    0.059284
     17          1           0        0.596727   -0.042369    1.954983
 ---------------------------------------------------------------------

 SCF Done:  E(RB3LYP) =  -346.994512315     A.U. after    1 cycles

 The electronic state is 1-A.
 Alpha  occ. eigenvalues --  -19.14813 -19.14788 -10.28900 -10.19044 -10.17847
 Alpha  occ. eigenvalues --  -10.17776 -10.17047  -1.05974  -0.98827  -0.79740
 Alpha  occ. eigenvalues --   -0.73318  -0.68267  -0.62385  -0.54697  -0.52520
 Alpha  occ. eigenvalues --   -0.47189  -0.44612  -0.42487  -0.41457  -0.40629
 Alpha  occ. eigenvalues --   -0.39396  -0.38065  -0.37453  -0.34975  -0.31727
 Alpha  occ. eigenvalues --   -0.30242  -0.27231  -0.24780
 Alpha virt. eigenvalues --    0.01996   0.07557   0.10122   0.11900   0.13833
 Alpha virt. eigenvalues --    0.15132   0.16441   0.17430   0.18413   0.19076
 Alpha virt. eigenvalues --    0.20429   0.23846   0.25404   0.26159   0.27282

 Mulliken charges:
               1
     1  C   -0.273798
     2  C    0.115084
     3  C   -0.364968
     4  C    0.424021
     5  C   -0.316012
     6  O   -0.548617
     7  O   -0.535833
     8  H    0.121146
     9  H    0.085891
    10  H    0.123859
    11  H    0.106676
    12  H    0.116272
    13  H    0.116884
    14  H    0.102124
    15  H    0.120575
    16  H    0.303451
    17  H    0.303243
 Sum of Mulliken charges =  -0.00000

 Dipole moment (field-independent basis, Debye):
    X=              0.2022    Y=             -0.2011    Z=              0.0937  Tot=              0.3002
 Quadrupole moment (field-independent basis, Debye-Ang):
   XX=            -39.0342   YY=            -45.1260   ZZ=            -41.8757
   XY=              1.8511   XZ=             -1.0480   YZ=              2.2897

  Exact polarizability:  65.843  -4.947  66.765  -0.210  -0.783  46.690
 Approx polarizability:  85.622 -11.159 100.838   1.960  -3.986  65.396

                      1                      2                      3
                      A                      A                      A
 Frequencies --     55.1491               180.2671               225.6165
 Red. masses --      3.2112                 1.0725                 1.6579
 Frc consts  --      0.0058                 0.0205                 0.0497
 IR Inten    --      0.5775                 0.1805                 0.6957

                      4                      5                      6
                      A                      A                      A
 Frequencies --    273.3700               281.0093               308.2967
 Red. masses --      2.0959                 1.8427                 1.1120
 Frc consts  --      0.0923                 0.0857                 0.0623
 IR Inten    --      0.8411                 0.2424               111.5866

                      7                      8                      9
                      A                      A                      A
 Frequencies --    368.5242               386.0675               413.2545
 Red. masses --      2.7196                 2.5275                 1.7867
 Frc consts  --      0.2176                 0.2220                 0.1798
 IR Inten    --      8.6758                 1.6751                36.3975

                     10                     11                     12
                      A                      A                      A
 Frequencies --    464.1301               523.3110               560.8764
 Red. masses --      1.9547                 3.1432                 2.7557
 Frc consts  --      0.2481                 0.5072                 0.5108
 IR Inten    --     26.9062                15.5840                49.9216

                     13                     14                     15
                      A                      A                      A
 Frequencies --    583.2161               714.3721               755.2567
 Red. masses --      2.5055                 3.5987                 1.1593
 Frc consts  --      0.5021                 1.0820                 0.3896
 IR Inten    --     35.9028                 3.9740                 1.0271

                     16                     17                     18
                      A                      A                      A
 Frequencies --    914.3611               945.6273               950.7779
 Red. masses --      2.5709                 2.1057                 1.3816
 Frc consts  --      1.2664                 1.1094                 0.7358
 IR Inten    --     20.7191                68.5057                21.7849

                     19                     20                     21
                      A                      A                      A
 Frequencies --    966.9272              1021.6831              1063.4725
 Red. masses --      1.6999                 1.3833                 1.6887
 Frc consts  --      0.9364                 0.8507                 1.1253
 IR Inten    --     16.1476                10.1533                42.7042

                     22                     23                     24
                      A                      A                      A
 Frequencies --   1078.7063              1133.6295              1174.6973
 Red. masses --      1.4796                 2.0244                 2.8688
 Frc consts  --      1.0144                 1.5328                 2.3324
 IR Inten    --      4.8773               141.8605                95.1402

                     25                     26                     27
                      A                      A                      A
 Frequencies --   1281.0605              1345.7083              1394.2840
 Red. masses --      1.9819                 1.6072                 1.6198
 Frc consts  --      1.9163                 1.7148                 1.8553
 IR Inten    --     22.5793                15.5570                57.2629

                     28                     29                     30
                      A                      A                      A
 Frequencies --   1419.5357              1425.6073              1457.7139
 Red. masses --      1.3001                 1.4036                 1.2331
 Frc consts  --      1.5435                 1.6807                 1.5439
 IR Inten    --      3.1872                26.7747                22.8954

                     31                     32                     33
                      A                      A                      A
 Frequencies --   1489.6837              1498.3045              1512.2515
 Red. masses --      1.0460                 1.0667                 1.0507
 Frc consts  --      1.3677                 1.4109                 1.4157
 IR Inten    --      5.8375                 6.4541                 8.5407

                     34                     35                     36
                      A                      A                      A
 Frequencies --   1519.7795              1731.4154              3040.0543
 Red. masses --      1.0770                 5.4825                 1.0392
 Frc consts  --      1.4657                 9.6835                 5.6584
 IR Inten    --      6.6365                 2.9063                19.8294

                     37                     38                     39
                      A                      A                      A
 Frequencies --   3057.0555              3097.8456              3132.0237
 Red. masses --      1.0383                 1.0964                 1.0994
 Frc consts  --      5.7172                 6.1992                 6.3541
 IR Inten    --     14.1987                19.3336                32.5886

                     40                     41                     42
                      A                      A                      A
 Frequencies --   3133.6212              3157.3088              3162.3509
 Red. masses --      1.1018                 1.1042                 1.0634
 Frc consts  --      6.3748                 6.4851                 6.2655
 IR Inten    --      6.1569                15.2126                14.2501

                     43                     44                     45
                      A                      A                      A
 Frequencies --   3264.9916              3784.8055              3807.3645
 Red. masses --      1.1126                 1.0656                 1.0657
 Frc consts  --      6.9877                 8.9934                 9.1016
 IR Inten    --      4.9674                14.9875                18.0097

 - Thermochemistry -
 -------------------
 Temperature   298.150 Kelvin.  Pressure   1.00000 Atm.
 Atom     1 has atomic number  6 and mass  12.00000

 Molecular mass:   102.06808 amu.
 Principal axes and moments of inertia in atomic units:
                           1         2         3
     Eigenvalues --   540.94109 758.33506 935.12485
           X            0.99958   0.00873  -0.02769
           Y           -0.00721   0.99848   0.05460
           Z            0.02813  -0.05438   0.99812
 This molecule is an asymmetric top.
 Rotational symmetry number  1.
 Warning -- assumption of classical behavior for rotation
           may cause significant error
 Rotational temperatures (Kelvin)      0.16012     0.11422     0.09262
 Rotational constants (GHZ):           3.33630     2.37987     1.92995
 Zero-point vibrational energy     383136.2 (Joules/Mol)
                                   91.57174 (Kcal/Mol)
 Warning -- explicit consideration of  13 degrees of freedom as
           vibrations may cause significant error
 Vibrational temperatures:     79.35   259.36   324.61   393.32   404.31
          (Kelvin)            443.57   530.22   555.46   594.58   667.78
                              752.93   806.98   839.12  1027.82  1086.64
                             1315.56  1360.55  1367.96  1391.19  1469.97
                             1530.10  1552.02  1631.04  1690.13  1843.16
                             1936.17  2006.06  2042.39  2051.13  2097.32
                             2143.32  2155.72  2175.79  2186.62  2491.12
                             4373.95  4398.42  4457.10  4506.28  4508.58
                             4542.66  4549.91  4697.59  5445.48  5477.94

 Zero-point correction=                           0.145929 (Hartree/Particle)
 Thermal correction to Energy=                    0.154363
 Thermal correction to Enthalpy=                  0.155307
 Thermal correction to Gibbs Free Energy=         0.113766
 Sum of electronic and zero-point Energies=           -346.848583
 Sum of electronic and thermal Energies=              -346.840149
 Sum of electronic and thermal Enthalpies=            -346.839205
 Sum of electronic and thermal Free Energies=         -346.880747

                     E (Thermal)             CV                S
                      KCal/Mol        Cal/Mol-Kelvin    Cal/Mol-Kelvin
 Total                   96.864             31.628             87.431
 Electronic               0.000              0.000              0.000
 Translational            0.889              2.981             39.779
 Rotational               0.889              2.981             27.442
 Vibrational             95.087             25.666             20.211
 Vibration     1          0.596              1.976              4.624
 Vibration     2          0.629              1.866              2.326
 Vibration     3          0.650              1.802              1.914
 Vibration     4          0.676              1.722              1.575
 Vibration     5          0.681              1.709              1.528
 Vibration     6          0.698              1.658              1.371
 Vibration     7          0.741              1.537              1.086
 Vibration     8          0.755              1.500              1.015
 Vibration     9          0.777              1.441              0.915
 Vibration    10          0.822              1.330              0.754
 Vibration    11          0.878              1.198              0.602
 Vibration    12          0.917              1.116              0.522
 Vibration    13          0.940              1.068              0.479

 Normal termination of Gaussian 09 at Thu Sep  8 15:19:59 2022.
