 Gaussian 09, Revision D.01,
 Gaussian 09:  ES64L-G09RevD.01 24-Apr-2013

 -------------------------
 #P OPT Freq B3LYP/6-31G**
 -------------------------

 -------
 Frag_72
 -------
 Symbolic Z-matrix:
 Charge =  0 Multiplicity = 1

 SCF Done:  E(RB3LYP) =  -190.949783839     A.U. after   11 cycles
 Optimization completed.
    -- Stationary point found.

 1\1\GINC-FN17\FOpt\RB3LYP\6-31G(d,p)\C1H4O2\LIUJ201281\23-Jul-2021\0\\
 #P OPT Freq B3LYP/6-31G**\\Frag_72\\0,1\O,0.,1.173,-0.2461\C,0.,0.,0.5
 303\O,0.,-1.173,-0.2461\H,0.8017,1.1541,-0.788\H,0.8915,-0.0796,1.1659
 \H,-0.8915,0.0796,1.1659\H,-0.8017,-1.1541,-0.788\\Version=ES64L-G09Re
 vD.01\State=1-A\HF=-190.9497838\RMSD=6.363e-09\RMSF=1.223e-05\Dipole=0
 .,0.,-0.1315572\Quadrupole=1.702797,-3.0657195,1.3629225,2.4724731,0.,
 0.\PG=C02 [C2(C1),X(H4O2)]\\@

 Normal termination of Gaussian 09 at Fri Jul 23 19:34:04 2021.

 ----------------------------------------------------------------------
 #P Geom=AllCheck Guess=TCheck SCRF=Check GenChk RB3LYP/6-31G(d,p) Freq
 ----------------------------------------------------------------------

 Structure from the checkpoint file:  "/vol2/users/liuj201281/HOFBenchmark/IsodesmicSplit/Sample60/Ring26/Running/Gau-78365.chk"
 -------
 Frag_72
 -------
 Charge =  0 Multiplicity = 1

                         Standard orientation:
 ---------------------------------------------------------------------
 Center     Atomic      Atomic             Coordinates (Angstroms)
 Number     Number       Type             X           Y           Z
 ---------------------------------------------------------------------
      1          8           0        0.000000    1.173000   -0.246100
      2          6           0        0.000000    0.000000    0.530300
      3          8           0        0.000000   -1.173000   -0.246100
      4          1           0        0.801700    1.154100   -0.788000
      5          1           0        0.891500   -0.079600    1.165900
      6          1           0       -0.891500    0.079600    1.165900
      7          1           0       -0.801700   -1.154100   -0.788000
 ---------------------------------------------------------------------

 SCF Done:  E(RB3LYP) =  -190.949783839     A.U. after    1 cycles

 The electronic state is 1-A.
 Alpha  occ. eigenvalues --  -19.15222 -19.15222 -10.27913  -1.05871  -0.99288
 Alpha  occ. eigenvalues --   -0.67163  -0.55315  -0.46891  -0.45377  -0.40992
 Alpha  occ. eigenvalues --   -0.32404  -0.30622  -0.27868
 Alpha virt. eigenvalues --    0.07756   0.09373   0.14074   0.16948   0.22167
 Alpha virt. eigenvalues --    0.23608   0.52777   0.53391   0.62444   0.75040
 Alpha virt. eigenvalues --    0.75861   0.81892   0.83364   0.87523   0.90320

 Mulliken charges:
               1
     1  O   -0.524457
     2  C    0.239673
     3  O   -0.524457
     4  H    0.305539
     5  H    0.099082
     6  H    0.099082
     7  H    0.305539
 Sum of Mulliken charges =   0.00000

 Dipole moment (field-independent basis, Debye):
    X=              0.0000    Y=              0.0000    Z=             -0.3344  Tot=              0.3344
 Quadrupole moment (field-independent basis, Debye-Ang):
   XX=            -15.5832   YY=            -21.9970   ZZ=            -16.0404
   XY=              3.3256   XZ=              0.0000   YZ=              0.0000

  Exact polarizability:  19.187   1.075  19.250   0.000   0.000  19.413
 Approx polarizability:  25.210   0.191  25.564   0.000   0.000  24.311

                      1                      2                      3
                      A                      B                      A
 Frequencies --    395.4158               405.4921               570.9553
 Red. masses --      1.2349                 1.1905                 2.8875
 Frc consts  --      0.1138                 0.1153                 0.5546
 IR Inten    --     40.7491               192.6673                87.1452

                      4                      5                      6
                      B                      A                      B
 Frequencies --   1018.1644              1045.0223              1087.2841
 Red. masses --      1.1645                 4.7215                 6.7927
 Frc consts  --      0.7112                 3.0380                 4.7313
 IR Inten    --     15.6060               107.1268               238.6223

                      7                      8                      9
                      A                      B                      A
 Frequencies --   1214.4676              1379.7880              1403.7322
 Red. masses --      1.1419                 1.3872                 1.1477
 Frc consts  --      0.9923                 1.5560                 1.3325
 IR Inten    --      0.9137                31.3610                 3.5553

                     10                     11                     12
                      B                      A                      A
 Frequencies --   1462.4518              1542.9525              3025.8318
 Red. masses --      1.1805                 1.1002                 1.0541
 Frc consts  --      1.4876                 1.5432                 5.6862
 IR Inten    --     76.0679                 1.7028                71.5294

                     13                     14                     15
                      B                      B                      A
 Frequencies --   3072.5338              3795.3413              3795.7080
 Red. masses --      1.1137                 1.0658                 1.0654
 Frc consts  --      6.1943                 9.0456                 9.0434
 IR Inten    --     65.4641                21.7916                12.6413

 - Thermochemistry -
 -------------------
 Temperature   298.150 Kelvin.  Pressure   1.00000 Atm.
 Atom     1 has atomic number  8 and mass  15.99491

 Molecular mass:    48.02113 amu.
 Principal axes and moments of inertia in atomic units:
                           1         2         3
     Eigenvalues --    43.28810 177.16314 200.23957
           X            0.03921   0.00000   0.99923
           Y            0.99923   0.00000  -0.03921
           Z            0.00000   1.00000   0.00000
 This molecule is an asymmetric top.
 Rotational symmetry number  2.
 Rotational temperatures (Kelvin)      2.00087     0.48889     0.43255
 Rotational constants (GHZ):          41.69140    10.18689     9.01291
 Zero-point vibrational energy     150820.0 (Joules/Mol)
                                   36.04685 (Kcal/Mol)
 Warning -- explicit consideration of   3 degrees of freedom as
           vibrations may cause significant error
 Vibrational temperatures:    568.91   583.41   821.48  1464.91  1503.55
          (Kelvin)           1564.36  1747.35  1985.20  2019.66  2104.14
                             2219.96  4353.49  4420.69  5460.64  5461.17

 Zero-point correction=                           0.057444 (Hartree/Particle)
 Thermal correction to Energy=                    0.061204
 Thermal correction to Enthalpy=                  0.062148
 Thermal correction to Gibbs Free Energy=         0.033229
 Sum of electronic and zero-point Energies=           -190.892340
 Sum of electronic and thermal Energies=              -190.888580
 Sum of electronic and thermal Enthalpies=            -190.887636
 Sum of electronic and thermal Free Energies=         -190.916555

                     E (Thermal)             CV                S
                      KCal/Mol        Cal/Mol-Kelvin    Cal/Mol-Kelvin
 Total                   38.406             11.537             60.866
 Electronic               0.000              0.000              0.000
 Translational            0.889              2.981             37.532
 Rotational               0.889              2.981             20.579
 Vibrational             36.629              5.575              2.755
 Vibration     1          0.762              1.480              0.980
 Vibration     2          0.770              1.458              0.943
 Vibration     3          0.927              1.094              0.502

 Optimization completed.
    -- Stationary point found.

 1\1\GINC-FN17\Freq\RB3LYP\6-31G(d,p)\C1H4O2\LIUJ201281\23-Jul-2021\0\\
 #P Geom=AllCheck Guess=TCheck SCRF=Check GenChk RB3LYP/6-31G(d,p) Freq
 \\Frag_72\\0,1\O,0.,1.173,-0.2461\C,0.,0.,0.5303\O,0.,-1.173,-0.2461\H
 ,0.8017,1.1541,-0.788\H,0.8915,-0.0796,1.1659\H,-0.8915,0.0796,1.1659\
 H,-0.8017,-1.1541,-0.788\\Version=ES64L-G09RevD.01\State=1-A\HF=-190.9
 497838\RMSD=4.850e-09\RMSF=1.224e-05\ZeroPoint=0.0574443\Thermal=0.061
 204\Dipole=0.,0.,-0.1315576\DipoleDeriv=-0.3421875,-0.1006006,-0.08092
 47,-0.1308536,-0.9575782,0.152124,-0.0934747,0.2668554,-0.6473861,0.57

 Normal termination of Gaussian 09 at Fri Jul 23 19:34:27 2021.
