 Gaussian 09, Revision E.01,
 Gaussian 09:  ES64L-G09RevE.01 30-Nov-2015

 -------------------------
 #P OPT Freq B3LYP/6-31G**
 -------------------------

 --------
 Frag_143
 --------
 Symbolic Z-matrix:
 Charge =  0 Multiplicity = 1

 SCF Done:  E(RB3LYP) =  -264.315230156     A.U. after   11 cycles
 SCF Done:  E(RB3LYP) =  -264.322576798     A.U. after   11 cycles
 SCF Done:  E(RB3LYP) =  -264.323003147     A.U. after    9 cycles
 SCF Done:  E(RB3LYP) =  -264.323005636     A.U. after    7 cycles
 Optimization completed.
    -- Stationary point found.
 Normal termination of Gaussian 09 at Sat Aug 21 01:37:57 2021.

 ----------------------------------------------------------------------
 #P Geom=AllCheck Guess=TCheck SCRF=Check GenChk RB3LYP/6-31G(d,p) Freq
 ----------------------------------------------------------------------

 Structure from the checkpoint file:  "/public/home/users/caep010/.cache/gau_scr/Gau-50800.chk"
 --------
 Frag_143
 --------
 Charge =  0 Multiplicity = 1

                         Standard orientation:
 ---------------------------------------------------------------------
 Center     Atomic      Atomic             Coordinates (Angstroms)
 Number     Number       Type             X           Y           Z
 ---------------------------------------------------------------------
      1          6           0       -1.222961    0.525744    0.011249
      2          6           0       -1.018731   -0.855374    0.049940
      3          7           0        0.206007   -1.393486    0.039038
      4          6           0        1.222961   -0.525744   -0.011249
      5          6           0        1.018731    0.855374   -0.049940
      6          7           0       -0.206007    1.393486   -0.039038
      7          1           0       -2.228541    0.941009    0.021072
      8          1           0       -1.861380   -1.542439    0.090493
      9          1           0        2.228541   -0.941009   -0.021072
     10          1           0        1.861380    1.542439   -0.090493
 ---------------------------------------------------------------------

 SCF Done:  E(RB3LYP) =  -264.323005636     A.U. after    1 cycles

 The electronic state is 1-AG.
 Alpha  occ. eigenvalues --  -14.35430 -14.35430 -10.23786 -10.23785 -10.23731
 Alpha  occ. eigenvalues --  -10.23731  -0.98452  -0.91142  -0.78082  -0.66239
 Alpha  occ. eigenvalues --   -0.65893  -0.52840  -0.51713  -0.49218  -0.44062
 Alpha  occ. eigenvalues --   -0.42674  -0.39192  -0.33158  -0.31166  -0.27846
 Alpha  occ. eigenvalues --   -0.25078
 Alpha virt. eigenvalues --   -0.05251  -0.02569   0.11188   0.12663   0.13051
 Alpha virt. eigenvalues --    0.15476   0.16811   0.18149   0.29142   0.31380
 Alpha virt. eigenvalues --    0.32272   0.40946   0.47645   0.50200   0.50434

 Mulliken charges:
               1
     1  C    0.088781
     2  C    0.088790
     3  N   -0.397205
     4  C    0.088781
     5  C    0.088790
     6  N   -0.397205
     7  H    0.109826
     8  H    0.109807
     9  H    0.109826
    10  H    0.109807
 Sum of Mulliken charges =   0.00000

 Dipole moment (field-independent basis, Debye):
    X=             -0.0000    Y=              0.0000    Z=             -0.0000  Tot=              0.0000
 Quadrupole moment (field-independent basis, Debye-Ang):
   XX=            -27.0743   YY=            -40.1101   ZZ=            -35.1338
   XY=              1.9626   XZ=             -0.2443   YZ=              0.1117

  Exact polarizability:  66.376   1.783  54.337  -1.089  -1.091  20.879
 Approx polarizability: 110.972   1.546 100.310  -1.851  -2.194  31.613

                      1                      2                      3
                     AU                     AU                     AG
 Frequencies --    350.9571               433.4519               607.6780
 Red. masses --      2.2775                 7.1212                 8.7940
 Frc consts  --      0.1653                 0.7883                 1.9133
 IR Inten    --      0.0000                21.6201                 0.0000

                      4                      5                      6
                     AG                     AG                     AU
 Frequencies --    721.0703               774.6207               806.9915
 Red. masses --      6.9544                 4.1096                 1.1343
 Frc consts  --      2.1304                 1.4529                 0.4352
 IR Inten    --      0.0000                 0.0000                17.9560

                      7                      8                      9
                     AG                     AG                     AU
 Frequencies --    947.0747               986.7241               995.8373
 Red. masses --      1.2600                 1.3151                 1.5711
 Frc consts  --      0.6659                 0.7544                 0.9180
 IR Inten    --      0.0000                 0.0000                 0.0000

                     10                     11                     12
                     AU                     AG                     AU
 Frequencies --   1032.2541              1045.3880              1096.0220
 Red. masses --      5.8220                 5.3521                 1.8107
 Frc consts  --      3.6551                 3.4461                 1.2815
 IR Inten    --     37.0698                 0.0000                11.8170

                     13                     14                     15
                     AU                     AU                     AG
 Frequencies --   1168.9382              1242.6006              1259.3210
 Red. masses --      1.9846                12.6076                 1.2477
 Frc consts  --      1.5977                11.4696                 1.1659
 IR Inten    --      4.6745                 1.9159                 0.0000

                     16                     17                     18
                     AG                     AU                     AU
 Frequencies --   1380.4834              1452.0789              1523.9154
 Red. masses --      1.2069                 1.8116                 1.9832
 Frc consts  --      1.3552                 2.2506                 2.7136
 IR Inten    --      0.0000                30.5928                 1.3945

                     19                     20                     21
                     AG                     AG                     AG
 Frequencies --   1592.4130              1630.1066              3167.2045
 Red. masses --      8.4169                 4.7355                 1.0851
 Frc consts  --     12.5751                 7.4140                 6.4133
 IR Inten    --      0.0000                 0.0000                 0.0000

                     22                     23                     24
                     AU                     AU                     AG
 Frequencies --   3167.8566              3182.6357              3189.2144
 Red. masses --      1.0896                 1.0941                 1.0997
 Frc consts  --      6.4426                 6.5293                 6.5899
 IR Inten    --      9.3142                72.9759                 0.0000

 - Thermochemistry -
 -------------------
 Temperature   298.150 Kelvin.  Pressure   1.00000 Atm.
 Atom     1 has atomic number  6 and mass  12.00000

 Molecular mass:    80.03745 amu.
 Principal axes and moments of inertia in atomic units:
                           1         2         3
     Eigenvalues --   281.70853 304.89220 586.60074
           X           -0.14662   0.98893   0.02266
           Y            0.98881   0.14588   0.03134
           Z           -0.02769  -0.02700   0.99925
 This molecule is an asymmetric top.
 Rotational symmetry number  1.
 Rotational temperatures (Kelvin)      0.30746     0.28408     0.14765
 Rotational constants (GHZ):           6.40641     5.91928     3.07661
 Zero-point vibrational energy     201898.8 (Joules/Mol)
                                   48.25496 (Kcal/Mol)
 Warning -- explicit consideration of   3 degrees of freedom as
           vibrations may cause significant error
 Vibrational temperatures:    504.95   623.64   874.31  1037.46  1114.51
          (Kelvin)           1161.08  1362.63  1419.67  1432.79  1485.18
                             1504.08  1576.93  1681.84  1787.82  1811.88
                             1986.21  2089.22  2192.57  2291.12  2345.36
                             4556.90  4557.83  4579.10  4588.56

 Zero-point correction=                           0.076899 (Hartree/Particle)
 Thermal correction to Energy=                    0.081074
 Thermal correction to Enthalpy=                  0.082018
 Thermal correction to Gibbs Free Energy=         0.049546
 Sum of electronic and zero-point Energies=           -264.246106
 Sum of electronic and thermal Energies=              -264.241932
 Sum of electronic and thermal Enthalpies=            -264.240987
 Sum of electronic and thermal Free Energies=         -264.273460

                     E (Thermal)             CV                S
                      KCal/Mol        Cal/Mol-Kelvin    Cal/Mol-Kelvin
 Total                   50.875             15.185             68.344
 Electronic               0.000              0.000              0.000
 Translational            0.889              2.981             39.054
 Rotational               0.889              2.981             25.425
 Vibrational             49.097              9.224              3.865
 Vibration     1          0.728              1.573              1.162
 Vibration     2          0.794              1.397              0.847
 Vibration     3          0.966              1.016              0.437

 Optimization completed.
    -- Stationary point found.
 Normal termination of Gaussian 09 at Sat Aug 21 01:38:05 2021.
