 Gaussian 09, Revision E.01,
 Gaussian 09:  ES64L-G09RevE.01 30-Nov-2015

 ----------------------------
 #P OPT Freq B3LYP/6-31G(d,p)
 ----------------------------

 --------
 Frag_993
 --------
 Symbolic Z-matrix:
 Charge =  0 Multiplicity = 1

 SCF Done:  E(RB3LYP) =  -359.204205938     A.U. after   13 cycles
 SCF Done:  E(RB3LYP) =  -359.204261501     A.U. after   11 cycles
 SCF Done:  E(RB3LYP) =  -359.204169178     A.U. after   11 cycles
 SCF Done:  E(RB3LYP) =  -359.204274121     A.U. after   11 cycles
 SCF Done:  E(RB3LYP) =  -359.204274928     A.U. after    7 cycles
 SCF Done:  E(RB3LYP) =  -359.204275497     A.U. after    7 cycles
 SCF Done:  E(RB3LYP) =  -359.204275790     A.U. after    7 cycles
 SCF Done:  E(RB3LYP) =  -359.204276033     A.U. after    7 cycles
 SCF Done:  E(RB3LYP) =  -359.204276123     A.U. after    7 cycles
 Optimization completed.
    -- Stationary point found.
 Normal termination of Gaussian 09 at Thu Sep  8 14:58:42 2022.

 ----------------------------------------------------------------------
 #P Geom=AllCheck Guess=TCheck SCRF=Check GenChk RB3LYP/6-31G(d,p) Freq
 ----------------------------------------------------------------------

 Structure from the checkpoint file:  "B3LYP6-31Gdp.Frag_993.chk"
 --------
 Frag_993
 --------
 Charge =  0 Multiplicity = 1

                         Standard orientation:
 ---------------------------------------------------------------------
 Center     Atomic      Atomic             Coordinates (Angstroms)
 Number     Number       Type             X           Y           Z
 ---------------------------------------------------------------------
      1          6           0        1.657020    1.205985   -0.040500
      2          6           0        0.941215    0.072347   -0.017985
      3          7           0        1.483746   -1.214192    0.095874
      4          6           0       -0.600606    0.038868   -0.009210
      5          7           0       -1.144020   -0.576074    1.207494
      6          7           0       -1.033114   -0.793494   -1.109900
      7          8           0       -1.155080    1.335932   -0.150203
      8          1           0        2.742504    1.192602   -0.011067
      9          1           0        1.178396    2.173219   -0.110027
     10          1           0        2.479422   -1.258641   -0.081689
     11          1           0        0.969531   -1.879309   -0.474754
     12          1           0       -0.632558   -1.439190    1.383460
     13          1           0       -0.939178    0.030971    1.999009
     14          1           0       -2.041126   -0.907706   -1.029774
     15          1           0       -0.836877   -0.310059   -1.983581
     16          1           0       -0.811534    1.893771    0.561939
 ---------------------------------------------------------------------

 SCF Done:  E(RB3LYP) =  -359.204276123     A.U. after    1 cycles

 The electronic state is 1-A.
 Alpha  occ. eigenvalues --  -19.14650 -14.33184 -14.31849 -14.31368 -10.29359
 Alpha  occ. eigenvalues --  -10.21673 -10.16069  -1.03846  -0.91959  -0.88389
 Alpha  occ. eigenvalues --   -0.84373  -0.73087  -0.63710  -0.56691  -0.52293
 Alpha  occ. eigenvalues --   -0.51704  -0.48562  -0.47212  -0.45303  -0.42119
 Alpha  occ. eigenvalues --   -0.40901  -0.37951  -0.34953  -0.32872  -0.28747
 Alpha  occ. eigenvalues --   -0.26431  -0.24610  -0.20873
 Alpha virt. eigenvalues --    0.03751   0.06599   0.09969   0.11437   0.13116
 Alpha virt. eigenvalues --    0.14416   0.15972   0.16889   0.18641   0.19153
 Alpha virt. eigenvalues --    0.25850   0.27026   0.27686   0.28917   0.34583

 Mulliken charges:
               1
     1  C   -0.340744
     2  C    0.313120
     3  N   -0.645220
     4  C    0.392609
     5  N   -0.563784
     6  N   -0.583945
     7  O   -0.544225
     8  H    0.077940
     9  H    0.081469
    10  H    0.251271
    11  H    0.271718
    12  H    0.250317
    13  H    0.230031
    14  H    0.258576
    15  H    0.251180
    16  H    0.299689
 Sum of Mulliken charges =  -0.00000

 Dipole moment (field-independent basis, Debye):
    X=              1.4539    Y=             -0.2049    Z=              0.0556  Tot=              1.4693
 Quadrupole moment (field-independent basis, Debye-Ang):
   XX=            -42.7190   YY=            -40.8975   ZZ=            -39.7806
   XY=             -1.5385   XZ=              0.0981   YZ=              3.3476

  Exact polarizability:  59.976   6.475  65.205  -0.264   1.004  43.636
 Approx polarizability:  79.866  12.169 102.459  -0.438   0.490  60.890

                      1                      2                      3
                      A                      A                      A
 Frequencies --     92.9727               177.7569               260.8223
 Red. masses --      3.9397                 1.1109                 2.6049
 Frc consts  --      0.0201                 0.0207                 0.1044
 IR Inten    --      2.7346                24.7605                 4.5301

                      4                      5                      6
                      A                      A                      A
 Frequencies --    290.6216               330.2787               372.9143
 Red. masses --      2.7746                 1.3862                 1.2184
 Frc consts  --      0.1381                 0.0891                 0.0998
 IR Inten    --      5.3625                20.9793                74.5458

                      7                      8                      9
                      A                      A                      A
 Frequencies --    391.5479               431.9525               444.9072
 Red. masses --      2.3896                 1.9374                 1.3794
 Frc consts  --      0.2159                 0.2130                 0.1609
 IR Inten    --     19.5179                31.7384                49.4876

                     10                     11                     12
                      A                      A                      A
 Frequencies --    472.6201               548.6279               550.9174
 Red. masses --      2.7946                 3.6439                 2.3935
 Frc consts  --      0.3678                 0.6462                 0.4280
 IR Inten    --     35.1375                12.2095                21.9304

                     13                     14                     15
                      A                      A                      A
 Frequencies --    667.7789               715.3310               738.6689
 Red. masses --      2.3453                 1.1769                 3.1981
 Frc consts  --      0.6162                 0.3548                 1.0281
 IR Inten    --     91.5547                13.2473                22.2415

                     16                     17                     18
                      A                      A                      A
 Frequencies --    787.0611               825.7389               897.5259
 Red. masses --      1.4148                 1.6455                 1.8989
 Frc consts  --      0.5164                 0.6611                 0.9012
 IR Inten    --     90.5000               119.4688               130.0566

                     19                     20                     21
                      A                      A                      A
 Frequencies --    960.3778               976.9062               987.3128
 Red. masses --      1.4228                 1.9787                 1.6336
 Frc consts  --      0.7732                 1.1126                 0.9382
 IR Inten    --    257.0883                26.7587                13.2384

                     22                     23                     24
                      A                      A                      A
 Frequencies --   1043.7496              1116.4261              1151.1654
 Red. masses --      2.6552                 1.6378                 1.4219
 Frc consts  --      1.7043                 1.2027                 1.1102
 IR Inten    --    110.3617                 4.4297                10.7934

                     25                     26                     27
                      A                      A                      A
 Frequencies --   1272.0124              1313.4808              1369.7390
 Red. masses --      1.7554                 1.8122                 2.5193
 Frc consts  --      1.6734                 1.8421                 2.7849
 IR Inten    --    181.1440                29.5672                29.3763

                     28                     29                     30
                      A                      A                      A
 Frequencies --   1402.0193              1455.8621              1636.6329
 Red. masses --      2.0320                 1.1854                 1.1346
 Frc consts  --      2.3533                 1.4804                 1.7906
 IR Inten    --     63.0015                 4.6832                58.3533

                     31                     32                     33
                      A                      A                      A
 Frequencies --   1649.7185              1671.1724              1727.0816
 Red. masses --      1.1212                 1.1019                 5.2007
 Frc consts  --      1.7978                 1.8132                 9.1398
 IR Inten    --     41.4160                29.6697                83.4833

                     34                     35                     36
                      A                      A                      A
 Frequencies --   3169.7775              3265.8614              3488.3939
 Red. masses --      1.0632                 1.1118                 1.0501
 Frc consts  --      6.2940                 6.9867                 7.5289
 IR Inten    --      7.3601                 9.7540                 1.1216

                     37                     38                     39
                      A                      A                      A
 Frequencies --   3496.4492              3518.9305              3570.5724
 Red. masses --      1.0488                 1.0492                 1.0911
 Frc consts  --      7.5541                 7.6549                 8.1957
 IR Inten    --      2.1375                21.3094                 1.2967

                     40                     41                     42
                      A                      A                      A
 Frequencies --   3589.6347              3635.5427              3794.2927
 Red. masses --      1.0932                 1.0953                 1.0653
 Frc consts  --      8.2994                 8.5293                 9.0365
 IR Inten    --      4.1985                14.3057                 4.8863

 - Thermochemistry -
 -------------------
 Temperature   298.150 Kelvin.  Pressure   1.00000 Atm.
 Atom     1 has atomic number  6 and mass  12.00000

 Molecular mass:   103.07456 amu.
 Principal axes and moments of inertia in atomic units:
                           1         2         3
     Eigenvalues --   527.83261 735.91288 908.82511
           X            0.99921   0.03980  -0.00182
           Y           -0.03973   0.99879   0.02907
           Z            0.00297  -0.02898   0.99958
 This molecule is an asymmetric top.
 Rotational symmetry number  1.
 Warning -- assumption of classical behavior for rotation
           may cause significant error
 Rotational temperatures (Kelvin)      0.16409     0.11770     0.09530
 Rotational constants (GHZ):           3.41915     2.45238     1.98580
 Zero-point vibrational energy     360441.8 (Joules/Mol)
                                   86.14765 (Kcal/Mol)
 Warning -- explicit consideration of  12 degrees of freedom as
           vibrations may cause significant error
 Vibrational temperatures:    133.77   255.75   375.26   418.14   475.20
          (Kelvin)            536.54   563.35   621.48   640.12   679.99
                              789.35   792.65   960.78  1029.20  1062.78
                             1132.40  1188.05  1291.34  1381.77  1405.55
                             1420.52  1501.72  1606.29  1656.27  1830.14
                             1889.80  1970.75  2017.19  2094.66  2354.75
                             2373.57  2404.44  2484.88  4560.60  4698.84
                             5019.01  5030.60  5062.95  5137.25  5164.68
                             5230.73  5459.13

 Zero-point correction=                           0.137285 (Hartree/Particle)
 Thermal correction to Energy=                    0.145366
 Thermal correction to Enthalpy=                  0.146311
 Thermal correction to Gibbs Free Energy=         0.105867
 Sum of electronic and zero-point Energies=           -359.066991
 Sum of electronic and thermal Energies=              -359.058910
 Sum of electronic and thermal Enthalpies=            -359.057966
 Sum of electronic and thermal Free Energies=         -359.098409

                     E (Thermal)             CV                S
                      KCal/Mol        Cal/Mol-Kelvin    Cal/Mol-Kelvin
 Total                   91.219             31.282             85.121
 Electronic               0.000              0.000              0.000
 Translational            0.889              2.981             39.808
 Rotational               0.889              2.981             27.359
 Vibrational             89.441             25.321             17.954
 Vibration     1          0.602              1.954              3.597
 Vibration     2          0.628              1.870              2.352
 Vibration     3          0.669              1.744              1.656
 Vibration     4          0.687              1.691              1.470
 Vibration     5          0.713              1.615              1.259
 Vibration     6          0.744              1.528              1.068
 Vibration     7          0.759              1.488              0.994
 Vibration     8          0.793              1.401              0.852
 Vibration     9          0.804              1.372              0.811
 Vibration    10          0.829              1.311              0.730
 Vibration    11          0.904              1.143              0.547
 Vibration    12          0.906              1.138              0.542

 Optimization completed.
    -- Stationary point found.
 Normal termination of Gaussian 09 at Thu Sep  8 14:58:57 2022.
