 Gaussian 09, Revision E.01,
 Gaussian 09:  ES64L-G09RevE.01 30-Nov-2015

 ----------------------------
 #P OPT Freq B3LYP/6-31G(d,p)
 ----------------------------

 --------
 Frag_517
 --------
 Symbolic Z-matrix:
 Charge =  0 Multiplicity = 1

 SCF Done:  E(RB3LYP) =  -244.662305768     A.U. after   13 cycles
 SCF Done:  E(RB3LYP) =  -244.662350767     A.U. after   10 cycles
 SCF Done:  E(RB3LYP) =  -244.662363412     A.U. after   10 cycles
 SCF Done:  E(RB3LYP) =  -244.662380742     A.U. after    9 cycles
 SCF Done:  E(RB3LYP) =  -244.662387915     A.U. after   10 cycles
 SCF Done:  E(RB3LYP) =  -244.662389678     A.U. after    9 cycles
 SCF Done:  E(RB3LYP) =  -244.662389954     A.U. after    7 cycles
 Optimization completed.
    -- Stationary point found.
 Normal termination of Gaussian 09 at Thu Sep  8 15:19:04 2022.

 ----------------------------------------------------------------------
 #P Geom=AllCheck Guess=TCheck SCRF=Check GenChk RB3LYP/6-31G(d,p) Freq
 ----------------------------------------------------------------------

 Structure from the checkpoint file:  "B3LYP6-31Gdp.Frag_517.chk"
 --------
 Frag_517
 --------
 Charge =  0 Multiplicity = 1

                         Standard orientation:
 ---------------------------------------------------------------------
 Center     Atomic      Atomic             Coordinates (Angstroms)
 Number     Number       Type             X           Y           Z
 ---------------------------------------------------------------------
      1          6           0       -1.787216   -0.584878    0.021687
      2          6           0       -0.396302   -0.019472   -0.009499
      3          7           0       -0.264225    1.363080    0.058719
      4          7           0        0.605609   -0.827863   -0.036467
      5          7           0        1.862926   -0.141381   -0.064058
      6          1           0       -2.315140   -0.279887    0.932679
      7          1           0       -1.733166   -1.673115   -0.009508
      8          1           0       -2.375576   -0.231533   -0.834471
      9          1           0       -1.072135    1.888537   -0.247258
     10          1           0        0.604791    1.683627   -0.359950
     11          1           0        2.569226   -0.871027   -0.085516
     12          1           0        1.992940    0.352648    0.823543
 ---------------------------------------------------------------------

 SCF Done:  E(RB3LYP) =  -244.662389954     A.U. after    1 cycles

 The electronic state is 1-A.
 Alpha  occ. eigenvalues --  -14.33918 -14.33824 -14.31809 -10.23894 -10.18379
 Alpha  occ. eigenvalues --   -0.96908  -0.88825  -0.78284  -0.70771  -0.55356
 Alpha  occ. eigenvalues --   -0.52302  -0.49407  -0.46567  -0.42732  -0.38874
 Alpha  occ. eigenvalues --   -0.38133  -0.35759  -0.29960  -0.25239  -0.19712
 Alpha virt. eigenvalues --    0.04412   0.08105   0.10589   0.14204   0.15070
 Alpha virt. eigenvalues --    0.16133   0.17613   0.18316   0.21072   0.25130
 Alpha virt. eigenvalues --    0.32830   0.42752   0.54755   0.55414   0.57284

 Mulliken charges:
               1
     1  C   -0.369316
     2  C    0.454426
     3  N   -0.630262
     4  N   -0.374440
     5  N   -0.493265
     6  H    0.123327
     7  H    0.141880
     8  H    0.110198
     9  H    0.254252
    10  H    0.274982
    11  H    0.261216
    12  H    0.247002
 Sum of Mulliken charges =  -0.00000

 Dipole moment (field-independent basis, Debye):
    X=             -0.6546    Y=              1.7015    Z=              0.2192  Tot=              1.8362
 Quadrupole moment (field-independent basis, Debye-Ang):
   XX=            -24.9977   YY=            -30.0745   ZZ=            -31.8245
   XY=             -1.2502   XZ=              2.6561   YZ=             -1.5181

  Exact polarizability:  59.205  -4.642  43.465   1.200   0.564  27.558
 Approx polarizability:  80.269 -12.783  66.278   0.413   2.360  38.860

                      1                      2                      3
                      A                      A                      A
 Frequencies --    166.5541               200.4375               285.9412
 Red. masses --      1.1121                 1.0961                 2.8279
 Frc consts  --      0.0182                 0.0259                 0.1362
 IR Inten    --      0.6412                23.7708                 9.6407

                      4                      5                      6
                      A                      A                      A
 Frequencies --    315.6161               395.1341               500.3727
 Red. masses --      3.1320                 2.5192                 1.1218
 Frc consts  --      0.1838                 0.2317                 0.1655
 IR Inten    --      1.8060                 3.4268                35.7884

                      7                      8                      9
                      A                      A                      A
 Frequencies --    596.2701               615.2488               720.3776
 Red. masses --      2.3156                 3.8339                 1.4973
 Frc consts  --      0.4851                 0.8550                 0.4578
 IR Inten    --     56.5543                13.5007               199.9571

                     10                     11                     12
                      A                      A                      A
 Frequencies --    878.5694               924.9306              1007.3424
 Red. masses --      3.6553                 2.3700                 1.3670
 Frc consts  --      1.6624                 1.1946                 0.8173
 IR Inten    --      8.6661                78.9920                20.2234

                     13                     14                     15
                      A                      A                      A
 Frequencies --   1063.8291              1078.2620              1187.9541
 Red. masses --      1.5626                 1.5537                 1.6387
 Frc consts  --      1.0419                 1.0643                 1.3625
 IR Inten    --      7.8761                28.1237                18.6273

                     16                     17                     18
                      A                      A                      A
 Frequencies --   1309.0414              1377.2872              1436.0125
 Red. masses --      1.4504                 1.6015                 1.9029
 Frc consts  --      1.4643                 1.7898                 2.3120
 IR Inten    --     20.0047                18.2976                29.0753

                     19                     20                     21
                      A                      A                      A
 Frequencies --   1491.5846              1497.7708              1626.8114
 Red. masses --      1.0539                 1.0559                 1.2312
 Frc consts  --      1.3814                 1.3956                 1.9198
 IR Inten    --      7.8710                 6.1236                63.2178

                     22                     23                     24
                      A                      A                      A
 Frequencies --   1665.8653              1743.6255              3036.1867
 Red. masses --      1.1218                 4.5156                 1.0408
 Frc consts  --      1.8341                 8.0886                 5.6527
 IR Inten    --     26.7968               106.7565                29.7697

                     25                     26                     27
                      A                      A                      A
 Frequencies --   3090.6548              3167.5684              3410.6198
 Red. masses --      1.0998                 1.0984                 1.0568
 Frc consts  --      6.1894                 6.4935                 7.2426
 IR Inten    --     21.5856                 6.4596                 5.1191

                     28                     29                     30
                      A                      A                      A
 Frequencies --   3514.8027              3563.7925              3650.3875
 Red. masses --      1.0497                 1.0856                 1.0956
 Frc consts  --      7.6403                 8.1235                 8.6016
 IR Inten    --     15.2881                 3.0438                18.6799

 - Thermochemistry -
 -------------------
 Temperature   298.150 Kelvin.  Pressure   1.00000 Atm.
 Atom     1 has atomic number  6 and mass  12.00000

 Molecular mass:    73.06400 amu.
 Principal axes and moments of inertia in atomic units:
                           1         2         3
     Eigenvalues --   188.67522 441.97234 612.31582
           X            0.99971   0.02172   0.01069
           Y           -0.02155   0.99965  -0.01541
           Z           -0.01103   0.01518   0.99982
 This molecule is an asymmetric top.
 Rotational symmetry number  1.
 Rotational temperatures (Kelvin)      0.45906     0.19597     0.14145
 Rotational constants (GHZ):           9.56533     4.08338     2.94740
 Zero-point vibrational energy     272263.2 (Joules/Mol)
                                   65.07246 (Kcal/Mol)
 Warning -- explicit consideration of   8 degrees of freedom as
           vibrations may cause significant error
 Vibrational temperatures:    239.63   288.38   411.41   454.10   568.51
          (Kelvin)            719.92   857.90   885.20  1036.46  1264.06
                             1330.77  1449.34  1530.61  1551.38  1709.20
                             1883.42  1981.61  2066.10  2146.05  2154.96
                             2340.62  2396.81  2508.69  4368.39  4446.76
                             4557.42  4907.11  5057.01  5127.50  5252.09

 Zero-point correction=                           0.103700 (Hartree/Particle)
 Thermal correction to Energy=                    0.109762
 Thermal correction to Enthalpy=                  0.110706
 Thermal correction to Gibbs Free Energy=         0.075019
 Sum of electronic and zero-point Energies=           -244.558690
 Sum of electronic and thermal Energies=              -244.552628
 Sum of electronic and thermal Enthalpies=            -244.551684
 Sum of electronic and thermal Free Energies=         -244.587371

                     E (Thermal)             CV                S
                      KCal/Mol        Cal/Mol-Kelvin    Cal/Mol-Kelvin
 Total                   68.877             21.403             75.111
 Electronic               0.000              0.000              0.000
 Translational            0.889              2.981             38.783
 Rotational               0.889              2.981             25.438
 Vibrational             67.099             15.442             10.890
 Vibration     1          0.624              1.884              2.474
 Vibration     2          0.638              1.839              2.129
 Vibration     3          0.684              1.700              1.498
 Vibration     4          0.703              1.644              1.333
 Vibration     5          0.762              1.481              0.981
 Vibration     6          0.856              1.249              0.657
 Vibration     7          0.954              1.040              0.456
 Vibration     8          0.975              1.000              0.424

 Optimization completed.
    -- Stationary point found.
 Normal termination of Gaussian 09 at Thu Sep  8 15:19:12 2022.
