 Gaussian 09, Revision E.01,
 Gaussian 09:  ES64L-G09RevE.01 30-Nov-2015

 ----------------------------
 #P OPT Freq B3LYP/6-31G(d,p)
 ----------------------------

 ---------
 Frag_1140
 ---------
 Symbolic Z-matrix:
 Charge =  0 Multiplicity = 1

 SCF Done:  E(RB3LYP) =  -260.645656099     A.U. after   15 cycles
 SCF Done:  E(RB3LYP) =  -260.645545503     A.U. after   11 cycles
 SCF Done:  E(RB3LYP) =  -260.645701162     A.U. after    7 cycles
 SCF Done:  E(RB3LYP) =  -260.645614272     A.U. after   12 cycles
 SCF Done:  E(RB3LYP) =  -260.645756645     A.U. after    8 cycles
 SCF Done:  E(RB3LYP) =  -260.645760606     A.U. after   10 cycles
 SCF Done:  E(RB3LYP) =  -260.645775192     A.U. after    9 cycles
 SCF Done:  E(RB3LYP) =  -260.645782893     A.U. after   11 cycles
 SCF Done:  E(RB3LYP) =  -260.645789439     A.U. after   11 cycles
 SCF Done:  E(RB3LYP) =  -260.645793870     A.U. after   10 cycles
 SCF Done:  E(RB3LYP) =  -260.645797909     A.U. after   10 cycles
 SCF Done:  E(RB3LYP) =  -260.645799280     A.U. after    9 cycles
 SCF Done:  E(RB3LYP) =  -260.645799477     A.U. after    8 cycles
 SCF Done:  E(RB3LYP) =  -260.645799513     A.U. after    7 cycles
 Optimization completed.
    -- Stationary point found.
 Normal termination of Gaussian 09 at Thu Sep  8 14:50:27 2022.

 ----------------------------------------------------------------------
 #P Geom=AllCheck Guess=TCheck SCRF=Check GenChk RB3LYP/6-31G(d,p) Freq
 ----------------------------------------------------------------------

 Structure from the checkpoint file:  "B3LYP6-31Gdp.Frag_1140.chk"
 ---------
 Frag_1140
 ---------
 Charge =  0 Multiplicity = 1

                         Standard orientation:
 ---------------------------------------------------------------------
 Center     Atomic      Atomic             Coordinates (Angstroms)
 Number     Number       Type             X           Y           Z
 ---------------------------------------------------------------------
      1          7           0       -1.796752   -0.539208   -0.032278
      2          6           0       -0.572798   -0.140126    0.015801
      3          7           0       -0.341766    1.320372   -0.011171
      4          7           0        0.543249   -0.921039    0.087580
      5          7           0        1.725449   -0.065878   -0.048128
      6          1           0       -1.804006   -1.562558   -0.059724
      7          1           0       -1.021968    1.705528   -0.662380
      8          1           0       -0.603068    1.694418    0.900322
      9          1           0        2.332282   -0.133401    0.774660
     10          1           0        1.340759    0.920295   -0.157226
     11          1           0        2.281526   -0.343260   -0.862485
 ---------------------------------------------------------------------

 SCF Done:  E(RB3LYP) =  -260.645799513     A.U. after    1 cycles

 The electronic state is 1-A.
 Alpha  occ. eigenvalues --  -14.45023 -14.33443 -14.29646 -14.24313 -10.23605
 Alpha  occ. eigenvalues --   -1.01062  -0.90825  -0.82044  -0.76004  -0.57773
 Alpha  occ. eigenvalues --   -0.56842  -0.52945  -0.49511  -0.47890  -0.41532
 Alpha  occ. eigenvalues --   -0.31143  -0.28496  -0.25965  -0.22459  -0.16994
 Alpha virt. eigenvalues --    0.03318   0.07933   0.09213   0.09796   0.13814
 Alpha virt. eigenvalues --    0.16299   0.17126   0.17812   0.27874   0.39435
 Alpha virt. eigenvalues --    0.43793   0.54712   0.59393   0.63382   0.65155

 Mulliken charges:
               1
     1  N   -0.615555
     2  C    0.512899
     3  N   -0.686298
     4  N   -0.485335
     5  N   -0.405529
     6  H    0.206887
     7  H    0.274166
     8  H    0.271691
     9  H    0.305019
    10  H    0.313543
    11  H    0.308511
 Sum of Mulliken charges =  -0.00000

 Dipole moment (field-independent basis, Debye):
    X=              5.5924    Y=              2.8722    Z=             -0.0107  Tot=              6.2869
 Quadrupole moment (field-independent basis, Debye-Ang):
   XX=            -26.1715   YY=            -30.1804   ZZ=            -28.5129
   XY=             -0.8619   XZ=             -0.2711   YZ=              1.2173

  Exact polarizability:  60.143   1.819  39.937   0.712   0.317  25.020
 Approx polarizability:  94.823   0.947  56.504   2.072  -0.189  35.622

                      1                      2                      3
                      A                      A                      A
 Frequencies --     60.2520               210.7326               392.6537
 Red. masses --      1.8604                 1.4130                 2.9376
 Frc consts  --      0.0040                 0.0370                 0.2668
 IR Inten    --      3.0311                51.9995                59.8821

                      4                      5                      6
                      A                      A                      A
 Frequencies --    463.6661               522.4984               578.3398
 Red. masses --      1.1938                 2.7022                 2.9391
 Frc consts  --      0.1512                 0.4346                 0.5792
 IR Inten    --     12.4708                36.9888                 4.6785

                      7                      8                      9
                      A                      A                      A
 Frequencies --    642.8883               797.4978               812.4950
 Red. masses --      4.3651                 6.0672                 1.2753
 Frc consts  --      1.0629                 2.2735                 0.4960
 IR Inten    --     25.3002                18.7686                72.3479

                     10                     11                     12
                      A                      A                      A
 Frequencies --    890.1658               957.4123              1103.4273
 Red. masses --      5.1482                 1.5877                 1.1806
 Frc consts  --      2.4035                 0.8575                 0.8469
 IR Inten    --     30.1143               153.6253                18.1090

                     13                     14                     15
                      A                      A                      A
 Frequencies --   1120.5970              1175.8565              1199.1981
 Red. masses --      1.4830                 1.3252                 1.5738
 Frc consts  --      1.0972                 1.0796                 1.3335
 IR Inten    --     43.7588                 0.6475                78.1121

                     16                     17                     18
                      A                      A                      A
 Frequencies --   1332.0021              1454.4814              1624.8489
 Red. masses --      1.4314                 1.9288                 1.2473
 Frc consts  --      1.4964                 2.4041                 1.9402
 IR Inten    --     15.1430               195.2380               131.1167

                     19                     20                     21
                      A                      A                      A
 Frequencies --   1650.5432              1683.2766              1701.9380
 Red. masses --      1.1205                 1.1402                 2.8375
 Frc consts  --      1.7985                 1.9034                 4.8425
 IR Inten    --     41.0873                53.4672               244.8047

                     22                     23                     24
                      A                      A                      A
 Frequencies --   2826.4926              3390.5322              3427.6900
 Red. masses --      1.0688                 1.0518                 1.0974
 Frc consts  --      5.0308                 7.1237                 7.5967
 IR Inten    --    355.0012                14.4836                 7.3379

                     25                     26                     27
                      A                      A                      A
 Frequencies --   3460.4083              3494.7210              3572.8032
 Red. masses --      1.0727                 1.0523                 1.0891
 Frc consts  --      7.5683                 7.5718                 8.1907
 IR Inten    --      8.3684                 5.4625                13.5006

 - Thermochemistry -
 -------------------
 Temperature   298.150 Kelvin.  Pressure   1.00000 Atm.
 Atom     1 has atomic number  7 and mass  14.00307

 Molecular mass:    74.05925 amu.
 Principal axes and moments of inertia in atomic units:
                           1         2         3
     Eigenvalues --   188.07444 416.21433 584.32594
           X            0.99999   0.00423  -0.00116
           Y           -0.00422   0.99993   0.01128
           Z            0.00120  -0.01127   0.99994
 This molecule is an asymmetric top.
 Rotational symmetry number  1.
 Rotational temperatures (Kelvin)      0.46053     0.20810     0.14823
 Rotational constants (GHZ):           9.59589     4.33609     3.08859
 Zero-point vibrational energy     242527.4 (Joules/Mol)
                                   57.96544 (Kcal/Mol)
 Warning -- explicit consideration of   6 degrees of freedom as
           vibrations may cause significant error
 Vibrational temperatures:     86.69   303.20   564.94   667.11   751.76
          (Kelvin)            832.10   924.97  1147.42  1169.00  1280.75
                             1377.50  1587.58  1612.29  1691.79  1725.38
                             1916.45  2092.67  2337.79  2374.76  2421.86
                             2448.71  4066.69  4878.21  4931.68  4978.75
                             5028.12  5140.46

 Zero-point correction=                           0.092374 (Hartree/Particle)
 Thermal correction to Energy=                    0.098013
 Thermal correction to Enthalpy=                  0.098957
 Thermal correction to Gibbs Free Energy=         0.063423
 Sum of electronic and zero-point Energies=           -260.553426
 Sum of electronic and thermal Energies=              -260.547786
 Sum of electronic and thermal Enthalpies=            -260.546842
 Sum of electronic and thermal Free Energies=         -260.582376

                     E (Thermal)             CV                S
                      KCal/Mol        Cal/Mol-Kelvin    Cal/Mol-Kelvin
 Total                   61.504             19.377             74.788
 Electronic               0.000              0.000              0.000
 Translational            0.889              2.981             38.823
 Rotational               0.889              2.981             25.329
 Vibrational             59.727             13.415             10.637
 Vibration     1          0.597              1.973              4.449
 Vibration     2          0.643              1.824              2.037
 Vibration     3          0.760              1.486              0.990
 Vibration     4          0.821              1.331              0.756
 Vibration     5          0.877              1.200              0.604
 Vibration     6          0.935              1.078              0.488

 Optimization completed.
    -- Stationary point found.
 Normal termination of Gaussian 09 at Thu Sep  8 14:50:35 2022.
