 Gaussian 09, Revision E.01,
 Gaussian 09:  ES64L-G09RevE.01 30-Nov-2015

 ----------------------------
 #P OPT Freq B3LYP/6-31G(d,p)
 ----------------------------

 --------
 Frag_484
 --------
 Symbolic Z-matrix:
 Charge =  0 Multiplicity = 1

 SCF Done:  E(RB3LYP) =  -228.630814748     A.U. after   13 cycles
 SCF Done:  E(RB3LYP) =  -228.630869260     A.U. after   10 cycles
 SCF Done:  E(RB3LYP) =  -228.630881267     A.U. after    9 cycles
 SCF Done:  E(RB3LYP) =  -228.630901287     A.U. after   11 cycles
 SCF Done:  E(RB3LYP) =  -228.630918008     A.U. after   10 cycles
 SCF Done:  E(RB3LYP) =  -228.630923533     A.U. after    9 cycles
 SCF Done:  E(RB3LYP) =  -228.630924097     A.U. after    7 cycles
 SCF Done:  E(RB3LYP) =  -228.630924338     A.U. after    7 cycles
 Optimization completed.
    -- Stationary point found.
 Normal termination of Gaussian 09 at Thu Sep  8 14:55:12 2022.

 ----------------------------------------------------------------------
 #P Geom=AllCheck Guess=TCheck SCRF=Check GenChk RB3LYP/6-31G(d,p) Freq
 ----------------------------------------------------------------------

 Structure from the checkpoint file:  "B3LYP6-31Gdp.Frag_484.chk"
 --------
 Frag_484
 --------
 Charge =  0 Multiplicity = 1

                         Standard orientation:
 ---------------------------------------------------------------------
 Center     Atomic      Atomic             Coordinates (Angstroms)
 Number     Number       Type             X           Y           Z
 ---------------------------------------------------------------------
      1          6           0       -1.799985   -0.648571    0.015813
      2          6           0       -0.442494   -0.006035   -0.006572
      3          7           0       -0.428719    1.389924    0.078406
      4          6           0        0.698673   -0.721048   -0.024555
      5          7           0        1.964530   -0.042325   -0.026561
      6          1           0       -2.408441   -0.312005   -0.834691
      7          1           0       -1.722147   -1.736866   -0.035419
      8          1           0       -2.347262   -0.380565    0.927300
      9          1           0       -1.165231    1.842126   -0.451118
     10          1           0        0.491063    1.752675   -0.158223
     11          1           0        0.656331   -1.809552   -0.006092
     12          1           0        2.635595   -0.522689   -0.619581
     13          1           0        2.372252   -0.012393    0.906790
 ---------------------------------------------------------------------

 SCF Done:  E(RB3LYP) =  -228.630924338     A.U. after    1 cycles

 The electronic state is 1-A.
 Alpha  occ. eigenvalues --  -14.31577 -14.31318 -10.20264 -10.17757 -10.17379
 Alpha  occ. eigenvalues --   -0.90082  -0.85861  -0.73709  -0.65790  -0.53353
 Alpha  occ. eigenvalues --   -0.49838  -0.46564  -0.46027  -0.41934  -0.40097
 Alpha  occ. eigenvalues --   -0.37715  -0.36147  -0.30003  -0.24598  -0.18239
 Alpha virt. eigenvalues --    0.05770   0.08822   0.10584   0.14527   0.15050
 Alpha virt. eigenvalues --    0.16241   0.17624   0.19056   0.21257   0.25670
 Alpha virt. eigenvalues --    0.26305   0.38636   0.43470   0.53646   0.54266

 Mulliken charges:
               1
     1  C   -0.367676
     2  C    0.310373
     3  N   -0.634609
     4  C   -0.068397
     5  N   -0.636867
     6  H    0.103540
     7  H    0.113479
     8  H    0.123815
     9  H    0.240028
    10  H    0.267326
    11  H    0.056343
    12  H    0.243370
    13  H    0.249275
 Sum of Mulliken charges =  -0.00000

 Dipole moment (field-independent basis, Debye):
    X=              0.2143    Y=             -0.3898    Z=             -0.5692  Tot=              0.7224
 Quadrupole moment (field-independent basis, Debye-Ang):
   XX=            -26.0454   YY=            -29.8936   ZZ=            -32.1922
   XY=             -2.1622   XZ=              1.7874   YZ=             -1.7102

  Exact polarizability:  63.139  -6.165  49.170   0.824   0.072  30.200
 Approx polarizability:  86.089 -15.197  71.454   0.335   1.521  42.635

                      1                      2                      3
                      A                      A                      A
 Frequencies --    148.2708               197.1419               272.9446
 Red. masses --      1.1102                 1.1208                 3.1206
 Frc consts  --      0.0144                 0.0257                 0.1370
 IR Inten    --     26.1535                 3.5123                 2.4362

                      4                      5                      6
                      A                      A                      A
 Frequencies --    275.6691               388.4754               436.0505
 Red. masses --      2.1764                 2.1495                 1.1943
 Frc consts  --      0.0974                 0.1911                 0.1338
 IR Inten    --      0.8828                11.6141                55.4069

                      7                      8                      9
                      A                      A                      A
 Frequencies --    549.3560               598.7859               724.1304
 Red. masses --      2.3485                 3.6181                 1.2681
 Frc consts  --      0.4176                 0.7643                 0.3918
 IR Inten    --     42.8823                21.9186               142.3639

                     10                     11                     12
                      A                      A                      A
 Frequencies --    806.3428               835.8165               913.5579
 Red. masses --      1.3529                 1.4029                 2.5202
 Frc consts  --      0.5183                 0.5774                 1.2393
 IR Inten    --     96.7325               127.7579                34.0556

                     13                     14                     15
                      A                      A                      A
 Frequencies --   1011.1470              1070.4095              1090.6329
 Red. masses --      1.4285                 1.5299                 2.3824
 Frc consts  --      0.8605                 1.0328                 1.6696
 IR Inten    --      0.9182                 9.5737                 9.0293

                     16                     17                     18
                      A                      A                      A
 Frequencies --   1181.5171              1210.3937              1320.2170
 Red. masses --      1.4432                 1.4152                 1.7152
 Frc consts  --      1.1870                 1.2216                 1.7614
 IR Inten    --     13.8738                 9.4687                 9.1291

                     19                     20                     21
                      A                      A                      A
 Frequencies --   1403.8663              1433.9187              1488.9276
 Red. masses --      1.5698                 1.5727                 1.0461
 Frc consts  --      1.8229                 1.9053                 1.3664
 IR Inten    --     23.9864                15.4345                 5.8430

                     22                     23                     24
                      A                      A                      A
 Frequencies --   1507.3853              1633.4942              1651.3185
 Red. masses --      1.0640                 1.1862                 1.1424
 Frc consts  --      1.4244                 1.8649                 1.8354
 IR Inten    --      6.5598                58.6556                 7.0111

                     25                     26                     27
                      A                      A                      A
 Frequencies --   1761.3245              3025.0703              3078.5296
 Red. masses --      4.4079                 1.0423                 1.0965
 Frc consts  --      8.0568                 5.6195                 6.1227
 IR Inten    --     48.6479                41.4336                26.1302

                     28                     29                     30
                      A                      A                      A
 Frequencies --   3134.4521              3139.7024              3472.8309
 Red. masses --      1.0951                 1.0935                 1.0520
 Frc consts  --      6.3391                 6.3513                 7.4757
 IR Inten    --      9.4633                46.4773                 2.7842

                     31                     32                     33
                      A                      A                      A
 Frequencies --   3502.4597              3557.5920              3619.5360
 Red. masses --      1.0474                 1.0893                 1.0967
 Frc consts  --      7.5701                 8.1226                 8.4650
 IR Inten    --     11.5325                 0.9760                 8.7188

 - Thermochemistry -
 -------------------
 Temperature   298.150 Kelvin.  Pressure   1.00000 Atm.
 Atom     1 has atomic number  6 and mass  12.00000

 Molecular mass:    72.06875 amu.
 Principal axes and moments of inertia in atomic units:
                           1         2         3
     Eigenvalues --   195.80090 485.28930 658.92898
           X            0.99993   0.00974   0.00650
           Y           -0.00963   0.99982  -0.01646
           Z           -0.00666   0.01639   0.99984
 This molecule is an asymmetric top.
 Rotational symmetry number  1.
 Rotational temperatures (Kelvin)      0.44236     0.17848     0.13145
 Rotational constants (GHZ):           9.21723     3.71890     2.73890
 Zero-point vibrational energy     301705.8 (Joules/Mol)
                                   72.10941 (Kcal/Mol)
 Warning -- explicit consideration of   8 degrees of freedom as
           vibrations may cause significant error
 Vibrational temperatures:    213.33   283.64   392.71   396.63   558.93
          (Kelvin)            627.38   790.40   861.52  1041.86  1160.15
                             1202.55  1314.40  1454.81  1540.08  1569.18
                             1699.94  1741.48  1899.50  2019.85  2063.09
                             2142.23  2168.79  2350.23  2375.88  2534.15
                             4352.40  4429.31  4509.77  4517.33  4996.62
                             5039.25  5118.58  5207.70

 Zero-point correction=                           0.114914 (Hartree/Particle)
 Thermal correction to Energy=                    0.121276
 Thermal correction to Enthalpy=                  0.122220
 Thermal correction to Gibbs Free Energy=         0.085912
 Sum of electronic and zero-point Energies=           -228.516011
 Sum of electronic and thermal Energies=              -228.509648
 Sum of electronic and thermal Enthalpies=            -228.508704
 Sum of electronic and thermal Free Energies=         -228.545013

                     E (Thermal)             CV                S
                      KCal/Mol        Cal/Mol-Kelvin    Cal/Mol-Kelvin
 Total                   76.102             22.696             76.417
 Electronic               0.000              0.000              0.000
 Translational            0.889              2.981             38.742
 Rotational               0.889              2.981             25.641
 Vibrational             74.324             16.734             12.035
 Vibration     1          0.618              1.905              2.694
 Vibration     2          0.637              1.844              2.160
 Vibration     3          0.676              1.723              1.577
 Vibration     4          0.677              1.718              1.560
 Vibration     5          0.757              1.495              1.006
 Vibration     6          0.797              1.392              0.839
 Vibration     7          0.905              1.141              0.546
 Vibration     8          0.957              1.034              0.452

 Optimization completed.
    -- Stationary point found.
 Normal termination of Gaussian 09 at Thu Sep  8 14:55:21 2022.
