 Gaussian 09, Revision E.01,
 Gaussian 09:  ES64L-G09RevE.01 30-Nov-2015

 ----------------------------
 #P OPT Freq B3LYP/6-31G(d,p)
 ----------------------------

 --------
 Frag_575
 --------
 Symbolic Z-matrix:
 Charge =  0 Multiplicity = 1

 SCF Done:  E(RB3LYP) =  -248.494116174     A.U. after   13 cycles
 SCF Done:  E(RB3LYP) =  -248.494162142     A.U. after    9 cycles
 SCF Done:  E(RB3LYP) =  -248.494163990     A.U. after    8 cycles
 Optimization completed.
    -- Stationary point found.
 Normal termination of Gaussian 09 at Thu Sep  8 15:08:41 2022.

 ----------------------------------------------------------------------
 #P Geom=AllCheck Guess=TCheck SCRF=Check GenChk RB3LYP/6-31G(d,p) Freq
 ----------------------------------------------------------------------

 Structure from the checkpoint file:  "B3LYP6-31Gdp.Frag_575.chk"
 --------
 Frag_575
 --------
 Charge =  0 Multiplicity = 1

                         Standard orientation:
 ---------------------------------------------------------------------
 Center     Atomic      Atomic             Coordinates (Angstroms)
 Number     Number       Type             X           Y           Z
 ---------------------------------------------------------------------
      1          6           0       -1.845989   -0.527367   -0.001412
      2          6           0       -0.508034    0.168130    0.000961
      3          7           0       -0.442326    1.438583    0.001646
      4          6           0        0.706684   -0.748227    0.002113
      5          8           0        1.880437    0.041539   -0.006405
      6          1           0       -1.956958   -1.173417    0.878190
      7          1           0       -1.956410   -1.167918   -0.885063
      8          1           0       -2.642906    0.217239    0.000632
      9          1           0        0.544640    1.720712    0.003118
     10          1           0        0.653865   -1.399460    0.891081
     11          1           0        0.648791   -1.410133   -0.878707
     12          1           0        2.645797   -0.544636    0.020496
 ---------------------------------------------------------------------

 SCF Done:  E(RB3LYP) =  -248.494163990     A.U. after    1 cycles

 The electronic state is 1-A.
 Alpha  occ. eigenvalues --  -19.16093 -14.30230 -10.24642 -10.22922 -10.18263
 Alpha  occ. eigenvalues --   -1.03537  -0.89220  -0.74179  -0.69131  -0.53848
 Alpha  occ. eigenvalues --   -0.52342  -0.48047  -0.47056  -0.41008  -0.39043
 Alpha  occ. eigenvalues --   -0.38279  -0.35591  -0.29587  -0.28143  -0.25056
 Alpha virt. eigenvalues --    0.01463   0.06081   0.09800   0.15015   0.15407
 Alpha virt. eigenvalues --    0.16598   0.18064   0.18503   0.20209   0.23434
 Alpha virt. eigenvalues --    0.29546   0.41999   0.51183   0.53753   0.55570

 Mulliken charges:
               1
     1  C   -0.360313
     2  C    0.264308
     3  N   -0.516324
     4  C    0.021998
     5  O   -0.542633
     6  H    0.115071
     7  H    0.115492
     8  H    0.141278
     9  H    0.247240
    10  H    0.099249
    11  H    0.099265
    12  H    0.315369
 Sum of Mulliken charges =  -0.00000

 Dipole moment (field-independent basis, Debye):
    X=              1.4628    Y=             -3.3869    Z=              0.0542  Tot=              3.6896
 Quadrupole moment (field-independent basis, Debye-Ang):
   XX=            -26.5757   YY=            -32.4344   ZZ=            -31.0464
   XY=             -0.0534   XZ=              0.1513   YZ=             -0.0259

  Exact polarizability:  46.879   1.601  49.229   0.086  -0.025  29.622
 Approx polarizability:  57.093   2.563  78.516   0.097  -0.064  41.819

                      1                      2                      3
                      A                      A                      A
 Frequencies --     74.6164               147.1156               191.3258
 Red. masses --      2.0119                 1.1006                 1.1660
 Frc consts  --      0.0066                 0.0140                 0.0251
 IR Inten    --     50.8589                16.5880                72.8863

                      4                      5                      6
                      A                      A                      A
 Frequencies --    287.0596               407.8305               453.3783
 Red. masses --      3.6092                 3.4240                 2.2816
 Frc consts  --      0.1752                 0.3355                 0.2763
 IR Inten    --      1.6598                 1.7477                 0.1866

                      7                      8                      9
                      A                      A                      A
 Frequencies --    589.1578               810.0819               845.6551
 Red. masses --      3.8343                 2.9219                 1.1735
 Frc consts  --      0.7841                 1.1297                 0.4945
 IR Inten    --     31.4355                 6.7895                44.3472

                     10                     11                     12
                      A                      A                      A
 Frequencies --    981.0045              1069.6956              1100.8042
 Red. masses --      2.0139                 1.2998                 1.7594
 Frc consts  --      1.1419                 0.8763                 1.2561
 IR Inten    --     28.1655                20.0291                 2.4466

                     13                     14                     15
                      A                      A                      A
 Frequencies --   1107.2773              1138.8451              1214.1324
 Red. masses --      2.6843                 2.2844                 1.1203
 Frc consts  --      1.9391                 1.7456                 0.9730
 IR Inten    --     40.0990                17.1051                83.0782

                     16                     17                     18
                      A                      A                      A
 Frequencies --   1261.1850              1375.0176              1425.5536
 Red. masses --      1.0857                 1.3026                 1.3725
 Frc consts  --      1.0174                 1.4510                 1.6433
 IR Inten    --      0.2103                82.1351                25.8870

                     19                     20                     21
                      A                      A                      A
 Frequencies --   1455.9532              1487.4653              1496.4833
 Red. masses --      1.7076                 1.0660                 1.0450
 Frc consts  --      2.1327                 1.3897                 1.3789
 IR Inten    --     25.9299                 2.1814                10.0684

                     22                     23                     24
                      A                      A                      A
 Frequencies --   1517.7357              1753.1901              2969.8838
 Red. masses --      1.1060                 8.3918                 1.0552
 Frc consts  --      1.5010                15.1972                 5.4835
 IR Inten    --      5.8936                51.8295                44.0624

                     25                     26                     27
                      A                      A                      A
 Frequencies --   2994.7349              3037.1202              3090.2516
 Red. masses --      1.1051                 1.0394                 1.0998
 Frc consts  --      5.8394                 5.6489                 6.1879
 IR Inten    --     47.7545                17.9299                21.8877

                     28                     29                     30
                      A                      A                      A
 Frequencies --   3161.2761              3431.1261              3844.0268
 Red. masses --      1.0996                 1.0726                 1.0668
 Frc consts  --      6.4746                 7.4397                 9.2873
 IR Inten    --      7.5855                 1.4350                27.5178

 - Thermochemistry -
 -------------------
 Temperature   298.150 Kelvin.  Pressure   1.00000 Atm.
 Atom     1 has atomic number  6 and mass  12.00000

 Molecular mass:    73.05276 amu.
 Principal axes and moments of inertia in atomic units:
                           1         2         3
     Eigenvalues --   187.09063 483.42803 648.04753
           X            0.99977   0.02129   0.00060
           Y           -0.02129   0.99977  -0.00023
           Z           -0.00061   0.00022   1.00000
 This molecule is an asymmetric top.
 Rotational symmetry number  1.
 Rotational temperatures (Kelvin)      0.46295     0.17917     0.13365
 Rotational constants (GHZ):           9.64635     3.73322     2.78489
 Zero-point vibrational energy     267478.9 (Joules/Mol)
                                   63.92900 (Kcal/Mol)
 Warning -- explicit consideration of   7 degrees of freedom as
           vibrations may cause significant error
 Vibrational temperatures:    107.36   211.67   275.27   413.01   586.78
          (Kelvin)            652.31   847.67  1165.53  1216.71  1411.44
                             1539.05  1583.81  1593.12  1638.54  1746.86
                             1814.56  1978.34  2051.05  2094.79  2140.13
                             2153.10  2183.68  2522.45  4273.00  4308.75
                             4369.73  4446.18  4548.37  4936.62  5530.69

 Zero-point correction=                           0.101877 (Hartree/Particle)
 Thermal correction to Energy=                    0.108229
 Thermal correction to Enthalpy=                  0.109173
 Thermal correction to Gibbs Free Energy=         0.072175
 Sum of electronic and zero-point Energies=           -248.392287
 Sum of electronic and thermal Energies=              -248.385935
 Sum of electronic and thermal Enthalpies=            -248.384991
 Sum of electronic and thermal Free Energies=         -248.421989

                     E (Thermal)             CV                S
                      KCal/Mol        Cal/Mol-Kelvin    Cal/Mol-Kelvin
 Total                   67.914             20.883             77.869
 Electronic               0.000              0.000              0.000
 Translational            0.889              2.981             38.782
 Rotational               0.889              2.981             25.575
 Vibrational             66.137             14.921             13.512
 Vibration     1          0.599              1.966              4.028
 Vibration     2          0.617              1.906              2.709
 Vibration     3          0.634              1.852              2.215
 Vibration     4          0.684              1.698              1.491
 Vibration     5          0.772              1.453              0.934
 Vibration     6          0.812              1.353              0.786
 Vibration     7          0.946              1.055              0.469

 Normal termination of Gaussian 09 at Thu Sep  8 15:08:49 2022.
