 Gaussian 09, Revision E.01,
 Gaussian 09:  ES64L-G09RevE.01 30-Nov-2015

 -------------------------
 #P OPT Freq B3LYP/6-31G**
 -------------------------

 --------
 Frag_127
 --------
 Symbolic Z-matrix:
 Charge =  0 Multiplicity = 1

 SCF Done:  E(RB3LYP) =  -213.799712510     A.U. after   12 cycles
 SCF Done:  E(RB3LYP) =  -213.802831546     A.U. after   10 cycles
 SCF Done:  E(RB3LYP) =  -213.803165475     A.U. after   10 cycles
 SCF Done:  E(RB3LYP) =  -213.803226939     A.U. after   10 cycles
 SCF Done:  E(RB3LYP) =  -213.803235812     A.U. after    9 cycles
 SCF Done:  E(RB3LYP) =  -213.803238330     A.U. after    8 cycles
 SCF Done:  E(RB3LYP) =  -213.803238765     A.U. after    7 cycles
 Optimization completed.
    -- Stationary point found.
 Normal termination of Gaussian 09 at Sat Aug 21 01:37:12 2021.

 ----------------------------------------------------------------------
 #P Geom=AllCheck Guess=TCheck SCRF=Check GenChk RB3LYP/6-31G(d,p) Freq
 ----------------------------------------------------------------------

 Structure from the checkpoint file:  "/public/home/users/caep010/.cache/gau_scr/Gau-36278.chk"
 --------
 Frag_127
 --------
 Charge =  0 Multiplicity = 1

                         Standard orientation:
 ---------------------------------------------------------------------
 Center     Atomic      Atomic             Coordinates (Angstroms)
 Number     Number       Type             X           Y           Z
 ---------------------------------------------------------------------
      1          6           0       -2.044462   -0.026679   -0.159675
      2          6           0       -0.716603   -0.621673    0.309379
      3          7           0        0.454188   -0.004000   -0.315857
      4          6           0        1.656911   -0.787897   -0.070187
      5          6           0        0.649001    1.380184    0.094818
      6          1           0       -2.105862   -0.045245   -1.251927
      7          1           0       -2.179418    1.007135    0.172191
      8          1           0       -2.879034   -0.608731    0.244381
      9          1           0       -0.698579   -1.685687    0.045274
     10          1           0       -0.658083   -0.574989    1.416738
     11          1           0        2.503409   -0.343978   -0.604171
     12          1           0        1.519414   -1.807674   -0.443984
     13          1           0        1.930430   -0.852348    1.001828
     14          1           0       -0.216614    1.988817   -0.178271
     15          1           0        0.815857    1.491944    1.184995
     16          1           0        1.520077    1.795149   -0.422070
 ---------------------------------------------------------------------

 SCF Done:  E(RB3LYP) =  -213.803238765     A.U. after    1 cycles

 The electronic state is 1-A.
 Alpha  occ. eigenvalues --  -14.31880 -10.20276 -10.19680 -10.19616 -10.17139
 Alpha  occ. eigenvalues --   -0.91239  -0.74506  -0.69812  -0.64224  -0.56930
 Alpha  occ. eigenvalues --   -0.47036  -0.46719  -0.44457  -0.41593  -0.39102
 Alpha  occ. eigenvalues --   -0.38217  -0.36231  -0.35325  -0.34303  -0.33353
 Alpha  occ. eigenvalues --   -0.20673
 Alpha virt. eigenvalues --    0.08580   0.12121   0.13517   0.14877   0.15408
 Alpha virt. eigenvalues --    0.16327   0.17278   0.17972   0.18663   0.18853
 Alpha virt. eigenvalues --    0.21567   0.22431   0.25351   0.26480   0.26930

 Mulliken charges:
               1
     1  C   -0.325619
     2  C   -0.016298
     3  N   -0.396490
     4  C   -0.154345
     5  C   -0.158129
     6  H    0.116757
     7  H    0.105192
     8  H    0.100386
     9  H    0.093492
    10  H    0.066528
    11  H    0.102765
    12  H    0.104068
    13  H    0.075340
    14  H    0.107806
    15  H    0.074557
    16  H    0.103988
 Sum of Mulliken charges =  -0.00000

 Dipole moment (field-independent basis, Debye):
    X=              0.0638    Y=             -0.0240    Z=              0.5287  Tot=              0.5331
 Quadrupole moment (field-independent basis, Debye-Ang):
   XX=            -32.7222   YY=            -32.5510   ZZ=            -35.7288
   XY=              0.1549   XZ=             -0.2648   YZ=              0.0239

  Exact polarizability:  58.375   0.307  52.481  -0.362  -0.039  46.243
 Approx polarizability:  70.490   0.677  69.784  -0.832   0.181  67.131

                      1                      2                      3
                      A                      A                      A
 Frequencies --     96.3533               218.8250               245.3255
 Red. masses --      1.7666                 1.1399                 1.1713
 Frc consts  --      0.0097                 0.0322                 0.0415
 IR Inten    --      0.3522                 0.5163                 0.2749

                      4                      5                      6
                      A                      A                      A
 Frequencies --    266.4128               300.7064               374.5826
 Red. masses --      1.1907                 1.7521                 2.1142
 Frc consts  --      0.0498                 0.0933                 0.1748
 IR Inten    --      1.1581                 1.0974                 5.5527

                      7                      8                      9
                      A                      A                      A
 Frequencies --    428.4006               477.5570               794.9276
 Red. masses --      2.1003                 2.5181                 2.7441
 Frc consts  --      0.2271                 0.3384                 1.0216
 IR Inten    --      0.0447                 1.5659                14.2353

                     10                     11                     12
                      A                      A                      A
 Frequencies --    816.9701               968.8161              1066.0491
 Red. masses --      1.1364                 2.2270                 1.6444
 Frc consts  --      0.4469                 1.2316                 1.1011
 IR Inten    --      0.8446                10.7619                19.3255

                     13                     14                     15
                      A                      A                      A
 Frequencies --   1078.7014              1090.6478              1126.6293
 Red. masses --      2.5079                 1.5436                 1.3041
 Frc consts  --      1.7193                 1.0818                 0.9752
 IR Inten    --     11.9529                14.2881                 3.7283

                     16                     17                     18
                      A                      A                      A
 Frequencies --   1128.6973              1200.4232              1259.2137
 Red. masses --      1.4512                 1.6584                 2.1789
 Frc consts  --      1.0893                 1.4080                 2.0355
 IR Inten    --      9.9875                16.0867                12.1004

                     19                     20                     21
                      A                      A                      A
 Frequencies --   1307.3048              1338.9102              1403.9939
 Red. masses --      2.5172                 1.2497                 1.2861
 Frc consts  --      2.5346                 1.3200                 1.4936
 IR Inten    --     16.4396                14.1447                 7.0829

                     22                     23                     24
                      A                      A                      A
 Frequencies --   1429.9746              1453.8280              1483.5901
 Red. masses --      1.3461                 1.1600                 1.1831
 Frc consts  --      1.6218                 1.4446                 1.5343
 IR Inten    --     22.5726                 1.7709                 0.9199

                     25                     26                     27
                      A                      A                      A
 Frequencies --   1494.4640              1500.8794              1506.7495
 Red. masses --      1.0453                 1.0542                 1.0544
 Frc consts  --      1.3756                 1.3991                 1.4104
 IR Inten    --      6.5482                 6.0224                11.6812

                     28                     29                     30
                      A                      A                      A
 Frequencies --   1514.7858              1517.3075              1525.4126
 Red. masses --      1.0491                 1.0467                 1.0586
 Frc consts  --      1.4183                 1.4197                 1.4513
 IR Inten    --      3.3411                 5.0358                 5.2257

                     31                     32                     33
                      A                      A                      A
 Frequencies --   1531.3058              2900.2412              2915.4742
 Red. masses --      1.0873                 1.0728                 1.0615
 Frc consts  --      1.5022                 5.3167                 5.3160
 IR Inten    --      4.6390                50.1252                45.2634

                     34                     35                     36
                      A                      A                      A
 Frequencies --   2928.6134              3049.9897              3058.1041
 Red. masses --      1.0633                 1.0358                 1.0866
 Frc consts  --      5.3733                 5.6769                 5.9869
 IR Inten    --    176.1949                19.7751                18.7239

                     37                     38                     39
                      A                      A                      A
 Frequencies --   3067.2187              3080.1089              3112.3373
 Red. masses --      1.0705                 1.0711                 1.1038
 Frc consts  --      5.9337                 5.9869                 6.2998
 IR Inten    --     42.3987                33.6912                17.4168

                     40                     41                     42
                      A                      A                      A
 Frequencies --   3117.8689              3126.0049              3130.9048
 Red. masses --      1.1017                 1.1024                 1.1018
 Frc consts  --      6.3098                 6.3473                 6.3634
 IR Inten    --     61.6869                20.1870                38.5982

 - Thermochemistry -
 -------------------
 Temperature   298.150 Kelvin.  Pressure   1.00000 Atm.
 Atom     1 has atomic number  6 and mass  12.00000

 Molecular mass:    73.08915 amu.
 Principal axes and moments of inertia in atomic units:
                           1         2         3
     Eigenvalues --   225.19841 503.84745 658.36953
           X            0.99996  -0.00676   0.00571
           Y            0.00676   0.99998   0.00012
           Z           -0.00571  -0.00008   0.99998
 This molecule is an asymmetric top.
 Rotational symmetry number  1.
 Rotational temperatures (Kelvin)      0.38461     0.17190     0.13156
 Rotational constants (GHZ):           8.01401     3.58192     2.74123
 Zero-point vibrational energy     391385.9 (Joules/Mol)
                                   93.54347 (Kcal/Mol)
 Warning -- explicit consideration of   8 degrees of freedom as
           vibrations may cause significant error
 Vibrational temperatures:    138.63   314.84   352.97   383.31   432.65
          (Kelvin)            538.94   616.37   687.10  1143.72  1175.44
                             1393.91  1533.80  1552.01  1569.20  1620.97
                             1623.94  1727.14  1811.73  1880.92  1926.39
                             2020.03  2057.41  2091.73  2134.55  2150.20
                             2159.43  2167.87  2179.44  2183.06  2194.73
                             2203.20  4172.79  4194.71  4213.62  4388.25
                             4399.92  4413.04  4431.58  4477.95  4485.91
                             4497.62  4504.67

 Zero-point correction=                           0.149071 (Hartree/Particle)
 Thermal correction to Energy=                    0.155842
 Thermal correction to Enthalpy=                  0.156786
 Thermal correction to Gibbs Free Energy=         0.119430
 Sum of electronic and zero-point Energies=           -213.654168
 Sum of electronic and thermal Energies=              -213.647397
 Sum of electronic and thermal Enthalpies=            -213.646453
 Sum of electronic and thermal Free Energies=         -213.683809

                     E (Thermal)             CV                S
                      KCal/Mol        Cal/Mol-Kelvin    Cal/Mol-Kelvin
 Total                   97.792             23.761             78.622
 Electronic               0.000              0.000              0.000
 Translational            0.889              2.981             38.784
 Rotational               0.889              2.981             25.816
 Vibrational             96.015             17.800             14.023
 Vibration     1          0.603              1.952              3.527
 Vibration     2          0.647              1.812              1.969
 Vibration     3          0.660              1.771              1.764
 Vibration     4          0.672              1.735              1.619
 Vibration     5          0.693              1.672              1.413
 Vibration     6          0.746              1.524              1.061
 Vibration     7          0.790              1.408              0.864
 Vibration     8          0.834              1.300              0.717

 Normal termination of Gaussian 09 at Sat Aug 21 01:37:24 2021.
