 Gaussian 09, Revision E.01,
 Gaussian 09:  ES64L-G09RevE.01 30-Nov-2015

 --------------------------------
 #P OPT=calcfc Freq B3LYP/6-31G**
 --------------------------------

 --------
 Frag_398
 --------
 Symbolic Z-matrix:
 Charge =  0 Multiplicity = 1

 SCF Done:  E(RB3LYP) =  -305.013167078     A.U. after   12 cycles
 SCF Done:  E(RB3LYP) =  -305.022124921     A.U. after   11 cycles
 SCF Done:  E(RB3LYP) =  -305.022660434     A.U. after   11 cycles
 SCF Done:  E(RB3LYP) =  -305.022686183     A.U. after    9 cycles
 SCF Done:  E(RB3LYP) =  -305.022686838     A.U. after    8 cycles
 SCF Done:  E(RB3LYP) =  -305.022686823     A.U. after    6 cycles
 Optimization completed.
    -- Stationary point found.
 Normal termination of Gaussian 09 at Fri Sep 10 15:30:47 2021.

 ----------------------------------------------------------------------
 #P Geom=AllCheck Guess=TCheck SCRF=Check GenChk RB3LYP/6-31G(d,p) Freq
 ----------------------------------------------------------------------

 Structure from the checkpoint file:  "/public/home/users/caep010/.cache/gau_scr/Gau-199500.chk"
 --------
 Frag_398
 --------
 Charge =  0 Multiplicity = 1

                         Standard orientation:
 ---------------------------------------------------------------------
 Center     Atomic      Atomic             Coordinates (Angstroms)
 Number     Number       Type             X           Y           Z
 ---------------------------------------------------------------------
      1          6           0       -0.481354    1.520398   -0.216996
      2          6           0       -0.396956    0.005432    0.029016
      3          6           0       -1.572574   -0.741565   -0.598721
      4          7           0       -0.298157   -0.355675    1.443975
      5          8           0        0.749094   -0.527629   -0.661708
      6          7           0        1.960227   -0.049214   -0.038880
      7          1           0        0.415404    2.009703    0.172788
      8          1           0       -1.355867    1.947015    0.285854
      9          1           0       -0.559874    1.739933   -1.286862
     10          1           0       -1.583560   -0.587111   -1.680569
     11          1           0       -2.521287   -0.379756   -0.189547
     12          1           0       -1.480455   -1.809717   -0.391098
     13          1           0       -1.176776   -0.140147    1.909256
     14          1           0        0.415630    0.228126    1.875381
     15          1           0        2.395829   -0.901449    0.316758
     16          1           0        2.529017    0.243069   -0.833759
 ---------------------------------------------------------------------

 SCF Done:  E(RB3LYP) =  -305.022686823     A.U. after    1 cycles

 The electronic state is 1-A.
 Alpha  occ. eigenvalues --  -19.15793 -14.36431 -14.30249 -10.25547 -10.16851
 Alpha  occ. eigenvalues --  -10.16531  -1.04902  -0.87866  -0.80480  -0.72441
 Alpha  occ. eigenvalues --   -0.68457  -0.55644  -0.50013  -0.48535  -0.47891
 Alpha  occ. eigenvalues --   -0.44452  -0.41305  -0.39166  -0.37815  -0.36897
 Alpha  occ. eigenvalues --   -0.36132  -0.33543  -0.26557  -0.25035  -0.22915
 Alpha virt. eigenvalues --    0.07543   0.08663   0.12298   0.14125   0.15075
 Alpha virt. eigenvalues --    0.15446   0.16359   0.16986   0.18810   0.20361
 Alpha virt. eigenvalues --    0.21132   0.22667   0.24243   0.27054   0.29373

 Mulliken charges:
               1
     1  C   -0.313521
     2  C    0.401162
     3  C   -0.317010
     4  N   -0.592131
     5  O   -0.442374
     6  N   -0.371727
     7  H    0.114647
     8  H    0.087348
     9  H    0.100054
    10  H    0.112160
    11  H    0.093759
    12  H    0.125886
    13  H    0.229988
    14  H    0.245248
    15  H    0.266169
    16  H    0.260342
 Sum of Mulliken charges =  -0.00000

 Dipole moment (field-independent basis, Debye):
    X=              0.3439    Y=              1.0015    Z=              0.1503  Tot=              1.0696
 Quadrupole moment (field-independent basis, Debye-Ang):
   XX=            -30.7757   YY=            -39.8220   ZZ=            -37.1386
   XY=             -1.2970   XZ=             -1.8662   YZ=              0.9286

  Exact polarizability:  60.245   0.393  46.597   0.084  -1.140  49.130
 Approx polarizability:  78.093   0.811  61.812   0.074  -0.837  69.032

                      1                      2                      3
                      A                      A                      A
 Frequencies --    122.3889               168.6105               216.8641
 Red. masses --      1.4074                 1.8906                 1.0256
 Frc consts  --      0.0124                 0.0317                 0.0284
 IR Inten    --     57.4803                15.8686                 6.8686

                      4                      5                      6
                      A                      A                      A
 Frequencies --    262.0750               275.0823               285.7179
 Red. masses --      1.1984                 2.1086                 1.1917
 Frc consts  --      0.0485                 0.0940                 0.0573
 IR Inten    --      4.2210                 2.9639                12.8836

                      7                      8                      9
                      A                      A                      A
 Frequencies --    351.3759               388.2758               423.7432
 Red. masses --      2.1886                 3.1057                 2.3219
 Frc consts  --      0.1592                 0.2759                 0.2456
 IR Inten    --      6.4422                 3.5360                 2.8805

                     10                     11                     12
                      A                      A                      A
 Frequencies --    506.3081               569.3957               766.7650
 Red. masses --      3.4541                 3.3610                 4.5030
 Frc consts  --      0.5217                 0.6420                 1.5598
 IR Inten    --      2.5307                13.6874                 7.7537

                     13                     14                     15
                      A                      A                      A
 Frequencies --    848.7580               917.4769               922.1853
 Red. masses --      2.1708                 2.0317                 1.5402
 Frc consts  --      0.9214                 1.0076                 0.7717
 IR Inten    --     86.9588                51.1039                12.6412

                     16                     17                     18
                      A                      A                      A
 Frequencies --    945.7318               966.1638              1025.5649
 Red. masses --      2.1970                 1.8668                 1.3882
 Frc consts  --      1.1577                 1.0267                 0.8602
 IR Inten    --     45.6063                12.4542                10.1580

                     19                     20                     21
                      A                      A                      A
 Frequencies --   1093.2920              1196.4237              1235.2428
 Red. masses --      1.4347                 1.7026                 2.2386
 Frc consts  --      1.0104                 1.4360                 2.0125
 IR Inten    --     11.9192                81.5719                71.2644

                     22                     23                     24
                      A                      A                      A
 Frequencies --   1275.5943              1312.3960              1357.6034
 Red. masses --      2.3949                 1.1205                 1.7313
 Frc consts  --      2.2960                 1.1371                 1.8800
 IR Inten    --     51.2997                 1.3039                10.4721

                     25                     26                     27
                      A                      A                      A
 Frequencies --   1405.2423              1424.2487              1491.8334
 Red. masses --      1.3577                 1.3539                 1.0581
 Frc consts  --      1.5796                 1.6181                 1.3875
 IR Inten    --     19.8588                14.5212                 0.9303

                     28                     29                     30
                      A                      A                      A
 Frequencies --   1500.0735              1507.7622              1522.5659
 Red. masses --      1.0464                 1.0656                 1.0561
 Frc consts  --      1.3874                 1.4273                 1.4424
 IR Inten    --      0.1334                 0.6867                 3.0085

                     31                     32                     33
                      A                      A                      A
 Frequencies --   1642.2675              1654.4350              3042.6498
 Red. masses --      1.0982                 1.0742                 1.0356
 Frc consts  --      1.7451                 1.7324                 5.6485
 IR Inten    --     52.4208                 8.2111                17.6930

                     34                     35                     36
                      A                      A                      A
 Frequencies --   3058.4377              3112.3580              3132.2092
 Red. masses --      1.0364                 1.1026                 1.1009
 Frc consts  --      5.7119                 6.2930                 6.3637
 IR Inten    --     15.8489                22.5242                29.7682

                     37                     38                     39
                      A                      A                      A
 Frequencies --   3132.8071              3152.7446              3438.7551
 Red. masses --      1.1019                 1.1037                 1.0478
 Frc consts  --      6.3715                 6.4639                 7.3003
 IR Inten    --     19.6622                17.5439                 1.7346

                     40                     41                     42
                      A                      A                      A
 Frequencies --   3490.3414              3530.0956              3578.3222
 Red. masses --      1.0493                 1.0959                 1.0920
 Frc consts  --      7.5314                 8.0463                 8.2385
 IR Inten    --      0.9329                 0.0107                 0.2138

 - Thermochemistry -
 -------------------
 Temperature   298.150 Kelvin.  Pressure   1.00000 Atm.
 Atom     1 has atomic number  6 and mass  12.00000

 Molecular mass:    90.07931 amu.
 Principal axes and moments of inertia in atomic units:
                           1         2         3
     Eigenvalues --   393.29531 641.00584 649.28695
           X            0.99982   0.00512   0.01826
           Y           -0.00604   0.99869   0.05083
           Z           -0.01798  -0.05093   0.99854
 This molecule is an asymmetric top.
 Rotational symmetry number  1.
 Rotational temperatures (Kelvin)      0.22023     0.13512     0.13340
 Rotational constants (GHZ):           4.58877     2.81548     2.77957
 Zero-point vibrational energy     372338.8 (Joules/Mol)
                                   88.99111 (Kcal/Mol)
 Warning -- explicit consideration of  11 degrees of freedom as
           vibrations may cause significant error
 Vibrational temperatures:    176.09   242.59   312.02   377.07   395.78
          (Kelvin)            411.08   505.55   558.64   609.67   728.46
                              819.23  1103.20  1221.17  1320.04  1326.82
                             1360.70  1390.09  1475.56  1573.00  1721.38
                             1777.24  1835.29  1888.24  1953.29  2021.83
                             2049.17  2146.41  2158.27  2169.33  2190.63
                             2362.85  2380.36  4377.69  4400.40  4477.98
                             4506.54  4507.41  4536.09  4947.60  5021.82
                             5079.01  5148.40

 Zero-point correction=                           0.141816 (Hartree/Particle)
 Thermal correction to Energy=                    0.149715
 Thermal correction to Enthalpy=                  0.150660
 Thermal correction to Gibbs Free Energy=         0.110896
 Sum of electronic and zero-point Energies=           -304.880870
 Sum of electronic and thermal Energies=              -304.872971
 Sum of electronic and thermal Enthalpies=            -304.872027
 Sum of electronic and thermal Free Energies=         -304.911791

                     E (Thermal)             CV                S
                      KCal/Mol        Cal/Mol-Kelvin    Cal/Mol-Kelvin
 Total                   93.948             28.690             83.691
 Electronic               0.000              0.000              0.000
 Translational            0.889              2.981             39.407
 Rotational               0.889              2.981             26.595
 Vibrational             92.170             22.728             17.689
 Vibration     1          0.610              1.930              3.062
 Vibration     2          0.625              1.881              2.451
 Vibration     3          0.646              1.815              1.985
 Vibration     4          0.669              1.742              1.648
 Vibration     5          0.677              1.719              1.564
 Vibration     6          0.684              1.700              1.499
 Vibration     7          0.728              1.572              1.160
 Vibration     8          0.756              1.495              1.007
 Vibration     9          0.786              1.419              0.879
 Vibration    10          0.862              1.236              0.643
 Vibration    11          0.925              1.097              0.505

 Optimization completed.
    -- Stationary point found.
 Normal termination of Gaussian 09 at Fri Sep 10 15:31:00 2021.
