 Gaussian 09, Revision E.01,
 Gaussian 09:  ES64L-G09RevE.01 30-Nov-2015

 ----------------------------
 #P OPT Freq B3LYP/6-31G(d,p)
 ----------------------------

 ---------
 Frag_1016
 ---------
 Symbolic Z-matrix:
 Charge =  0 Multiplicity = 1

 SCF Done:  E(RB3LYP) =  -323.706729896     A.U. after   13 cycles
 SCF Done:  E(RB3LYP) =  -323.706803344     A.U. after   11 cycles
 SCF Done:  E(RB3LYP) =  -323.706812288     A.U. after    8 cycles
 SCF Done:  E(RB3LYP) =  -323.706814715     A.U. after    8 cycles
 SCF Done:  E(RB3LYP) =  -323.706815618     A.U. after    7 cycles
 SCF Done:  E(RB3LYP) =  -323.706816356     A.U. after    8 cycles
 SCF Done:  E(RB3LYP) =  -323.706816644     A.U. after    8 cycles
 SCF Done:  E(RB3LYP) =  -323.706816766     A.U. after    7 cycles
 Optimization completed.
    -- Stationary point found.
 Normal termination of Gaussian 09 at Thu Sep  8 14:45:13 2022.

 ----------------------------------------------------------------------
 #P Geom=AllCheck Guess=TCheck SCRF=Check GenChk RB3LYP/6-31G(d,p) Freq
 ----------------------------------------------------------------------

 Structure from the checkpoint file:  "B3LYP6-31Gdp.Frag_1016.chk"
 ---------
 Frag_1016
 ---------
 Charge =  0 Multiplicity = 1

                         Standard orientation:
 ---------------------------------------------------------------------
 Center     Atomic      Atomic             Coordinates (Angstroms)
 Number     Number       Type             X           Y           Z
 ---------------------------------------------------------------------
      1          6           0        2.167010   -0.003018    0.060498
      2          6           0        1.001271   -0.642726    0.001678
      3          6           0       -0.368173    0.014618    0.014582
      4          7           0       -0.281303    1.438337   -0.152225
      5          8           0       -1.035383   -0.189190    1.234372
      6          8           0       -1.198495   -0.648371   -0.962571
      7          1           0        3.109017   -0.543211    0.059572
      8          1           0        2.208574    1.079015    0.132134
      9          1           0        0.964701   -1.730868   -0.037554
     10          1           0       -1.218384    1.822196   -0.063782
     11          1           0        0.069907    1.661099   -1.078695
     12          1           0       -1.429823   -1.069878    1.173551
     13          1           0       -0.664495   -0.799467   -1.754605
 ---------------------------------------------------------------------

 SCF Done:  E(RB3LYP) =  -323.706816766     A.U. after    1 cycles

 The electronic state is 1-A.
 Alpha  occ. eigenvalues --  -19.15056 -19.14747 -14.31845 -10.31547 -10.19067
 Alpha  occ. eigenvalues --  -10.18632  -1.06869  -0.98931  -0.87931  -0.77023
 Alpha  occ. eigenvalues --   -0.64757  -0.57757  -0.54022  -0.51970  -0.46294
 Alpha  occ. eigenvalues --   -0.44063  -0.43674  -0.38782  -0.37485  -0.35010
 Alpha  occ. eigenvalues --   -0.31929  -0.28509  -0.26290  -0.24806
 Alpha virt. eigenvalues --    0.00415   0.07010   0.11118   0.11937   0.12802
 Alpha virt. eigenvalues --    0.15666   0.16771   0.19822   0.23442   0.25012
 Alpha virt. eigenvalues --    0.29052   0.30563   0.36574   0.51483   0.54938

 Mulliken charges:
               1
     1  C   -0.232684
     2  C   -0.066750
     3  C    0.551071
     4  N   -0.577421
     5  O   -0.522659
     6  O   -0.562157
     7  H    0.099661
     8  H    0.121991
     9  H    0.085576
    10  H    0.254424
    11  H    0.234640
    12  H    0.315316
    13  H    0.298992
 Sum of Mulliken charges =   0.00000

 Dipole moment (field-independent basis, Debye):
    X=              0.6624    Y=             -0.8513    Z=             -2.3167  Tot=              2.5555
 Quadrupole moment (field-independent basis, Debye-Ang):
   XX=            -35.3337   YY=            -32.6145   ZZ=            -35.4318
   XY=             -0.8031   XZ=             -1.2352   YZ=             -3.0424

  Exact polarizability:  56.404   3.607  45.536  -1.504   0.144  33.658
 Approx polarizability:  79.914  11.457  63.884  -3.193   1.794  48.303

                      1                      2                      3
                      A                      A                      A
 Frequencies --    106.4321               231.5412               255.7445
 Red. masses --      2.7126                 1.1017                 1.2234
 Frc consts  --      0.0181                 0.0348                 0.0471
 IR Inten    --      0.7086                62.6845                41.2361

                      4                      5                      6
                      A                      A                      A
 Frequencies --    293.5311               327.5709               346.7485
 Red. masses --      2.5350                 1.9270                 1.2026
 Frc consts  --      0.1287                 0.1218                 0.0852
 IR Inten    --     18.8963                12.1635               130.0822

                      7                      8                      9
                      A                      A                      A
 Frequencies --    442.5075               473.3596               516.4406
 Red. masses --      3.0966                 2.8077                 3.3621
 Frc consts  --      0.3573                 0.3707                 0.5283
 IR Inten    --     12.9035                19.4435                 8.2658

                     10                     11                     12
                      A                      A                      A
 Frequencies --    596.7978               717.0199               786.1568
 Red. masses --      3.3685                 1.9576                 3.9193
 Frc consts  --      0.7069                 0.5930                 1.4272
 IR Inten    --     28.7236                 4.7077                 8.8636

                     13                     14                     15
                      A                      A                      A
 Frequencies --    852.7734               971.8073               978.4029
 Red. masses --      1.6015                 1.5303                 2.4677
 Frc consts  --      0.6862                 0.8515                 1.3918
 IR Inten    --    105.0876                66.3974               109.5433

                     16                     17                     18
                      A                      A                      A
 Frequencies --   1000.4744              1040.4174              1067.7195
 Red. masses --      2.2137                 1.0868                 1.7180
 Frc consts  --      1.3055                 0.6931                 1.1539
 IR Inten    --     95.8539                17.1197               113.7652

                     19                     20                     21
                      A                      A                      A
 Frequencies --   1190.7013              1216.8354              1313.3016
 Red. masses --      1.1555                 2.2310                 1.3341
 Frc consts  --      0.9652                 1.9463                 1.3557
 IR Inten    --     42.9886               174.0876                 7.6553

                     22                     23                     24
                      A                      A                      A
 Frequencies --   1392.7259              1402.0973              1458.8073
 Red. masses --      1.7206                 1.7929                 1.3496
 Frc consts  --      1.9664                 2.0767                 1.6922
 IR Inten    --     72.4515                87.4399                62.4681

                     25                     26                     27
                      A                      A                      A
 Frequencies --   1646.4444              1727.0447              3152.3121
 Red. masses --      1.1237                 4.7325                 1.0729
 Frc consts  --      1.7948                 8.3167                 6.2817
 IR Inten    --     44.2764                 0.8815                11.8075

                     28                     29                     30
                      A                      A                      A
 Frequencies --   3167.5049              3253.2750              3514.9255
 Red. masses --      1.0777                 1.1162                 1.0490
 Frc consts  --      6.3706                 6.9606                 7.6359
 IR Inten    --      9.0509                 7.7365                 3.1870

                     31                     32                     33
                      A                      A                      A
 Frequencies --   3609.9817              3808.0903              3824.0159
 Red. masses --      1.0936                 1.0663                 1.0651
 Frc consts  --      8.3970                 9.1110                 9.1769
 IR Inten    --      2.7116                17.9168                42.3118

 - Thermochemistry -
 -------------------
 Temperature   298.150 Kelvin.  Pressure   1.00000 Atm.
 Atom     1 has atomic number  6 and mass  12.00000

 Molecular mass:    89.04768 amu.
 Principal axes and moments of inertia in atomic units:
                           1         2         3
     Eigenvalues --   353.00450 627.40195 659.44764
           X            0.99992  -0.01297   0.00067
           Y            0.01288   0.98386  -0.17849
           Z            0.00166   0.17849   0.98394
 This molecule is an asymmetric top.
 Rotational symmetry number  1.
 Rotational temperatures (Kelvin)      0.24536     0.13805     0.13134
 Rotational constants (GHZ):           5.11252     2.87653     2.73675
 Zero-point vibrational energy     279229.4 (Joules/Mol)
                                   66.73743 (Kcal/Mol)
 Warning -- explicit consideration of  10 degrees of freedom as
           vibrations may cause significant error
 Vibrational temperatures:    153.13   333.14   367.96   422.33   471.30
          (Kelvin)            498.89   636.67   681.06   743.04   858.66
                             1031.63  1131.10  1226.95  1398.21  1407.70
                             1439.46  1496.93  1536.21  1713.15  1750.75
                             1889.55  2003.82  2017.30  2098.90  2368.86
                             2484.83  4535.47  4557.33  4680.73  5057.19
                             5193.95  5478.99  5501.90

 Zero-point correction=                           0.106353 (Hartree/Particle)
 Thermal correction to Energy=                    0.113468
 Thermal correction to Enthalpy=                  0.114412
 Thermal correction to Gibbs Free Energy=         0.076133
 Sum of electronic and zero-point Energies=           -323.600464
 Sum of electronic and thermal Energies=              -323.593349
 Sum of electronic and thermal Enthalpies=            -323.592405
 Sum of electronic and thermal Free Energies=         -323.630684

                     E (Thermal)             CV                S
                      KCal/Mol        Cal/Mol-Kelvin    Cal/Mol-Kelvin
 Total                   71.202             26.073             80.565
 Electronic               0.000              0.000              0.000
 Translational            0.889              2.981             39.372
 Rotational               0.889              2.981             26.482
 Vibrational             69.425             20.111             14.711
 Vibration     1          0.605              1.944              3.333
 Vibration     2          0.653              1.793              1.867
 Vibration     3          0.666              1.753              1.691
 Vibration     4          0.688              1.686              1.454
 Vibration     5          0.711              1.620              1.272
 Vibration     6          0.725              1.582              1.181
 Vibration     7          0.802              1.377              0.819
 Vibration     8          0.830              1.309              0.728
 Vibration     9          0.871              1.214              0.618
 Vibration    10          0.955              1.039              0.455

 Optimization completed.
    -- Stationary point found.
 Normal termination of Gaussian 09 at Thu Sep  8 14:45:24 2022.
