 Gaussian 09, Revision D.01,
 Gaussian 09:  ES64L-G09RevD.01 24-Apr-2013

 -------------------------
 #P OPT Freq B3LYP/6-31G**
 -------------------------

 -------
 Frag_44
 -------
 Symbolic Z-matrix:
 Charge =  0 Multiplicity = 1

 SCF Done:  E(RB3LYP) =  -362.974240445     A.U. after   15 cycles
 SCF Done:  E(RB3LYP) =  -362.974240757     A.U. after    8 cycles
 SCF Done:  E(RB3LYP) =  -362.974235311     A.U. after    9 cycles
 SCF Done:  E(RB3LYP) =  -362.974240906     A.U. after    9 cycles
 Optimization completed.
    -- Stationary point found.
 Normal termination of Gaussian 09 at Thu Jul 22 19:06:29 2021.

 ----------------------------------------------------------------------
 #P Geom=AllCheck Guess=TCheck SCRF=Check GenChk RB3LYP/6-31G(d,p) Freq
 ----------------------------------------------------------------------

 Structure from the checkpoint file:  "/vol2/users/liuj201281/HOFBenchmark/IsodesmicSplit/Sample60/Ring26/Running/Gau-246315.chk"
 -------
 Frag_44
 -------
 Charge =  0 Multiplicity = 1

                         Standard orientation:
 ---------------------------------------------------------------------
 Center     Atomic      Atomic             Coordinates (Angstroms)
 Number     Number       Type             X           Y           Z
 ---------------------------------------------------------------------
      1          6           0        0.976856   -0.754057    1.268125
      2          6           0        0.564801    0.004880    0.000011
      3          6           0        1.079823    1.441460   -0.000144
      4          6           0        0.976912   -0.754336   -1.267916
      5          7           0       -0.985836    0.028331   -0.000019
      6          8           0       -1.552763   -1.061632   -0.000009
      7          8           0       -1.557057    1.113723   -0.000059
      8          1           0        0.547385   -1.757251    1.274867
      9          1           0        0.649737   -0.223965    2.167673
     10          1           0        2.067110   -0.835944    1.298831
     11          1           0        0.743267    1.986649   -0.884141
     12          1           0        2.173885    1.419162   -0.000125
     13          1           0        0.743226    1.986843    0.883731
     14          1           0        0.547429   -1.757524   -1.274473
     15          1           0        2.067168   -0.836253   -1.298542
     16          1           0        0.649857   -0.224439   -2.167604
 ---------------------------------------------------------------------

 SCF Done:  E(RB3LYP) =  -362.974240906     A.U. after    1 cycles

 The electronic state is 1-A.
 Alpha  occ. eigenvalues --  -19.18141 -19.17857 -14.55955 -10.26149 -10.19862
 Alpha  occ. eigenvalues --  -10.19861 -10.19375  -1.21895  -1.04837  -0.85538
 Alpha  occ. eigenvalues --   -0.71334  -0.70859  -0.69142  -0.56342  -0.52644
 Alpha  occ. eigenvalues --   -0.51941  -0.50602  -0.45702  -0.45013  -0.42069
 Alpha  occ. eigenvalues --   -0.40798  -0.40574  -0.38571  -0.35967  -0.35952
 Alpha  occ. eigenvalues --   -0.30675  -0.29286  -0.28682
 Alpha virt. eigenvalues --   -0.06029   0.07306   0.08776   0.13563   0.13654
 Alpha virt. eigenvalues --    0.14590   0.15141   0.16617   0.17966   0.18116
 Alpha virt. eigenvalues --    0.19055   0.21121   0.22164   0.23137   0.29093

 Mulliken charges:
               1
     1  C   -0.307091
     2  C    0.082781
     3  C   -0.296338
     4  C   -0.307092
     5  N    0.462895
     6  O   -0.375193
     7  O   -0.377679
     8  H    0.140249
     9  H    0.121211
    10  H    0.116941
    11  H    0.126745
    12  H    0.107426
    13  H    0.126746
    14  H    0.140252
    15  H    0.116937
    16  H    0.121209
 Sum of Mulliken charges =   0.00000

 Dipole moment (field-independent basis, Debye):
    X=              3.6868    Y=             -0.0833    Z=              0.0001  Tot=              3.6877
 Quadrupole moment (field-independent basis, Debye-Ang):
   XX=            -46.5540   YY=            -44.5139   ZZ=            -40.1694
   XY=             -0.1297   XZ=             -0.0001   YZ=              0.0001

  Exact polarizability:  57.408  -0.443  61.516   0.000   0.000  49.688
 Approx polarizability:  80.974  -0.930 109.618   0.000  -0.001  66.823

                      1                      2                      3
                      A                      A                      A
 Frequencies --     41.5354               202.1485               259.4698
 Red. masses --      7.0590                 1.0759                 1.0364
 Frc consts  --      0.0072                 0.0259                 0.0411
 IR Inten    --      0.0090                 0.3018                 0.0363

                      4                      5                      6
                      A                      A                      A
 Frequencies --    260.1384               287.9324               290.4233
 Red. masses --      1.2434                 1.8541                 3.0737
 Frc consts  --      0.0496                 0.0906                 0.1527
 IR Inten    --      0.9678                 3.1061                 1.5342

                      7                      8                      9
                      A                      A                      A
 Frequencies --    357.7253               372.1027               384.0978
 Red. masses --      3.0408                 3.0661                 2.3088
 Frc consts  --      0.2293                 0.2501                 0.2007
 IR Inten    --      0.1956                 5.3603                 1.1994

                     10                     11                     12
                      A                      A                      A
 Frequencies --    528.0064               562.8592               742.3629
 Red. masses --      4.5076                 3.1427                 6.9793
 Frc consts  --      0.7404                 0.5866                 2.2662
 IR Inten    --      2.4160                 6.3122                 1.5333

                     13                     14                     15
                      A                      A                      A
 Frequencies --    801.8828               865.1432               943.5130
 Red. masses --      3.3021                 7.8154                 1.6513
 Frc consts  --      1.2510                 3.4465                 0.8661
 IR Inten    --      2.4738                27.1762                 0.7269

                     16                     17                     18
                      A                      A                      A
 Frequencies --    944.1148               978.8581              1057.2540
 Red. masses --      1.5282                 1.2030                 1.4415
 Frc consts  --      0.8025                 0.6791                 0.9493
 IR Inten    --      0.7506                 0.0559                 0.0039

                     19                     20                     21
                      A                      A                      A
 Frequencies --   1058.2859              1217.9600              1265.4832
 Red. masses --      1.4252                 2.0634                 2.8444
 Frc consts  --      0.9405                 1.8034                 2.6838
 IR Inten    --      0.7035                17.6102                 7.0842

                     22                     23                     24
                      A                      A                      A
 Frequencies --   1289.6479              1401.2769              1408.8961
 Red. masses --      2.9341                 2.4447                 1.2382
 Frc consts  --      2.8752                 2.8282                 1.4481
 IR Inten    --     15.0954                42.2655                 7.7086

                     25                     26                     27
                      A                      A                      A
 Frequencies --   1418.5603              1457.0830              1484.9438
 Red. masses --      1.4687                 1.6748                 1.0469
 Frc consts  --      1.7413                 2.0950                 1.3601
 IR Inten    --     24.4753                43.3919                 0.0034

                     28                     29                     30
                      A                      A                      A
 Frequencies --   1496.1618              1504.6765              1509.5952
 Red. masses --      1.0498                 1.0464                 1.0502
 Frc consts  --      1.3846                 1.3958                 1.4100
 IR Inten    --      0.5973                 0.0143                 5.4910

                     31                     32                     33
                      A                      A                      A
 Frequencies --   1512.8947              1535.2517              1655.2347
 Red. masses --      1.0671                 1.0593                12.7380
 Frc consts  --      1.4390                 1.4710                20.5622
 IR Inten    --     10.8230                19.3953               221.2536

                     34                     35                     36
                      A                      A                      A
 Frequencies --   3057.9116              3059.0577              3066.3926
 Red. masses --      1.0353                 1.0363                 1.0373
 Frc consts  --      5.7040                 5.7134                 5.7466
 IR Inten    --     17.9126                 4.0759                13.1025

                     37                     38                     39
                      A                      A                      A
 Frequencies --   3130.0062              3130.8581              3139.8087
 Red. masses --      1.1033                 1.1025                 1.1008
 Frc consts  --      6.3685                 6.3675                 6.3941
 IR Inten    --      8.6014                 7.3400                27.5664

                     40                     41                     42
                      A                      A                      A
 Frequencies --   3155.4250              3156.2848              3159.9172
 Red. masses --      1.1034                 1.1034                 1.1023
 Frc consts  --      6.4728                 6.4766                 6.4846
 IR Inten    --      2.4056                13.9710                14.1923

 - Thermochemistry -
 -------------------
 Temperature   298.150 Kelvin.  Pressure   1.00000 Atm.
 Atom     1 has atomic number  6 and mass  12.00000

 Molecular mass:   103.06333 amu.
 Principal axes and moments of inertia in atomic units:
                           1         2         3
     Eigenvalues --   537.41576 724.72204 859.96897
           X            0.99998   0.00647  -0.00002
           Y           -0.00647   0.99998   0.00003
           Z            0.00002  -0.00003   1.00000
 This molecule is an asymmetric top.
 Rotational symmetry number  1.
 Warning -- assumption of classical behavior for rotation
           may cause significant error
 Rotational temperatures (Kelvin)      0.16117     0.11951     0.10072
 Rotational constants (GHZ):           3.35818     2.49025     2.09861
 Zero-point vibrational energy     353802.6 (Joules/Mol)
                                   84.56086 (Kcal/Mol)
 Warning -- explicit consideration of  11 degrees of freedom as
           vibrations may cause significant error
 Vibrational temperatures:     59.76   290.85   373.32   374.28   414.27
          (Kelvin)            417.85   514.69   535.37   552.63   759.68
                              809.83  1068.09  1153.73  1244.75  1357.50
                             1358.37  1408.36  1521.15  1522.64  1752.37
                             1820.75  1855.51  2016.12  2027.08  2040.99
                             2096.41  2136.50  2152.64  2164.89  2171.97
                             2176.72  2208.88  2381.51  4399.65  4401.30
                             4411.85  4503.38  4504.60  4517.48  4539.95
                             4541.18  4546.41

 Zero-point correction=                           0.134756 (Hartree/Particle)
 Thermal correction to Energy=                    0.142739
 Thermal correction to Enthalpy=                  0.143683
 Thermal correction to Gibbs Free Energy=         0.102640
 Sum of electronic and zero-point Energies=           -362.839485
 Sum of electronic and thermal Energies=              -362.831502
 Sum of electronic and thermal Enthalpies=            -362.830558
 Sum of electronic and thermal Free Energies=         -362.871601

                     E (Thermal)             CV                S
                      KCal/Mol        Cal/Mol-Kelvin    Cal/Mol-Kelvin
 Total                   89.570             28.812             86.382
 Electronic               0.000              0.000              0.000
 Translational            0.889              2.981             39.808
 Rotational               0.889              2.981             27.307
 Vibrational             87.793             22.850             19.267
 Vibration     1          0.594              1.981              5.184
 Vibration     2          0.639              1.837              2.113
 Vibration     3          0.668              1.747              1.665
 Vibration     4          0.668              1.746              1.661
 Vibration     5          0.685              1.696              1.486
 Vibration     6          0.686              1.692              1.471
 Vibration     7          0.733              1.559              1.132
 Vibration     8          0.744              1.529              1.071
 Vibration     9          0.753              1.504              1.023
 Vibration    10          0.883              1.188              0.592
 Vibration    11          0.919              1.112              0.518

 Optimization completed.
    -- Stationary point found.
 Normal termination of Gaussian 09 at Thu Jul 22 19:06:45 2021.
