 Gaussian 09, Revision E.01,
 Gaussian 09:  ES64L-G09RevE.01 30-Nov-2015

 -------------------------
 #P OPT Freq B3LYP/6-31G**
 -------------------------

 --------
 Frag_213
 --------
 Symbolic Z-matrix:
 Charge =  0 Multiplicity = 1

 SCF Done:  E(RB3LYP) =  -169.853196247     A.U. after   13 cycles
 SCF Done:  E(RB3LYP) =  -169.870807751     A.U. after   12 cycles
 SCF Done:  E(RB3LYP) =  -169.871648112     A.U. after   11 cycles
 SCF Done:  E(RB3LYP) =  -169.871669935     A.U. after    9 cycles
 Optimization completed.
    -- Stationary point found.
 Normal termination of Gaussian 09 at Sat Aug 21 01:38:16 2021.

 ----------------------------------------------------------------------
 #P Geom=AllCheck Guess=TCheck SCRF=Check GenChk RB3LYP/6-31G(d,p) Freq
 ----------------------------------------------------------------------

 Structure from the checkpoint file:  "/public/home/users/caep010/.cache/gau_scr/Gau-53416.chk"
 --------
 Frag_213
 --------
 Charge =  0 Multiplicity = 1

                         Standard orientation:
 ---------------------------------------------------------------------
 Center     Atomic      Atomic             Coordinates (Angstroms)
 Number     Number       Type             X           Y           Z
 ---------------------------------------------------------------------
      1          7           0       -1.227594   -0.133105   -0.000002
      2          6           0       -0.092368    0.427346    0.000005
      3          8           0        1.154628   -0.113663   -0.000001
      4          1           0       -1.157494   -1.156140   -0.000001
      5          1           0       -0.015680    1.514337   -0.000009
      6          1           0        1.083516   -1.081230    0.000002
 ---------------------------------------------------------------------

 SCF Done:  E(RB3LYP) =  -169.871669935     A.U. after    1 cycles

 The electronic state is 1-A.
 Alpha  occ. eigenvalues --  -19.19988 -14.31901 -10.28664  -1.08204  -0.89104
 Alpha  occ. eigenvalues --   -0.65601  -0.54078  -0.46839  -0.41558  -0.40175
 Alpha  occ. eigenvalues --   -0.28376  -0.28082
 Alpha virt. eigenvalues --    0.02219   0.05311   0.12146   0.14968   0.24752
 Alpha virt. eigenvalues --    0.35997   0.53596   0.56756   0.59905   0.68306
 Alpha virt. eigenvalues --    0.70720   0.74825   0.76783   0.84629   0.87212

 Mulliken charges:
               1
     1  N   -0.487995
     2  C    0.298148
     3  O   -0.460691
     4  H    0.211084
     5  H    0.130894
     6  H    0.308560
 Sum of Mulliken charges =  -0.00000

 Dipole moment (field-independent basis, Debye):
    X=              1.3385    Y=             -1.6589    Z=              0.0000  Tot=              2.1316
 Quadrupole moment (field-independent basis, Debye-Ang):
   XX=            -22.8833   YY=            -12.6465   ZZ=            -18.4033
   XY=             -0.3104   XZ=              0.0000   YZ=             -0.0000

  Exact polarizability:  26.820   1.878  24.331   0.000  -0.000  10.093
 Approx polarizability:  45.496   5.042  32.941   0.000  -0.000  13.733

                      1                      2                      3
                      A                      A                      A
 Frequencies --    534.5247               591.4670               846.4571
 Red. masses --      1.1611                 2.5976                 1.9118
 Frc consts  --      0.1955                 0.5354                 0.8070
 IR Inten    --     83.1933                34.2926                57.2552

                      4                      5                      6
                      A                      A                      A
 Frequencies --   1077.3409              1094.0953              1124.6078
 Red. masses --      1.1315                 2.7174                 1.3535
 Frc consts  --      0.7738                 1.9166                 1.0086
 IR Inten    --     62.2883                36.6175               270.0043

                      7                      8                      9
                      A                      A                      A
 Frequencies --   1359.5348              1418.7676              1748.6552
 Red. masses --      1.6499                 1.1154                 6.9459
 Frc consts  --      1.7967                 1.3229                12.5137
 IR Inten    --     24.9649                 0.9711               252.6607

                     10                     11                     12
                      A                      A                      A
 Frequencies --   3181.2109              3439.2771              3768.7894
 Red. masses --      1.0918                 1.0749                 1.0650
 Frc consts  --      6.5101                 7.4914                 8.9127
 IR Inten    --     14.4417                 8.0711                20.1913

 - Thermochemistry -
 -------------------
 Temperature   298.150 Kelvin.  Pressure   1.00000 Atm.
 Atom     1 has atomic number  7 and mass  14.00307

 Molecular mass:    45.02146 amu.
 Principal axes and moments of inertia in atomic units:
                           1         2         3
     Eigenvalues --    26.67852 160.92228 187.60080
           X            0.99999   0.00378   0.00000
           Y           -0.00378   0.99999  -0.00000
           Z           -0.00000   0.00000   1.00000
 This molecule is an asymmetric top.
 Rotational symmetry number  1.
 Rotational temperatures (Kelvin)      3.24658     0.53823     0.46169
 Rotational constants (GHZ):          67.64773    11.21499     9.62011
 Zero-point vibrational energy     120731.5 (Joules/Mol)
                                   28.85552 (Kcal/Mol)
 Warning -- explicit consideration of   2 degrees of freedom as
           vibrations may cause significant error
 Vibrational temperatures:    769.06   850.99  1217.86  1550.05  1574.16
          (Kelvin)           1618.06  1956.06  2041.29  2515.92  4577.05
                             4948.35  5422.44

 Zero-point correction=                           0.045984 (Hartree/Particle)
 Thermal correction to Energy=                    0.049340
 Thermal correction to Enthalpy=                  0.050284
 Thermal correction to Gibbs Free Energy=         0.021729
 Sum of electronic and zero-point Energies=           -169.825686
 Sum of electronic and thermal Energies=              -169.822330
 Sum of electronic and thermal Enthalpies=            -169.821386
 Sum of electronic and thermal Free Energies=         -169.849941

                     E (Thermal)             CV                S
                      KCal/Mol        Cal/Mol-Kelvin    Cal/Mol-Kelvin
 Total                   30.961              9.858             60.099
 Electronic               0.000              0.000              0.000
 Translational            0.889              2.981             37.339
 Rotational               0.889              2.981             21.315
 Vibrational             29.184              3.897              1.445
 Vibration     1          0.890              1.174              0.577
 Vibration     2          0.949              1.050              0.465

 Optimization completed.
    -- Stationary point found.
 Normal termination of Gaussian 09 at Sat Aug 21 01:38:21 2021.
