 Gaussian 09, Revision E.01,
 Gaussian 09:  ES64L-G09RevE.01 30-Nov-2015

 ----------------------------
 #P OPT Freq B3LYP/6-31G(d,p)
 ----------------------------

 --------
 Frag_648
 --------
 Symbolic Z-matrix:
 Charge =  0 Multiplicity = 1

 SCF Done:  E(RB3LYP) =  -291.222906590     A.U. after   14 cycles
 SCF Done:  E(RB3LYP) =  -291.222944324     A.U. after   10 cycles
 SCF Done:  E(RB3LYP) =  -291.222946757     A.U. after    9 cycles
 SCF Done:  E(RB3LYP) =  -291.222947651     A.U. after    8 cycles
 SCF Done:  E(RB3LYP) =  -291.222947829     A.U. after    7 cycles
 Optimization completed.
    -- Stationary point found.
 Normal termination of Gaussian 09 at Thu Sep  8 14:59:12 2022.

 ----------------------------------------------------------------------
 #P Geom=AllCheck Guess=TCheck SCRF=Check GenChk RB3LYP/6-31G(d,p) Freq
 ----------------------------------------------------------------------

 Structure from the checkpoint file:  "B3LYP6-31Gdp.Frag_648.chk"
 --------
 Frag_648
 --------
 Charge =  0 Multiplicity = 1

                         Standard orientation:
 ---------------------------------------------------------------------
 Center     Atomic      Atomic             Coordinates (Angstroms)
 Number     Number       Type             X           Y           Z
 ---------------------------------------------------------------------
      1          6           0        1.630389    1.283259   -0.022494
      2          6           0        0.957393    0.120717   -0.004849
      3          7           0        1.628594   -1.111761    0.086382
      4          6           0       -0.574163    0.006019    0.004378
      5          6           0       -1.044645   -0.766744   -1.253129
      6          6           0       -1.025239   -0.754489    1.273271
      7          6           0       -1.250099    1.387898   -0.007660
      8          1           0        2.717000    1.298346   -0.035094
      9          1           0        1.132458    2.241095    0.009356
     10          1           0        2.620448   -1.046526   -0.105754
     11          1           0        1.211583   -1.863200   -0.447569
     12          1           0       -0.679851   -1.799976   -1.276313
     13          1           0       -0.709138   -0.268412   -2.168340
     14          1           0       -2.138274   -0.818716   -1.275991
     15          1           0       -2.115109   -0.867047    1.282184
     16          1           0       -0.730874   -0.208016    2.174731
     17          1           0       -0.576008   -1.749161    1.329480
     18          1           0       -2.338268    1.266863   -0.003033
     19          1           0       -0.980426    1.962283   -0.899238
     20          1           0       -0.975520    1.974831    0.873796
 ---------------------------------------------------------------------

 SCF Done:  E(RB3LYP) =  -291.222947829     A.U. after    1 cycles

 The electronic state is 1-A.
 Alpha  occ. eigenvalues --  -14.32762 -10.21054 -10.20067 -10.17755 -10.16898
 Alpha  occ. eigenvalues --  -10.16797 -10.14767  -0.90272  -0.80529  -0.71431
 Alpha  occ. eigenvalues --   -0.68231  -0.67626  -0.59500  -0.51990  -0.50227
 Alpha  occ. eigenvalues --   -0.46163  -0.43449  -0.42575  -0.41622  -0.39708
 Alpha  occ. eigenvalues --   -0.38422  -0.36710  -0.36079  -0.33649  -0.32411
 Alpha  occ. eigenvalues --   -0.31837  -0.30192  -0.19695
 Alpha virt. eigenvalues --    0.04959   0.07125   0.11201   0.12479   0.13569
 Alpha virt. eigenvalues --    0.14845   0.15734   0.16341   0.16860   0.19386
 Alpha virt. eigenvalues --    0.20290   0.20724   0.21408   0.22574   0.23799

 Mulliken charges:
               1
     1  C   -0.337684
     2  C    0.341472
     3  N   -0.635951
     4  C   -0.023226
     5  C   -0.305931
     6  C   -0.286526
     7  C   -0.308433
     8  H    0.065427
     9  H    0.086474
    10  H    0.250209
    11  H    0.249301
    12  H    0.084659
    13  H    0.109382
    14  H    0.103095
    15  H    0.091604
    16  H    0.107677
    17  H    0.103828
    18  H    0.092584
    19  H    0.104771
    20  H    0.107267
 Sum of Mulliken charges =   0.00000

 Dipole moment (field-independent basis, Debye):
    X=             -0.0997    Y=             -0.9736    Z=             -0.9990  Tot=              1.3985
 Quadrupole moment (field-independent basis, Debye-Ang):
   XX=            -42.8668   YY=            -44.3913   ZZ=            -47.6610
   XY=             -1.9835   XZ=             -1.6289   YZ=              2.0576

  Exact polarizability:  77.257   5.117  79.023  -0.117   0.469  55.627
 Approx polarizability: 102.854  10.445 120.601   0.158  -0.263  76.704

                      1                      2                      3
                      A                      A                      A
 Frequencies --     63.6262               205.6051               261.6759
 Red. masses --      2.9749                 1.1821                 1.0978
 Frc consts  --      0.0071                 0.0294                 0.0443
 IR Inten    --      1.0803                 0.4743                 0.4465

                      4                      5                      6
                      A                      A                      A
 Frequencies --    275.4173               288.7622               310.5618
 Red. masses --      1.6860                 2.1041                 1.1187
 Frc consts  --      0.0754                 0.1034                 0.0636
 IR Inten    --      1.4624                 5.1676                17.5757

                      7                      8                      9
                      A                      A                      A
 Frequencies --    327.3048               351.7459               379.1685
 Red. masses --      1.1454                 2.4400                 2.1816
 Frc consts  --      0.0723                 0.1779                 0.1848
 IR Inten    --     17.9933                 0.6664                 1.2757

                     10                     11                     12
                      A                      A                      A
 Frequencies --    391.1187               487.4939               501.2857
 Red. masses --      2.5840                 2.7831                 2.2173
 Frc consts  --      0.2329                 0.3897                 0.3283
 IR Inten    --      1.6214                 3.2122                 6.5287

                     13                     14                     15
                      A                      A                      A
 Frequencies --    618.0140               680.4953               687.6103
 Red. masses --      1.5910                 1.4227                 2.9727
 Frc consts  --      0.3580                 0.3882                 0.8281
 IR Inten    --    152.0432                32.4172                 0.5959

                     16                     17                     18
                      A                      A                      A
 Frequencies --    756.9925               816.7411               864.2759
 Red. masses --      1.4467                 1.5141                 2.2301
 Frc consts  --      0.4885                 0.5951                 0.9815
 IR Inten    --     42.4912                68.7196                 2.5929

                     19                     20                     21
                      A                      A                      A
 Frequencies --    932.8235               946.5906               965.0456
 Red. masses --      1.7767                 1.6782                 1.2017
 Frc consts  --      0.9109                 0.8860                 0.6594
 IR Inten    --      0.3595                 1.2236                 0.0619

                     22                     23                     24
                      A                      A                      A
 Frequencies --    998.3175              1047.3653              1052.6312
 Red. masses --      1.5500                 1.3853                 1.3885
 Frc consts  --      0.9102                 0.8953                 0.9064
 IR Inten    --      4.7600                 0.5712                 0.2704

                     25                     26                     27
                      A                      A                      A
 Frequencies --   1128.9018              1232.7643              1241.2888
 Red. masses --      1.4865                 2.6648                 2.3534
 Frc consts  --      1.1162                 2.3861                 2.1365
 IR Inten    --      2.6889                 6.1997                12.2135

                     28                     29                     30
                      A                      A                      A
 Frequencies --   1251.8326              1359.3108              1409.9730
 Red. masses --      2.4282                 3.0749                 1.2290
 Frc consts  --      2.2420                 3.3475                 1.4395
 IR Inten    --     16.3818                27.0427                 3.6923

                     31                     32                     33
                      A                      A                      A
 Frequencies --   1411.3952              1441.2386              1462.9468
 Red. masses --      1.2526                 1.2306                 1.1787
 Frc consts  --      1.4702                 1.5060                 1.4863
 IR Inten    --      3.1034                 6.1176                 0.6386

                     34                     35                     36
                      A                      A                      A
 Frequencies --   1492.7509              1500.2007              1507.4600
 Red. masses --      1.0495                 1.0462                 1.0475
 Frc consts  --      1.3779                 1.3873                 1.4025
 IR Inten    --      0.0692                 0.0839                 0.6077

                     37                     38                     39
                      A                      A                      A
 Frequencies --   1514.4001              1520.7590              1537.9105
 Red. masses --      1.0517                 1.0531                 1.0687
 Frc consts  --      1.4210                 1.4350                 1.4892
 IR Inten    --      2.8544                 4.9622                10.4956

                     40                     41                     42
                      A                      A                      A
 Frequencies --   1660.5577              1714.0109              3036.3831
 Red. masses --      1.1652                 4.4337                 1.0353
 Frc consts  --      1.8930                 7.6744                 5.6237
 IR Inten    --     49.9874                93.5061                30.7496

                     43                     44                     45
                      A                      A                      A
 Frequencies --   3042.2255              3048.6836              3100.4960
 Red. masses --      1.0356                 1.0364                 1.1006
 Frc consts  --      5.6470                 5.6756                 6.2337
 IR Inten    --     23.5235                17.2127                30.0780

                     46                     47                     48
                      A                      A                      A
 Frequencies --   3111.9753              3114.5073              3120.0331
 Red. masses --      1.1023                 1.1028                 1.1021
 Frc consts  --      6.2898                 6.3030                 6.3213
 IR Inten    --      2.3648                15.0395                61.5536

                     49                     50                     51
                      A                      A                      A
 Frequencies --   3123.7255              3132.0604              3164.6635
 Red. masses --      1.1027                 1.1015                 1.0672
 Frc consts  --      6.3392                 6.3665                 6.2971
 IR Inten    --     34.3991                27.6788                15.1736

                     52                     53                     54
                      A                      A                      A
 Frequencies --   3277.8768              3552.4133              3653.6610
 Red. masses --      1.1075                 1.0475                 1.0968
 Frc consts  --      7.0111                 7.7884                 8.6265
 IR Inten    --      8.8149                 2.2397                 4.4373

 - Thermochemistry -
 -------------------
 Temperature   298.150 Kelvin.  Pressure   1.00000 Atm.
 Atom     1 has atomic number  6 and mass  12.00000

 Molecular mass:    99.10480 amu.
 Principal axes and moments of inertia in atomic units:
                           1         2         3
     Eigenvalues --   569.08079 786.63109 952.83052
           X            0.99995   0.00696  -0.00715
           Y           -0.00682   0.99979   0.01937
           Z            0.00728  -0.01932   0.99979
 This molecule is an asymmetric top.
 Rotational symmetry number  1.
 Warning -- assumption of classical behavior for rotation
           may cause significant error
 Rotational temperatures (Kelvin)      0.15220     0.11011     0.09090
 Rotational constants (GHZ):           3.17133     2.29427     1.89408
 Zero-point vibrational energy     478967.3 (Joules/Mol)
                                  114.47592 (Kcal/Mol)
 Warning -- explicit consideration of  13 degrees of freedom as
           vibrations may cause significant error
 Vibrational temperatures:     91.54   295.82   376.49   396.26   415.46
          (Kelvin)            446.83   470.92   506.08   545.54   562.73
                              701.39   721.24   889.18   979.08   989.32
                             1089.14  1175.11  1243.50  1342.12  1361.93
                             1388.48  1436.35  1506.92  1514.50  1624.24
                             1773.67  1785.94  1801.11  1955.74  2028.63
                             2030.68  2073.62  2104.85  2147.73  2158.45
                             2168.90  2178.88  2188.03  2212.71  2389.17
                             2466.08  4368.67  4377.08  4386.37  4460.92
                             4477.43  4481.08  4489.03  4494.34  4506.33
                             4553.24  4716.13  5111.12  5256.80

 Zero-point correction=                           0.182429 (Hartree/Particle)
 Thermal correction to Energy=                    0.191216
 Thermal correction to Enthalpy=                  0.192161
 Thermal correction to Gibbs Free Energy=         0.150294
 Sum of electronic and zero-point Energies=           -291.040519
 Sum of electronic and thermal Energies=              -291.031731
 Sum of electronic and thermal Enthalpies=            -291.030787
 Sum of electronic and thermal Free Energies=         -291.072654

                     E (Thermal)             CV                S
                      KCal/Mol        Cal/Mol-Kelvin    Cal/Mol-Kelvin
 Total                  119.990             34.058             88.117
 Electronic               0.000              0.000              0.000
 Translational            0.889              2.981             39.691
 Rotational               0.889              2.981             27.547
 Vibrational            118.213             28.096             20.878
 Vibration     1          0.597              1.972              4.341
 Vibration     2          0.640              1.832              2.082
 Vibration     3          0.669              1.743              1.651
 Vibration     4          0.677              1.719              1.562
 Vibration     5          0.685              1.695              1.481
 Vibration     6          0.699              1.654              1.359
 Vibration     7          0.711              1.621              1.273
 Vibration     8          0.728              1.572              1.158
 Vibration     9          0.749              1.515              1.042
 Vibration    10          0.759              1.489              0.996
 Vibration    11          0.843              1.278              0.690
 Vibration    12          0.857              1.247              0.655
 Vibration    13          0.978              0.994              0.420

 Normal termination of Gaussian 09 at Thu Sep  8 14:59:31 2022.
