 Gaussian 09, Revision E.01,
 Gaussian 09:  ES64L-G09RevE.01 30-Nov-2015

 ----------------------------
 #P OPT Freq B3LYP/6-31G(d,p)
 ----------------------------

 --------
 Frag_571
 --------
 Symbolic Z-matrix:
 Charge =  0 Multiplicity = 1

 SCF Done:  E(RB3LYP) =  -363.077092208     A.U. after   14 cycles
 SCF Done:  E(RB3LYP) =  -363.077192751     A.U. after    9 cycles
 SCF Done:  E(RB3LYP) =  -363.077199476     A.U. after    8 cycles
 SCF Done:  E(RB3LYP) =  -363.077199585     A.U. after    8 cycles
 SCF Done:  E(RB3LYP) =  -363.077199492     A.U. after    8 cycles
 SCF Done:  E(RB3LYP) =  -363.077200172     A.U. after    7 cycles
 Optimization completed.
    -- Stationary point found.
 Normal termination of Gaussian 09 at Thu Sep  8 15:12:02 2022.

 ----------------------------------------------------------------------
 #P Geom=AllCheck Guess=TCheck SCRF=Check GenChk RB3LYP/6-31G(d,p) Freq
 ----------------------------------------------------------------------

 Structure from the checkpoint file:  "B3LYP6-31Gdp.Frag_571.chk"
 --------
 Frag_571
 --------
 Charge =  0 Multiplicity = 1

                         Standard orientation:
 ---------------------------------------------------------------------
 Center     Atomic      Atomic             Coordinates (Angstroms)
 Number     Number       Type             X           Y           Z
 ---------------------------------------------------------------------
      1          6           0       -1.105761   -0.660144    1.273135
      2          6           0       -0.596472    0.039565   -0.000008
      3          6           0       -1.105758   -0.660697   -1.272846
      4          8           0       -1.064568    1.373132   -0.000319
      5          6           0        0.951638    0.105409   -0.000008
      6          7           0        1.632973   -1.067652    0.000125
      7          8           0        1.517391    1.195975   -0.000048
      8          1           0       -0.816982   -1.715667    1.319757
      9          1           0       -2.197599   -0.603601    1.293648
     10          1           0       -0.722438   -0.152703    2.162586
     11          1           0       -2.197592   -0.604102   -1.293409
     12          1           0       -0.817056   -1.716265   -1.318976
     13          1           0       -0.722389   -0.153689   -2.162525
     14          1           0       -0.254480    1.919105   -0.000372
     15          1           0        1.172201   -1.961829   -0.000189
     16          1           0        2.641055   -1.035339   -0.000094
 ---------------------------------------------------------------------

 SCF Done:  E(RB3LYP) =  -363.077200172     A.U. after    1 cycles

 The electronic state is 1-A.
 Alpha  occ. eigenvalues --  -19.12961 -19.12448 -14.37260 -10.29666 -10.25027
 Alpha  occ. eigenvalues --  -10.18262 -10.18261  -1.05332  -1.00029  -0.91938
 Alpha  occ. eigenvalues --   -0.77780  -0.69622  -0.64221  -0.57607  -0.55782
 Alpha  occ. eigenvalues --   -0.50774  -0.45720  -0.45040  -0.42941  -0.40904
 Alpha  occ. eigenvalues --   -0.40144  -0.38027  -0.37339  -0.35677  -0.32994
 Alpha  occ. eigenvalues --   -0.28314  -0.26649  -0.25680
 Alpha virt. eigenvalues --    0.01875   0.04982   0.10406   0.12271   0.13686
 Alpha virt. eigenvalues --    0.15529   0.15617   0.18150   0.18521   0.19620
 Alpha virt. eigenvalues --    0.19760   0.25209   0.25960   0.26182   0.34568

 Mulliken charges:
               1
     1  C   -0.298926
     2  C    0.203352
     3  C   -0.298946
     4  O   -0.569047
     5  C    0.572832
     6  N   -0.605218
     7  O   -0.528926
     8  H    0.078305
     9  H    0.123964
    10  H    0.118208
    11  H    0.123975
    12  H    0.078287
    13  H    0.118205
    14  H    0.321965
    15  H    0.277067
    16  H    0.284904
 Sum of Mulliken charges =   0.00000

 Dipole moment (field-independent basis, Debye):
    X=              0.9788    Y=             -4.0757    Z=             -0.0005  Tot=              4.1916
 Quadrupole moment (field-independent basis, Debye-Ang):
   XX=            -42.2730   YY=            -41.3336   ZZ=            -42.5630
   XY=             -3.1867   XZ=             -0.0021   YZ=              0.0016

  Exact polarizability:  58.227  -0.023  59.631  -0.000  -0.001  44.950
 Approx polarizability:  78.211   1.471  95.295   0.001  -0.004  58.506

                      1                      2                      3
                      A                      A                      A
 Frequencies --     39.9225               195.3400               209.0327
 Red. masses --      4.5851                 1.2965                 1.5759
 Frc consts  --      0.0043                 0.0291                 0.0406
 IR Inten    --      1.7252               144.2483                 7.1144

                      4                      5                      6
                      A                      A                      A
 Frequencies --    250.7287               253.7168               279.6062
 Red. masses --      1.0781                 1.3964                 2.6754
 Frc consts  --      0.0399                 0.0530                 0.1232
 IR Inten    --      0.3256                52.6230                 5.4638

                      7                      8                      9
                      A                      A                      A
 Frequencies --    344.4143               398.8917               418.8828
 Red. masses --      2.5156                 4.7377                 3.3393
 Frc consts  --      0.1758                 0.4442                 0.3452
 IR Inten    --      4.5868                17.3803                32.8011

                     10                     11                     12
                      A                      A                      A
 Frequencies --    487.5434               492.9486               575.2023
 Red. masses --      2.8115                 1.0875                 1.1167
 Frc consts  --      0.3937                 0.1557                 0.2177
 IR Inten    --      0.9429                51.6329                 4.4124

                     13                     14                     15
                      A                      A                      A
 Frequencies --    592.2388               712.6073               766.6652
 Red. masses --      4.0222                 3.1647                 4.5645
 Frc consts  --      0.8312                 0.9469                 1.5807
 IR Inten    --      7.0978                10.7998                13.2489

                     16                     17                     18
                      A                      A                      A
 Frequencies --    881.9563               930.6601               997.9737
 Red. masses --      2.2737                 1.5143                 2.0860
 Frc consts  --      1.0420                 0.7728                 1.2241
 IR Inten    --      2.1758                 0.2296                38.1077

                     19                     20                     21
                      A                      A                      A
 Frequencies --   1020.5806              1095.2877              1180.3527
 Red. masses --      1.3262                 1.8126                 1.7880
 Frc consts  --      0.8139                 1.2812                 1.4677
 IR Inten    --      0.3085                 0.5861                19.4486

                     22                     23                     24
                      A                      A                      A
 Frequencies --   1199.9254              1236.9398              1352.9176
 Red. masses --      3.5772                 3.2226                 2.2936
 Frc consts  --      3.0346                 2.9050                 2.4734
 IR Inten    --     19.0286               114.9904               176.6638

                     25                     26                     27
                      A                      A                      A
 Frequencies --   1408.5795              1431.9922              1442.8330
 Red. masses --      1.2476                 1.2843                 1.4949
 Frc consts  --      1.4585                 1.5517                 1.8335
 IR Inten    --      4.4702                20.9539                29.8512

                     28                     29                     30
                      A                      A                      A
 Frequencies --   1484.7040              1501.5120              1514.1030
 Red. masses --      1.0474                 1.0481                 1.1417
 Frc consts  --      1.3604                 1.3922                 1.5421
 IR Inten    --      0.2917                 1.6291                10.1565

                     31                     32                     33
                      A                      A                      A
 Frequencies --   1519.3203              1627.1465              1780.5175
 Red. masses --      1.0604                 1.2927                 8.6386
 Frc consts  --      1.4421                 2.0166                16.1357
 IR Inten    --      1.5499               104.5440               262.0388

                     34                     35                     36
                      A                      A                      A
 Frequencies --   3044.4745              3050.2775              3118.0862
 Red. masses --      1.0364                 1.0361                 1.1002
 Frc consts  --      5.6597                 5.6796                 6.3023
 IR Inten    --     14.8839                21.3513                 4.5563

                     37                     38                     39
                      A                      A                      A
 Frequencies --   3124.2186              3136.4964              3138.4255
 Red. masses --      1.1010                 1.1041                 1.1034
 Frc consts  --      6.3314                 6.3994                 6.4032
 IR Inten    --     49.1122                11.6991                24.8828

                     40                     41                     42
                      A                      A                      A
 Frequencies --   3612.2304              3630.8549              3752.1177
 Red. masses --      1.0453                 1.0646                 1.1049
 Frc consts  --      8.0363                 8.2693                 9.1647
 IR Inten    --     42.3004               115.8012                40.2689

 - Thermochemistry -
 -------------------
 Temperature   298.150 Kelvin.  Pressure   1.00000 Atm.
 Atom     1 has atomic number  6 and mass  12.00000

 Molecular mass:   103.06333 amu.
 Principal axes and moments of inertia in atomic units:
                           1         2         3
     Eigenvalues --   535.15833 758.65335 899.56681
           X            0.99998   0.00619  -0.00002
           Y           -0.00619   0.99998   0.00005
           Z            0.00002  -0.00005   1.00000
 This molecule is an asymmetric top.
 Rotational symmetry number  1.
 Warning -- assumption of classical behavior for rotation
           may cause significant error
 Rotational temperatures (Kelvin)      0.16185     0.11417     0.09628
 Rotational constants (GHZ):           3.37235     2.37887     2.00623
 Zero-point vibrational energy     354287.4 (Joules/Mol)
                                   84.67672 (Kcal/Mol)
 Warning -- explicit consideration of  13 degrees of freedom as
           vibrations may cause significant error
 Vibrational temperatures:     57.44   281.05   300.75   360.74   365.04
          (Kelvin)            402.29   495.53   573.92   602.68   701.47
                              709.24   827.59   852.10  1025.28  1103.06
                             1268.94  1339.01  1435.86  1468.39  1575.87
                             1698.26  1726.42  1779.68  1946.54  2026.63
                             2060.31  2075.91  2136.16  2160.34  2178.45
                             2185.96  2341.10  2561.76  4380.31  4388.66
                             4486.22  4495.05  4512.71  4515.49  5197.19
                             5223.98  5398.45

 Zero-point correction=                           0.134941 (Hartree/Particle)
 Thermal correction to Energy=                    0.143429
 Thermal correction to Enthalpy=                  0.144373
 Thermal correction to Gibbs Free Energy=         0.102405
 Sum of electronic and zero-point Energies=           -362.942259
 Sum of electronic and thermal Energies=              -362.933771
 Sum of electronic and thermal Enthalpies=            -362.932827
 Sum of electronic and thermal Free Energies=         -362.974796

                     E (Thermal)             CV                S
                      KCal/Mol        Cal/Mol-Kelvin    Cal/Mol-Kelvin
 Total                   90.003             30.915             88.330
 Electronic               0.000              0.000              0.000
 Translational            0.889              2.981             39.808
 Rotational               0.889              2.981             27.393
 Vibrational             88.225             24.953             21.129
 Vibration     1          0.594              1.981              5.263
 Vibration     2          0.636              1.846              2.177
 Vibration     3          0.642              1.827              2.052
 Vibration     4          0.663              1.762              1.725
 Vibration     5          0.665              1.757              1.705
 Vibration     6          0.680              1.711              1.536
 Vibration     7          0.723              1.587              1.192
 Vibration     8          0.765              1.473              0.967
 Vibration     9          0.782              1.429              0.896
 Vibration    10          0.843              1.278              0.690
 Vibration    11          0.849              1.266              0.676
 Vibration    12          0.932              1.085              0.494
 Vibration    13          0.950              1.048              0.463

 Optimization completed.
    -- Stationary point found.
 Normal termination of Gaussian 09 at Thu Sep  8 15:12:17 2022.
