 Gaussian 09, Revision E.01,
 Gaussian 09:  ES64L-G09RevE.01 30-Nov-2015

 -------------------------
 #P OPT Freq B3LYP/6-31G**
 -------------------------

 --------
 Frag_209
 --------
 Symbolic Z-matrix:
 Charge =  0 Multiplicity = 1

 SCF Done:  E(RB3LYP) =  -262.077710752     A.U. after   14 cycles
 SCF Done:  E(RB3LYP) =  -262.086741421     A.U. after   13 cycles
 SCF Done:  E(RB3LYP) =  -262.088942152     A.U. after   13 cycles
 SCF Done:  E(RB3LYP) =  -262.089391836     A.U. after   11 cycles
 SCF Done:  E(RB3LYP) =  -262.089437715     A.U. after    9 cycles
 SCF Done:  E(RB3LYP) =  -262.089449042     A.U. after    9 cycles
 SCF Done:  E(RB3LYP) =  -262.089450931     A.U. after    9 cycles
 SCF Done:  E(RB3LYP) =  -262.089451093     A.U. after    8 cycles
 Optimization completed.
    -- Stationary point found.
 Normal termination of Gaussian 09 at Sat Aug 21 01:35:13 2021.

 ----------------------------------------------------------------------
 #P Geom=AllCheck Guess=TCheck SCRF=Check GenChk RB3LYP/6-31G(d,p) Freq
 ----------------------------------------------------------------------

 Structure from the checkpoint file:  "/public/home/users/caep010/.cache/gau_scr/Gau-7160.chk"
 --------
 Frag_209
 --------
 Charge =  0 Multiplicity = 1

                         Standard orientation:
 ---------------------------------------------------------------------
 Center     Atomic      Atomic             Coordinates (Angstroms)
 Number     Number       Type             X           Y           Z
 ---------------------------------------------------------------------
      1          6           0        1.028471    0.395399    0.000429
      2          7           0       -0.090591    1.199224   -0.000388
      3          6           0       -1.036723    0.310622    0.000254
      4          8           0       -0.606143   -0.955852   -0.000013
      5          7           0        0.800173   -0.891047   -0.000233
      6          1           0        2.037693    0.783941    0.000162
      7          1           0       -2.106114    0.469511    0.000189
 ---------------------------------------------------------------------

 SCF Done:  E(RB3LYP) =  -262.089451093     A.U. after    1 cycles

 The electronic state is 1-A.
 Alpha  occ. eigenvalues --  -19.26412 -14.40518 -14.35947 -10.30619 -10.26756
 Alpha  occ. eigenvalues --   -1.17929  -0.95205  -0.88136  -0.66106  -0.64497
 Alpha  occ. eigenvalues --   -0.55748  -0.50124  -0.45978  -0.43373  -0.35376
 Alpha  occ. eigenvalues --   -0.34577  -0.31181  -0.30798
 Alpha virt. eigenvalues --   -0.03683   0.02956   0.07457   0.11212   0.15071
 Alpha virt. eigenvalues --    0.19241   0.25783   0.29024   0.37939   0.50223
 Alpha virt. eigenvalues --    0.51071   0.55370   0.57619   0.62052   0.63945

 Mulliken charges:
               1
     1  C    0.221111
     2  N   -0.422568
     3  C    0.350124
     4  O   -0.306696
     5  N   -0.139141
     6  H    0.142989
     7  H    0.154181
 Sum of Mulliken charges =   0.00000

 Dipole moment (field-independent basis, Debye):
    X=             -0.8222    Y=              0.7906    Z=              0.0014  Tot=              1.1407
 Quadrupole moment (field-independent basis, Debye-Ang):
   XX=            -21.5566   YY=            -33.5047   ZZ=            -27.7246
   XY=              1.6508   XZ=             -0.0000   YZ=              0.0009

  Exact polarizability:  41.132   0.278  32.908  -0.001   0.000  15.976
 Approx polarizability:  66.418   2.029  64.674  -0.004   0.004  24.191

                      1                      2                      3
                      A                      A                      A
 Frequencies --    631.8701               669.7601               879.5758
 Red. masses --      4.4559                 3.1470                 7.6754
 Frc consts  --      1.0482                 0.8317                 3.4986
 IR Inten    --      4.0663                33.5670                25.2043

                      4                      5                      6
                      A                      A                      A
 Frequencies --    891.1572               923.4483               965.9635
 Red. masses --      1.5101                 1.3752                 9.5018
 Frc consts  --      0.7066                 0.6909                 5.2237
 IR Inten    --      8.6377                 3.2788                 1.8921

                      7                      8                      9
                      A                      A                      A
 Frequencies --    974.4312              1146.6502              1159.7738
 Red. masses --      8.9768                 4.0887                 1.8638
 Frc consts  --      5.0220                 3.1674                 1.4770
 IR Inten    --      5.1428                20.2082                51.1828

                     10                     11                     12
                      A                      A                      A
 Frequencies --   1260.2951              1326.6207              1475.3711
 Red. masses --      1.5513                 2.4019                 6.3562
 Frc consts  --      1.4518                 2.4905                 8.1517
 IR Inten    --      5.7702                26.9804                18.9194

                     13                     14                     15
                      A                      A                      A
 Frequencies --   1606.2893              3274.6555              3284.3847
 Red. masses --      5.4192                 1.0967                 1.1008
 Frc consts  --      8.2382                 6.9291                 6.9963
 IR Inten    --     36.6650                 0.9318                 0.8423

 - Thermochemistry -
 -------------------
 Temperature   298.150 Kelvin.  Pressure   1.00000 Atm.
 Atom     1 has atomic number  6 and mass  12.00000

 Molecular mass:    70.01671 amu.
 Principal axes and moments of inertia in atomic units:
                           1         2         3
     Eigenvalues --   174.27507 178.99883 353.27386
           X           -0.55063   0.83475  -0.00000
           Y            0.83475   0.55063   0.00000
           Z           -0.00000  -0.00000   1.00000
 This molecule is an asymmetric top.
 Rotational symmetry number  1.
 Rotational temperatures (Kelvin)      0.49699     0.48388     0.24517
 Rotational constants (GHZ):          10.35570    10.08242     5.10862
 Zero-point vibrational energy     122439.3 (Joules/Mol)
                                   29.26369 (Kcal/Mol)
 Vibrational temperatures:    909.12   963.63  1265.51  1282.17  1328.63
          (Kelvin)           1389.80  1401.99  1649.77  1668.65  1813.28
                             1908.71  2122.73  2311.09  4711.49  4725.49

 Zero-point correction=                           0.046635 (Hartree/Particle)
 Thermal correction to Energy=                    0.050054
 Thermal correction to Enthalpy=                  0.050998
 Thermal correction to Gibbs Free Energy=         0.020531
 Sum of electronic and zero-point Energies=           -262.042816
 Sum of electronic and thermal Energies=              -262.039397
 Sum of electronic and thermal Enthalpies=            -262.038453
 Sum of electronic and thermal Free Energies=         -262.068920

                     E (Thermal)             CV                S
                      KCal/Mol        Cal/Mol-Kelvin    Cal/Mol-Kelvin
 Total                   31.410             11.059             64.124
 Electronic               0.000              0.000              0.000
 Translational            0.889              2.981             38.656
 Rotational               0.889              2.981             23.914
 Vibrational             29.632              5.097              1.554

 Optimization completed.
    -- Stationary point found.
 Normal termination of Gaussian 09 at Sat Aug 21 01:35:19 2021.
