 Gaussian 09, Revision E.01,
 Gaussian 09:  ES64L-G09RevE.01 30-Nov-2015

 -------------------------
 #P OPT Freq B3LYP/6-31G**
 -------------------------

 --------
 Frag_256
 --------
 Symbolic Z-matrix:
 Charge =  0 Multiplicity = 1

 SCF Done:  E(RB3LYP) =  -322.511045250     A.U. after   15 cycles
 SCF Done:  E(RB3LYP) =  -322.533745855     A.U. after   13 cycles
 SCF Done:  E(RB3LYP) =  -322.537292266     A.U. after   13 cycles
 SCF Done:  E(RB3LYP) =  -322.537589589     A.U. after   12 cycles
 SCF Done:  E(RB3LYP) =  -322.537587380     A.U. after   12 cycles
 SCF Done:  E(RB3LYP) =  -322.537599440     A.U. after   12 cycles
 SCF Done:  E(RB3LYP) =  -322.537704756     A.U. after   12 cycles
 SCF Done:  E(RB3LYP) =  -322.537754379     A.U. after   11 cycles
 SCF Done:  E(RB3LYP) =  -322.537792410     A.U. after   12 cycles
 SCF Done:  E(RB3LYP) =  -322.537793053     A.U. after    8 cycles
 SCF Done:  E(RB3LYP) =  -322.537793282     A.U. after    8 cycles
 Optimization completed.
    -- Stationary point found.
 Normal termination of Gaussian 09 at Sat Aug 21 01:37:40 2021.

 ----------------------------------------------------------------------
 #P Geom=AllCheck Guess=TCheck SCRF=Check GenChk RB3LYP/6-31G(d,p) Freq
 ----------------------------------------------------------------------

 Structure from the checkpoint file:  "/public/home/users/caep010/.cache/gau_scr/Gau-127168.chk"
 --------
 Frag_256
 --------
 Charge =  0 Multiplicity = 1

                         Standard orientation:
 ---------------------------------------------------------------------
 Center     Atomic      Atomic             Coordinates (Angstroms)
 Number     Number       Type             X           Y           Z
 ---------------------------------------------------------------------
      1          6           0       -1.732156   -0.821575   -0.000007
      2          6           0       -0.669298    0.236191   -0.000151
      3          7           0       -0.806416    1.504527    0.000060
      4          6           0        0.778910   -0.253555   -0.000100
      5          8           0        1.066605   -1.428104    0.000078
      6          8           0        1.679721    0.734939    0.000046
      7          1           0       -1.616514   -1.467816    0.875521
      8          1           0       -1.615784   -1.468675   -0.874800
      9          1           0       -2.731816   -0.380991   -0.000598
     10          1           0       -1.787080    1.796104    0.000336
     11          1           0        1.160770    1.568643   -0.000326
 ---------------------------------------------------------------------

 SCF Done:  E(RB3LYP) =  -322.537793282     A.U. after    1 cycles

 The electronic state is 1-A.
 Alpha  occ. eigenvalues --  -19.18982 -19.14150 -14.36167 -10.32243 -10.27304
 Alpha  occ. eigenvalues --  -10.21150  -1.10261  -1.02243  -0.94054  -0.75998
 Alpha  occ. eigenvalues --   -0.66496  -0.59773  -0.51743  -0.49536  -0.46724
 Alpha  occ. eigenvalues --   -0.44174  -0.43332  -0.42631  -0.37567  -0.34027
 Alpha  occ. eigenvalues --   -0.32178  -0.31572  -0.27144
 Alpha virt. eigenvalues --   -0.06657   0.06475   0.07055   0.11410   0.12318
 Alpha virt. eigenvalues --    0.14655   0.16595   0.20825   0.26699   0.32415
 Alpha virt. eigenvalues --    0.33818   0.38811   0.50561   0.53166   0.54149

 Mulliken charges:
               1
     1  C   -0.356425
     2  C    0.249625
     3  N   -0.565627
     4  C    0.596110
     5  O   -0.450726
     6  O   -0.488888
     7  H    0.156881
     8  H    0.156873
     9  H    0.112029
    10  H    0.245972
    11  H    0.344177
 Sum of Mulliken charges =  -0.00000

 Dipole moment (field-independent basis, Debye):
    X=             -3.9932    Y=              1.5553    Z=             -0.0005  Tot=              4.2854
 Quadrupole moment (field-independent basis, Debye-Ang):
   XX=            -34.2916   YY=            -36.5389   ZZ=            -33.8476
   XY=              2.1373   XZ=             -0.0023   YZ=             -0.0003

  Exact polarizability:  45.387  -2.137  55.400  -0.001  -0.000  24.637
 Approx polarizability:  58.704  -6.382  98.478  -0.001   0.000  35.707

                      1                      2                      3
                      A                      A                      A
 Frequencies --     95.6417               129.8875               270.5064
 Red. masses --      2.2881                 1.4326                 3.8880
 Frc consts  --      0.0123                 0.0142                 0.1676
 IR Inten    --      5.3692                 0.1880                21.1153

                      4                      5                      6
                      A                      A                      A
 Frequencies --    384.9152               410.3142               550.3085
 Red. masses --      3.6989                 3.6820                 6.7188
 Frc consts  --      0.3229                 0.3652                 1.1988
 IR Inten    --      1.5064                 9.5266                 0.4125

                      7                      8                      9
                      A                      A                      A
 Frequencies --    593.2152               698.7481               754.6306
 Red. masses --      3.4594                 2.5716                 1.1227
 Frc consts  --      0.7173                 0.7398                 0.3767
 IR Inten    --     15.0074                 7.3873               102.6740

                     10                     11                     12
                      A                      A                      A
 Frequencies --    787.5069               920.6504               992.0554
 Red. masses --      6.3028                 1.4577                 2.0446
 Frc consts  --      2.3030                 0.7279                 1.1856
 IR Inten    --      4.1469                49.1213                 6.6459

                     13                     14                     15
                      A                      A                      A
 Frequencies --   1076.4860              1096.2740              1194.7584
 Red. masses --      1.5492                 1.5006                 2.9386
 Frc consts  --      1.0577                 1.0625                 2.4714
 IR Inten    --     20.5181                43.6559                29.1390

                     16                     17                     18
                      A                      A                      A
 Frequencies --   1375.7840              1415.0286              1440.0533
 Red. masses --      1.4197                 1.3154                 2.3543
 Frc consts  --      1.5832                 1.5518                 2.8766
 IR Inten    --    153.1643               212.4285               148.5991

                     19                     20                     21
                      A                      A                      A
 Frequencies --   1472.8141              1485.2901              1736.5062
 Red. masses --      1.0452                 1.0793                 9.2232
 Frc consts  --      1.3358                 1.4028                16.3865
 IR Inten    --      7.6575                26.5908                61.6463

                     22                     23                     24
                      A                      A                      A
 Frequencies --   1866.1574              3058.4865              3126.2958
 Red. masses --      9.9694                 1.0350                 1.0994
 Frc consts  --     20.4558                 5.7045                 6.3310
 IR Inten    --    195.4655                 3.0132                 2.1093

                     25                     26                     27
                      A                      A                      A
 Frequencies --   3149.1816              3468.4045              3562.6607
 Red. masses --      1.1057                 1.0760                 1.0644
 Frc consts  --      6.4606                 7.6267                 7.9598
 IR Inten    --     11.2827                 0.1133               127.1944

 - Thermochemistry -
 -------------------
 Temperature   298.150 Kelvin.  Pressure   1.00000 Atm.
 Atom     1 has atomic number  6 and mass  12.00000

 Molecular mass:    87.03203 amu.
 Principal axes and moments of inertia in atomic units:
                           1         2         3
     Eigenvalues --   335.13897 499.68675 823.79971
           X            0.99547   0.09511  -0.00001
           Y           -0.09511   0.99547  -0.00000
           Z            0.00001   0.00000   1.00000
 This molecule is an asymmetric top.
 Rotational symmetry number  1.
 Rotational temperatures (Kelvin)      0.25844     0.17334     0.10514
 Rotational constants (GHZ):           5.38505     3.61175     2.19075
 Zero-point vibrational energy     221982.4 (Joules/Mol)
                                   53.05507 (Kcal/Mol)
 Warning -- explicit consideration of   7 degrees of freedom as
           vibrations may cause significant error
 Vibrational temperatures:    137.61   186.88   389.20   553.81   590.35
          (Kelvin)            791.77   853.50  1005.34  1085.74  1133.05
                             1324.61  1427.34  1548.82  1577.29  1718.99
                             1979.44  2035.91  2071.91  2119.05  2137.00
                             2498.44  2684.98  4400.47  4498.04  4530.96
                             4990.25  5125.87

 Zero-point correction=                           0.084549 (Hartree/Particle)
 Thermal correction to Energy=                    0.090719
 Thermal correction to Enthalpy=                  0.091663
 Thermal correction to Gibbs Free Energy=         0.054594
 Sum of electronic and zero-point Energies=           -322.453245
 Sum of electronic and thermal Energies=              -322.447074
 Sum of electronic and thermal Enthalpies=            -322.446130
 Sum of electronic and thermal Free Energies=         -322.483199

                     E (Thermal)             CV                S
                      KCal/Mol        Cal/Mol-Kelvin    Cal/Mol-Kelvin
 Total                   56.927             21.104             78.018
 Electronic               0.000              0.000              0.000
 Translational            0.889              2.981             39.304
 Rotational               0.889              2.981             26.425
 Vibrational             55.150             15.142             12.289
 Vibration     1          0.603              1.952              3.541
 Vibration     2          0.612              1.923              2.948
 Vibration     3          0.674              1.728              1.593
 Vibration     4          0.754              1.502              1.020
 Vibration     5          0.774              1.448              0.926
 Vibration     6          0.906              1.139              0.544
 Vibration     7          0.951              1.046              0.461

 Optimization completed.
    -- Stationary point found.
 Normal termination of Gaussian 09 at Sat Aug 21 01:37:49 2021.
