 Gaussian 09, Revision E.01,
 Gaussian 09:  ES64L-G09RevE.01 30-Nov-2015

 ----------------------------
 #P OPT Freq B3LYP/6-31G(d,p)
 ----------------------------

 --------
 Frag_965
 --------
 Symbolic Z-matrix:
 Charge =  0 Multiplicity = 1

 SCF Done:  E(RB3LYP) =  -265.750803307     A.U. after   13 cycles
 SCF Done:  E(RB3LYP) =  -265.750840868     A.U. after    8 cycles
 SCF Done:  E(RB3LYP) =  -265.750846671     A.U. after    8 cycles
 SCF Done:  E(RB3LYP) =  -265.750847372     A.U. after    7 cycles
 SCF Done:  E(RB3LYP) =  -265.750847578     A.U. after    6 cycles
 SCF Done:  E(RB3LYP) =  -265.750847667     A.U. after    7 cycles
 Optimization completed.
    -- Stationary point found.
 Normal termination of Gaussian 09 at Thu Sep  8 15:09:35 2022.

 ----------------------------------------------------------------------
 #P Geom=AllCheck Guess=TCheck SCRF=Check GenChk RB3LYP/6-31G(d,p) Freq
 ----------------------------------------------------------------------

 Structure from the checkpoint file:  "B3LYP6-31Gdp.Frag_965.chk"
 --------
 Frag_965
 --------
 Charge =  0 Multiplicity = 1

                         Standard orientation:
 ---------------------------------------------------------------------
 Center     Atomic      Atomic             Coordinates (Angstroms)
 Number     Number       Type             X           Y           Z
 ---------------------------------------------------------------------
      1          6           0        1.922720   -0.068512    0.071240
      2          8           0        0.664692   -0.591645   -0.333678
      3          6           0       -0.449275   -0.004145    0.323280
      4          7           0       -0.550479    1.390798   -0.063867
      5          7           0       -1.639364   -0.769269    0.023638
      6          1           0        2.008245    1.001015   -0.148095
      7          1           0        2.088161   -0.216321    1.149708
      8          1           0        2.686449   -0.621804   -0.480301
      9          1           0       -0.296337   -0.039237    1.414487
     10          1           0       -1.372029    1.798014    0.376599
     11          1           0       -0.693295    1.440978   -1.072013
     12          1           0       -1.503000   -1.730671    0.333278
     13          1           0       -1.747499   -0.813584   -0.989760
 ---------------------------------------------------------------------

 SCF Done:  E(RB3LYP) =  -265.750847667     A.U. after    1 cycles

 The electronic state is 1-A.
 Alpha  occ. eigenvalues --  -19.14143 -14.31462 -14.31416 -10.28006 -10.21734
 Alpha  occ. eigenvalues --   -1.03484  -0.89957  -0.84128  -0.68623  -0.61023
 Alpha  occ. eigenvalues --   -0.52015  -0.48787  -0.47614  -0.45142  -0.42989
 Alpha  occ. eigenvalues --   -0.40853  -0.37856  -0.31623  -0.26810  -0.25463
 Alpha  occ. eigenvalues --   -0.24447
 Alpha virt. eigenvalues --    0.08344   0.11010   0.11849   0.14391   0.15975
 Alpha virt. eigenvalues --    0.16997   0.17552   0.18258   0.19272   0.25153
 Alpha virt. eigenvalues --    0.27788   0.29886   0.51681   0.55405   0.55859

 Mulliken charges:
               1
     1  C   -0.062884
     2  O   -0.488786
     3  C    0.364986
     4  N   -0.581080
     5  N   -0.584260
     6  H    0.117657
     7  H    0.085950
     8  H    0.106701
     9  H    0.085469
    10  H    0.247306
    11  H    0.235567
    12  H    0.241539
    13  H    0.231835
 Sum of Mulliken charges =   0.00000

 Dipole moment (field-independent basis, Debye):
    X=             -0.1228    Y=             -0.1666    Z=             -0.2858  Tot=              0.3529
 Quadrupole moment (field-independent basis, Debye-Ang):
   XX=            -30.9460   YY=            -30.8544   ZZ=            -29.3705
   XY=             -0.8916   XZ=              2.1022   YZ=             -1.1208

  Exact polarizability:  45.646   0.076  39.977   0.719  -1.047  37.662
 Approx polarizability:  54.813   0.132  53.236   0.390  -0.590  53.588

                      1                      2                      3
                      A                      A                      A
 Frequencies --    124.7167               189.1523               263.0675
 Red. masses --      1.7052                 1.4720                 1.0882
 Frc consts  --      0.0156                 0.0310                 0.0444
 IR Inten    --      2.0617                 2.2519                37.2971

                      4                      5                      6
                      A                      A                      A
 Frequencies --    289.5283               306.9596               428.8260
 Red. masses --      1.9511                 1.3276                 2.5642
 Frc consts  --      0.0964                 0.0737                 0.2778
 IR Inten    --     20.5096                35.5417                34.3461

                      7                      8                      9
                      A                      A                      A
 Frequencies --    524.7008               572.4702               860.9919
 Red. masses --      3.2774                 2.5304                 2.2246
 Frc consts  --      0.5316                 0.4886                 0.9716
 IR Inten    --      4.9819                21.6027                76.9515

                     10                     11                     12
                      A                      A                      A
 Frequencies --    881.5972               934.2108              1018.8400
 Red. masses --      1.7893                 1.8893                 1.8380
 Frc consts  --      0.8193                 0.9715                 1.1241
 IR Inten    --    127.6707               185.8884                88.9812

                     13                     14                     15
                      A                      A                      A
 Frequencies --   1105.5078              1150.6475              1177.9348
 Red. masses --      4.9320                 1.7384                 1.4693
 Frc consts  --      3.5514                 1.3561                 1.2012
 IR Inten    --    102.5474                35.8953                42.9490

                     16                     17                     18
                      A                      A                      A
 Frequencies --   1195.3270              1226.7341              1331.8407
 Red. masses --      1.5478                 1.6737                 1.6377
 Frc consts  --      1.3030                 1.4840                 1.7115
 IR Inten    --     94.7315                37.3574                15.0334

                     19                     20                     21
                      A                      A                      A
 Frequencies --   1398.0029              1437.9038              1485.6817
 Red. masses --      1.2082                 1.2800                 1.1650
 Frc consts  --      1.3913                 1.5592                 1.5150
 IR Inten    --     39.9581                30.1085                 5.4521

                     22                     23                     24
                      A                      A                      A
 Frequencies --   1495.1908              1529.4089              1648.9798
 Red. masses --      1.0557                 1.0548                 1.1051
 Frc consts  --      1.3906                 1.4537                 1.7704
 IR Inten    --      3.1604                 4.7616                36.4526

                     25                     26                     27
                      A                      A                      A
 Frequencies --   1669.9175              2991.2019              3000.0994
 Red. masses --      1.1035                 1.0767                 1.0541
 Frc consts  --      1.8131                 5.6758                 5.5899
 IR Inten    --     31.3535                29.7441                96.9780

                     28                     29                     30
                      A                      A                      A
 Frequencies --   3082.1358              3134.1178              3467.1492
 Red. masses --      1.0880                 1.1040                 1.0495
 Frc consts  --      6.0898                 6.3893                 7.4335
 IR Inten    --     41.8721                30.3034                 0.4532

                     31                     32                     33
                      A                      A                      A
 Frequencies --   3480.0697              3553.1178              3577.6471
 Red. masses --      1.0502                 1.0912                 1.0912
 Frc consts  --      7.4936                 8.1168                 8.2287
 IR Inten    --      0.3434                 0.1796                 0.8438

 - Thermochemistry -
 -------------------
 Temperature   298.150 Kelvin.  Pressure   1.00000 Atm.
 Atom     1 has atomic number  6 and mass  12.00000

 Molecular mass:    76.06366 amu.
 Principal axes and moments of inertia in atomic units:
                           1         2         3
     Eigenvalues --   216.51611 458.58296 609.99728
           X            0.99983   0.00731   0.01664
           Y           -0.00701   0.99981  -0.01820
           Z           -0.01677   0.01808   0.99970
 This molecule is an asymmetric top.
 Rotational symmetry number  1.
 Rotational temperatures (Kelvin)      0.40003     0.18887     0.14199
 Rotational constants (GHZ):           8.33537     3.93547     2.95861
 Zero-point vibrational energy     302258.5 (Joules/Mol)
                                   72.24152 (Kcal/Mol)
 Warning -- explicit consideration of   8 degrees of freedom as
           vibrations may cause significant error
 Vibrational temperatures:    179.44   272.15   378.49   416.57   441.65
          (Kelvin)            616.98   754.93   823.66  1238.77  1268.42
                             1344.12  1465.88  1590.58  1655.52  1694.78
                             1719.81  1764.99  1916.22  2011.41  2068.82
                             2137.56  2151.24  2200.48  2372.51  2402.64
                             4303.67  4316.47  4434.50  4509.29  4988.45
                             5007.04  5112.14  5147.43

 Zero-point correction=                           0.115124 (Hartree/Particle)
 Thermal correction to Energy=                    0.121542
 Thermal correction to Enthalpy=                  0.122486
 Thermal correction to Gibbs Free Energy=         0.085857
 Sum of electronic and zero-point Energies=           -265.635723
 Sum of electronic and thermal Energies=              -265.629306
 Sum of electronic and thermal Enthalpies=            -265.628362
 Sum of electronic and thermal Free Energies=         -265.664991

                     E (Thermal)             CV                S
                      KCal/Mol        Cal/Mol-Kelvin    Cal/Mol-Kelvin
 Total                   76.269             22.197             77.092
 Electronic               0.000              0.000              0.000
 Translational            0.889              2.981             38.903
 Rotational               0.889              2.981             25.608
 Vibrational             74.491             16.235             12.582
 Vibration     1          0.610              1.928              3.026
 Vibration     2          0.633              1.855              2.236
 Vibration     3          0.670              1.741              1.641
 Vibration     4          0.686              1.693              1.477
 Vibration     5          0.697              1.660              1.379
 Vibration     6          0.790              1.407              0.862
 Vibration     7          0.880              1.195              0.599
 Vibration     8          0.929              1.091              0.500

 Optimization completed.
    -- Stationary point found.
 Normal termination of Gaussian 09 at Thu Sep  8 15:09:44 2022.
