 Gaussian 09, Revision E.01,
 Gaussian 09:  ES64L-G09RevE.01 30-Nov-2015

 ----------------------------
 #P OPT Freq B3LYP/6-31G(d,p)
 ----------------------------

 ---------
 Frag_1012
 ---------
 Symbolic Z-matrix:
 Charge =  0 Multiplicity = 1

 SCF Done:  E(RB3LYP) =  -299.979460097     A.U. after   14 cycles
 SCF Done:  E(RB3LYP) =  -299.979525947     A.U. after   10 cycles
 SCF Done:  E(RB3LYP) =  -299.979539445     A.U. after    9 cycles
 SCF Done:  E(RB3LYP) =  -299.979545618     A.U. after    8 cycles
 SCF Done:  E(RB3LYP) =  -299.979548024     A.U. after    8 cycles
 SCF Done:  E(RB3LYP) =  -299.979548660     A.U. after    8 cycles
 Optimization completed.
    -- Stationary point found.
 Normal termination of Gaussian 09 at Thu Sep  8 14:53:51 2022.

 ----------------------------------------------------------------------
 #P Geom=AllCheck Guess=TCheck SCRF=Check GenChk RB3LYP/6-31G(d,p) Freq
 ----------------------------------------------------------------------

 Structure from the checkpoint file:  "B3LYP6-31Gdp.Frag_1012.chk"
 ---------
 Frag_1012
 ---------
 Charge =  0 Multiplicity = 1

                         Standard orientation:
 ---------------------------------------------------------------------
 Center     Atomic      Atomic             Coordinates (Angstroms)
 Number     Number       Type             X           Y           Z
 ---------------------------------------------------------------------
      1          6           0        1.693529    0.895651   -0.080307
      2          6           0        0.698894   -0.241634   -0.039559
      3          7           0        0.964819   -1.485135    0.141780
      4          7           0       -0.636494    0.113379   -0.257113
      5          7           0       -1.614517   -0.890674    0.002478
      6          7           0       -1.002814    1.409953    0.176225
      7          1           0        1.506890    1.549130   -0.935357
      8          1           0        2.708404    0.495635   -0.142697
      9          1           0        1.609461    1.517192    0.815153
     10          1           0        1.971300   -1.621224    0.224200
     11          1           0       -1.137193   -1.609714    0.555624
     12          1           0       -1.815110   -1.342682   -0.889715
     13          1           0       -1.437614    1.323465    1.098243
     14          1           0       -1.737628    1.731434   -0.449843
 ---------------------------------------------------------------------

 SCF Done:  E(RB3LYP) =  -299.979548660     A.U. after    1 cycles

 The electronic state is 1-A.
 Alpha  occ. eigenvalues --  -14.39165 -14.35191 -14.33970 -14.29402 -10.25352
 Alpha  occ. eigenvalues --  -10.18599  -1.02073  -0.89020  -0.86083  -0.74979
 Alpha  occ. eigenvalues --   -0.70424  -0.56774  -0.51835  -0.50668  -0.46849
 Alpha  occ. eigenvalues --   -0.45488  -0.43587  -0.41847  -0.39812  -0.32035
 Alpha  occ. eigenvalues --   -0.28656  -0.27118  -0.24976  -0.22239
 Alpha virt. eigenvalues --    0.02931   0.08366   0.10423   0.11478   0.14579
 Alpha virt. eigenvalues --    0.15285   0.16934   0.17360   0.19229   0.19652
 Alpha virt. eigenvalues --    0.22827   0.26706   0.33893   0.42244   0.53665

 Mulliken charges:
               1
     1  C   -0.338538
     2  C    0.460609
     3  N   -0.604055
     4  N   -0.262389
     5  N   -0.457161
     6  N   -0.434387
     7  H    0.134447
     8  H    0.102082
     9  H    0.139107
    10  H    0.222113
    11  H    0.268984
    12  H    0.261274
    13  H    0.247721
    14  H    0.260191
 Sum of Mulliken charges =  -0.00000

 Dipole moment (field-independent basis, Debye):
    X=              0.1300    Y=              1.1414    Z=             -0.1316  Tot=              1.1563
 Quadrupole moment (field-independent basis, Debye-Ang):
   XX=            -32.4907   YY=            -38.2911   ZZ=            -35.4003
   XY=             -1.0325   XZ=              1.3213   YZ=              0.8068

  Exact polarizability:  57.659  -4.187  58.118   1.637  -0.734  34.962
 Approx polarizability:  74.545 -10.253  87.760   3.977  -3.670  51.264

                      1                      2                      3
                      A                      A                      A
 Frequencies --    117.4720               143.6901               185.4995
 Red. masses --      3.8427                 1.0395                 1.2443
 Frc consts  --      0.0312                 0.0126                 0.0252
 IR Inten    --      4.5132                 1.5894                27.8401

                      4                      5                      6
                      A                      A                      A
 Frequencies --    265.8097               316.5512               360.4426
 Red. masses --      1.7674                 3.1864                 1.2692
 Frc consts  --      0.0736                 0.1881                 0.0972
 IR Inten    --     60.8013                16.1915                 4.2684

                      7                      8                      9
                      A                      A                      A
 Frequencies --    437.0643               506.0487               585.0362
 Red. masses --      3.2597                 2.8965                 3.7616
 Frc consts  --      0.3669                 0.4370                 0.7586
 IR Inten    --     11.7577                22.3632                13.7327

                     10                     11                     12
                      A                      A                      A
 Frequencies --    595.4701               758.0118               831.3139
 Red. masses --      3.3811                 4.8689                 1.1639
 Frc consts  --      0.7064                 1.6483                 0.4739
 IR Inten    --      9.2352                16.8643                45.0037

                     13                     14                     15
                      A                      A                      A
 Frequencies --    950.4889               958.8125              1019.2242
 Red. masses --      2.1146                 2.5262                 1.6093
 Frc consts  --      1.1256                 1.3683                 0.9850
 IR Inten    --    156.0045                36.4513                20.3328

                     16                     17                     18
                      A                      A                      A
 Frequencies --   1068.9321              1093.5544              1180.8295
 Red. masses --      1.6222                 1.4235                 1.8431
 Frc consts  --      1.0921                 1.0030                 1.5141
 IR Inten    --      9.6499                48.4056               105.1449

                     19                     20                     21
                      A                      A                      A
 Frequencies --   1294.5275              1323.8654              1359.5097
 Red. masses --      2.0117                 1.1178                 1.2923
 Frc consts  --      1.9863                 1.1543                 1.4073
 IR Inten    --     37.4602                 7.2138                30.6814

                     22                     23                     24
                      A                      A                      A
 Frequencies --   1410.8240              1443.7866              1482.8191
 Red. masses --      1.3107                 2.3135                 1.1026
 Frc consts  --      1.5371                 2.8414                 1.4284
 IR Inten    --      1.6804                66.8708                 9.2700

                     25                     26                     27
                      A                      A                      A
 Frequencies --   1492.1127              1691.9596              1707.3987
 Red. masses --      1.1127                 2.9060                 1.1178
 Frc consts  --      1.4596                 4.9015                 1.9199
 IR Inten    --     19.2186               133.4429                 4.2854

                     28                     29                     30
                      A                      A                      A
 Frequencies --   1712.9762              3064.5993              3137.5893
 Red. masses --      1.3506                 1.0353                 1.1012
 Frc consts  --      2.3349                 5.7289                 6.3872
 IR Inten    --     58.7384                 9.3907                10.3251

                     31                     32                     33
                      A                      A                      A
 Frequencies --   3148.8958              3409.2205              3424.4539
 Red. masses --      1.1040                 1.0528                 1.0539
 Frc consts  --      6.4497                 7.2093                 7.2816
 IR Inten    --     16.9771                17.6045                 7.3446

                     34                     35                     36
                      A                      A                      A
 Frequencies --   3501.7650              3516.5117              3536.2150
 Red. masses --      1.0875                 1.0755                 1.0877
 Frc consts  --      7.8569                 7.8359                 8.0134
 IR Inten    --      3.3307                 0.3931                 0.5137

 - Thermochemistry -
 -------------------
 Temperature   298.150 Kelvin.  Pressure   1.00000 Atm.
 Atom     1 has atomic number  6 and mass  12.00000

 Molecular mass:    88.07490 amu.
 Principal axes and moments of inertia in atomic units:
                           1         2         3
     Eigenvalues --   367.43517 505.38117 830.76989
           X            0.99821   0.05974   0.00120
           Y           -0.05975   0.99821   0.00367
           Z           -0.00098  -0.00373   0.99999
 This molecule is an asymmetric top.
 Rotational symmetry number  1.
 Rotational temperatures (Kelvin)      0.23573     0.17138     0.10426
 Rotational constants (GHZ):           4.91173     3.57105     2.17237
 Zero-point vibrational energy     317209.5 (Joules/Mol)
                                   75.81488 (Kcal/Mol)
 Warning -- explicit consideration of  10 degrees of freedom as
           vibrations may cause significant error
 Vibrational temperatures:    169.02   206.74   266.89   382.44   455.45
          (Kelvin)            518.60   628.84   728.09   841.74   856.75
                             1090.61  1196.07  1367.54  1379.52  1466.43
                             1537.95  1573.38  1698.95  1862.53  1904.74
                             1956.03  2029.86  2077.28  2133.44  2146.81
                             2434.35  2456.56  2464.59  4409.27  4514.29
                             4530.55  4905.10  4927.02  5038.25  5059.47
                             5087.82

 Zero-point correction=                           0.120819 (Hartree/Particle)
 Thermal correction to Energy=                    0.128046
 Thermal correction to Enthalpy=                  0.128991
 Thermal correction to Gibbs Free Energy=         0.090224
 Sum of electronic and zero-point Energies=           -299.858730
 Sum of electronic and thermal Energies=              -299.851502
 Sum of electronic and thermal Enthalpies=            -299.850558
 Sum of electronic and thermal Free Energies=         -299.889325

                     E (Thermal)             CV                S
                      KCal/Mol        Cal/Mol-Kelvin    Cal/Mol-Kelvin
 Total                   80.350             25.545             81.592
 Electronic               0.000              0.000              0.000
 Translational            0.889              2.981             39.340
 Rotational               0.889              2.981             26.537
 Vibrational             78.573             19.584             15.716
 Vibration     1          0.608              1.935              3.142
 Vibration     2          0.616              1.909              2.754
 Vibration     3          0.632              1.860              2.272
 Vibration     4          0.672              1.736              1.623
 Vibration     5          0.703              1.642              1.328
 Vibration     6          0.735              1.554              1.120
 Vibration     7          0.797              1.389              0.836
 Vibration     8          0.861              1.237              0.643
 Vibration     9          0.942              1.064              0.476
 Vibration    10          0.953              1.041              0.458

 Normal termination of Gaussian 09 at Thu Sep  8 14:54:02 2022.
