 Gaussian 09, Revision E.01,
 Gaussian 09:  ES64L-G09RevE.01 30-Nov-2015

 ----------------------------
 #P OPT Freq B3LYP/6-31G(d,p)
 ----------------------------

 --------
 Frag_838
 --------
 Symbolic Z-matrix:
 Charge =  0 Multiplicity = 1

 SCF Done:  E(RB3LYP) =  -248.439641808     A.U. after   15 cycles
 SCF Done:  E(RB3LYP) =  -248.439720466     A.U. after   11 cycles
 SCF Done:  E(RB3LYP) =  -248.439724271     A.U. after    9 cycles
 SCF Done:  E(RB3LYP) =  -248.439724394     A.U. after    8 cycles
 SCF Done:  E(RB3LYP) =  -248.439725030     A.U. after    8 cycles
 Optimization completed.
    -- Stationary point found.
 Normal termination of Gaussian 09 at Thu Sep  8 15:07:42 2022.

 ----------------------------------------------------------------------
 #P Geom=AllCheck Guess=TCheck SCRF=Check GenChk RB3LYP/6-31G(d,p) Freq
 ----------------------------------------------------------------------

 Structure from the checkpoint file:  "B3LYP6-31Gdp.Frag_838.chk"
 --------
 Frag_838
 --------
 Charge =  0 Multiplicity = 1

                         Standard orientation:
 ---------------------------------------------------------------------
 Center     Atomic      Atomic             Coordinates (Angstroms)
 Number     Number       Type             X           Y           Z
 ---------------------------------------------------------------------
      1          6           0        1.590258   -0.731482   -0.256627
      2          7           0        0.606852    0.060922    0.080605
      3          8           0        0.654964    1.328513    0.082014
      4          6           0       -0.703462   -0.521607    0.510889
      5          6           0       -1.830495   -0.004702   -0.372906
      6          1           0        2.521873   -0.273757   -0.556571
      7          1           0        1.448813   -1.800828   -0.220361
      8          1           0       -0.837341   -0.193119    1.544874
      9          1           0       -0.627763   -1.611124    0.489707
     10          1           0       -1.823159    1.086220   -0.371214
     11          1           0       -1.715090   -0.356582   -1.402453
     12          1           0       -2.792814   -0.358616    0.007533
 ---------------------------------------------------------------------

 SCF Done:  E(RB3LYP) =  -248.439725030     A.U. after    1 cycles

 The electronic state is 1-A.
 Alpha  occ. eigenvalues --  -19.11542 -14.47408 -10.23668 -10.21773 -10.18882
 Alpha  occ. eigenvalues --   -1.09874  -0.85667  -0.78071  -0.66675  -0.57924
 Alpha  occ. eigenvalues --   -0.51775  -0.49366  -0.47002  -0.43747  -0.41475
 Alpha  occ. eigenvalues --   -0.38287  -0.37597  -0.36020  -0.24004  -0.21919
 Alpha virt. eigenvalues --   -0.01720   0.08605   0.11861   0.13454   0.13878
 Alpha virt. eigenvalues --    0.16340   0.16891   0.17021   0.19804   0.22270
 Alpha virt. eigenvalues --    0.28306   0.31110   0.48025   0.50778   0.53232

 Mulliken charges:
               1
     1  C   -0.107246
     2  N    0.115242
     3  O   -0.496873
     4  C   -0.066596
     5  C   -0.322877
     6  H    0.133675
     7  H    0.112958
     8  H    0.142735
     9  H    0.106464
    10  H    0.154042
    11  H    0.116849
    12  H    0.111627
 Sum of Mulliken charges =  -0.00000

 Dipole moment (field-independent basis, Debye):
    X=             -0.9696    Y=             -3.2197    Z=              0.1506  Tot=              3.3659
 Quadrupole moment (field-independent basis, Debye-Ang):
   XX=            -28.1369   YY=            -33.1085   ZZ=            -30.6586
   XY=             -2.1654   XZ=             -1.1289   YZ=             -0.2928

  Exact polarizability:  52.517  -6.295  49.261  -4.726   1.908  31.525
 Approx polarizability:  68.972 -18.882  95.095  -8.963   7.491  44.121

                      1                      2                      3
                      A                      A                      A
 Frequencies --     91.7116               226.2513               290.9876
 Red. masses --      2.4351                 1.0851                 2.9249
 Frc consts  --      0.0121                 0.0327                 0.1459
 IR Inten    --      2.8387                 0.6781                 7.0659

                      4                      5                      6
                      A                      A                      A
 Frequencies --    463.0068               535.5860               624.0982
 Red. masses --      2.3411                 2.9976                 1.8521
 Frc consts  --      0.2957                 0.5066                 0.4250
 IR Inten    --      1.8979                12.6220                 1.6980

                      7                      8                      9
                      A                      A                      A
 Frequencies --    693.9631               783.5448               798.8283
 Red. masses --      1.4091                 1.5114                 2.1385
 Frc consts  --      0.3998                 0.5467                 0.8040
 IR Inten    --     20.3505                42.6011                 2.7498

                     10                     11                     12
                      A                      A                      A
 Frequencies --    819.1164              1006.2344              1096.9077
 Red. masses --      1.2952                 2.0506                 1.8750
 Frc consts  --      0.5120                 1.2233                 1.3292
 IR Inten    --      2.2764                 3.0887                12.2361

                     13                     14                     15
                      A                      A                      A
 Frequencies --   1119.7763              1159.2847              1294.6112
 Red. masses --      2.0876                 1.6228                 1.1718
 Frc consts  --      1.5423                 1.2850                 1.1571
 IR Inten    --     20.6964                20.3875                 8.7091

                     16                     17                     18
                      A                      A                      A
 Frequencies --   1356.8135              1375.2050              1417.9273
 Red. masses --      2.8363                 1.2799                 1.2604
 Frc consts  --      3.0764                 1.4262                 1.4930
 IR Inten    --     43.0717                 5.4319                 8.5001

                     19                     20                     21
                      A                      A                      A
 Frequencies --   1477.7295              1496.3443              1505.0782
 Red. masses --      1.2806                 1.0959                 1.1176
 Frc consts  --      1.6476                 1.4457                 1.4916
 IR Inten    --      7.9013                 9.4267                 3.5230

                     22                     23                     24
                      A                      A                      A
 Frequencies --   1525.0482              1658.0248              3061.7033
 Red. masses --      1.0577                 6.0009                 1.0365
 Frc consts  --      1.4493                 9.7195                 5.7247
 IR Inten    --      4.8807               126.3228                17.5758

                     25                     26                     27
                      A                      A                      A
 Frequencies --   3081.1357              3127.9894              3140.0681
 Red. masses --      1.0585                 1.1038                 1.1064
 Frc consts  --      5.9203                 6.3630                 6.4272
 IR Inten    --     14.3767                12.1882                19.4104

                     28                     29                     30
                      A                      A                      A
 Frequencies --   3166.3202              3205.2687              3332.4143
 Red. masses --      1.1027                 1.0516                 1.1254
 Frc consts  --      6.5135                 6.3654                 7.3636
 IR Inten    --      9.1651                 0.9986                 1.0595

 - Thermochemistry -
 -------------------
 Temperature   298.150 Kelvin.  Pressure   1.00000 Atm.
 Atom     1 has atomic number  6 and mass  12.00000

 Molecular mass:    73.05276 amu.
 Principal axes and moments of inertia in atomic units:
                           1         2         3
     Eigenvalues --   200.27917 439.62794 561.98615
           X            0.99941  -0.03422  -0.00205
           Y            0.03419   0.99934  -0.01198
           Z            0.00245   0.01190   0.99993
 This molecule is an asymmetric top.
 Rotational symmetry number  1.
 Rotational temperatures (Kelvin)      0.43247     0.19702     0.15412
 Rotational constants (GHZ):           9.01113     4.10516     3.21136
 Zero-point vibrational energy     268746.9 (Joules/Mol)
                                   64.23206 (Kcal/Mol)
 Warning -- explicit consideration of   5 degrees of freedom as
           vibrations may cause significant error
 Vibrational temperatures:    131.95   325.52   418.67   666.16   770.59
          (Kelvin)            897.94   998.46  1127.34  1149.33  1178.52
                             1447.75  1578.20  1611.11  1667.95  1862.65
                             1952.15  1978.61  2040.08  2126.12  2152.90
                             2165.47  2194.20  2385.52  4405.10  4433.06
                             4500.47  4517.85  4555.62  4611.66  4794.59

 Zero-point correction=                           0.102360 (Hartree/Particle)
 Thermal correction to Energy=                    0.108007
 Thermal correction to Enthalpy=                  0.108951
 Thermal correction to Gibbs Free Energy=         0.073665
 Sum of electronic and zero-point Energies=           -248.337365
 Sum of electronic and thermal Energies=              -248.331718
 Sum of electronic and thermal Enthalpies=            -248.330774
 Sum of electronic and thermal Free Energies=         -248.366060

                     E (Thermal)             CV                S
                      KCal/Mol        Cal/Mol-Kelvin    Cal/Mol-Kelvin
 Total                   67.775             19.664             74.266
 Electronic               0.000              0.000              0.000
 Translational            0.889              2.981             38.782
 Rotational               0.889              2.981             25.407
 Vibrational             65.998             13.703             10.077
 Vibration     1          0.602              1.955              3.623
 Vibration     2          0.650              1.801              1.908
 Vibration     3          0.687              1.691              1.468
 Vibration     4          0.821              1.332              0.757
 Vibration     5          0.891              1.171              0.575

 Optimization completed.
    -- Stationary point found.
 Normal termination of Gaussian 09 at Thu Sep  8 15:07:51 2022.
