 Gaussian 09, Revision E.01,
 Gaussian 09:  ES64L-G09RevE.01 30-Nov-2015

 ----------------------------
 #P OPT Freq B3LYP/6-31G(d,p)
 ----------------------------

 --------
 Frag_583
 --------
 Symbolic Z-matrix:
 Charge =  0 Multiplicity = 1

 SCF Done:  E(RB3LYP) =  -285.620164798     A.U. after   13 cycles
 SCF Done:  E(RB3LYP) =  -285.620217059     A.U. after    9 cycles
 SCF Done:  E(RB3LYP) =  -285.620221905     A.U. after    8 cycles
 SCF Done:  E(RB3LYP) =  -285.620222410     A.U. after    7 cycles
 Optimization completed.
    -- Stationary point found.
 Normal termination of Gaussian 09 at Thu Sep  8 14:57:05 2022.

 ----------------------------------------------------------------------
 #P Geom=AllCheck Guess=TCheck SCRF=Check GenChk RB3LYP/6-31G(d,p) Freq
 ----------------------------------------------------------------------

 Structure from the checkpoint file:  "B3LYP6-31Gdp.Frag_583.chk"
 --------
 Frag_583
 --------
 Charge =  0 Multiplicity = 1

                         Standard orientation:
 ---------------------------------------------------------------------
 Center     Atomic      Atomic             Coordinates (Angstroms)
 Number     Number       Type             X           Y           Z
 ---------------------------------------------------------------------
      1          6           0       -1.910355   -0.066656    0.066489
      2          8           0       -0.654286   -0.614743   -0.303693
      3          6           0        0.436391    0.020773    0.316313
      4          7           0        1.594040   -0.726789   -0.111398
      5          8           0        0.585212    1.363791   -0.054341
      6          1           0       -1.978351    0.994333   -0.198637
      7          1           0       -2.094231   -0.170849    1.146650
      8          1           0       -2.671511   -0.628854   -0.477982
      9          1           0        0.266742    0.057611    1.408063
     10          1           0        1.411778   -1.722967   -0.032681
     11          1           0        2.392848   -0.493257    0.470585
     12          1           0        0.910816    1.334421   -0.968750
 ---------------------------------------------------------------------

 SCF Done:  E(RB3LYP) =  -285.620222410     A.U. after    1 cycles

 The electronic state is 1-A.
 Alpha  occ. eigenvalues --  -19.14924 -19.14601 -14.32190 -10.30453 -10.22464
 Alpha  occ. eigenvalues --   -1.06864  -0.99883  -0.87602  -0.69804  -0.62528
 Alpha  occ. eigenvalues --   -0.53370  -0.50218  -0.47949  -0.46364  -0.41796
 Alpha  occ. eigenvalues --   -0.40811  -0.37340  -0.32509  -0.29352  -0.26660
 Alpha  occ. eigenvalues --   -0.25587
 Alpha virt. eigenvalues --    0.08722   0.10978   0.11729   0.14472   0.16176
 Alpha virt. eigenvalues --    0.16762   0.17448   0.18464   0.24263   0.25516
 Alpha virt. eigenvalues --    0.30743   0.50688   0.54319   0.55028   0.57384

 Mulliken charges:
               1
     1  C   -0.072118
     2  O   -0.485334
     3  C    0.503083
     4  N   -0.622183
     5  O   -0.522641
     6  H    0.115868
     7  H    0.090658
     8  H    0.114389
     9  H    0.070545
    10  H    0.253388
    11  H    0.248177
    12  H    0.306169
 Sum of Mulliken charges =  -0.00000

 Dipole moment (field-independent basis, Debye):
    X=              0.1325    Y=             -0.7404    Z=              0.9341  Tot=              1.1993
 Quadrupole moment (field-independent basis, Debye-Ang):
   XX=            -25.8498   YY=            -31.6145   ZZ=            -29.9001
   XY=             -1.4791   XZ=              1.2607   YZ=             -3.1349

  Exact polarizability:  43.346  -0.493  35.422  -0.162  -0.691  32.375
 Approx polarizability:  50.803   0.196  49.389  -0.674   0.812  44.960

                      1                      2                      3
                      A                      A                      A
 Frequencies --    122.0418               184.0953               253.5518
 Red. masses --      1.9971                 1.3423                 1.1188
 Frc consts  --      0.0175                 0.0268                 0.0424
 IR Inten    --      4.2362                 2.9004                25.1054

                      4                      5                      6
                      A                      A                      A
 Frequencies --    296.2808               399.9626               505.7934
 Red. masses --      3.0178                 1.6211                 2.3811
 Frc consts  --      0.1561                 0.1528                 0.3589
 IR Inten    --      2.2687                42.3470                50.6418

                      7                      8                      9
                      A                      A                      A
 Frequencies --    584.2468               613.7608               842.7640
 Red. masses --      2.6696                 2.9672                 1.4046
 Frc consts  --      0.5369                 0.6586                 0.5878
 IR Inten    --     64.0562                23.5788               125.5034

                     10                     11                     12
                      A                      A                      A
 Frequencies --    937.0879              1018.9366              1110.1012
 Red. masses --      2.4029                 3.7458                 4.8083
 Frc consts  --      1.2432                 2.2913                 3.4911
 IR Inten    --     79.7057               180.7519                69.2573

                     13                     14                     15
                      A                      A                      A
 Frequencies --   1163.5149              1182.1794              1201.6602
 Red. masses --      3.3039                 1.2831                 1.3312
 Frc consts  --      2.6353                 1.0565                 1.1325
 IR Inten    --    190.0316                 8.3745                12.3393

                     16                     17                     18
                      A                      A                      A
 Frequencies --   1279.4872              1312.8682              1414.4501
 Red. masses --      1.5654                 1.4958                 1.3128
 Frc consts  --      1.5099                 1.5190                 1.5474
 IR Inten    --     71.9947                 6.2239                74.6245

                     19                     20                     21
                      A                      A                      A
 Frequencies --   1455.3223              1492.9769              1498.2669
 Red. masses --      1.2276                 1.1815                 1.0550
 Frc consts  --      1.5318                 1.5517                 1.3953
 IR Inten    --     74.2867                16.1938                 6.0391

                     22                     23                     24
                      A                      A                      A
 Frequencies --   1529.2131              1642.5466              2955.1307
 Red. masses --      1.0575                 1.1225                 1.0825
 Frc consts  --      1.4571                 1.7843                 5.5696
 IR Inten    --      5.4514                55.4729                86.1909

                     25                     26                     27
                      A                      A                      A
 Frequencies --   3002.4140              3080.1783              3141.8652
 Red. masses --      1.0450                 1.0922                 1.1018
 Frc consts  --      5.5501                 6.1050                 6.4083
 IR Inten    --     68.4175                42.9022                26.1641

                     28                     29                     30
                      A                      A                      A
 Frequencies --   3519.9769              3616.4090              3756.8579
 Red. masses --      1.0490                 1.0942                 1.0642
 Frc consts  --      7.6580                 8.4317                 8.8497
 IR Inten    --      1.9770                 3.7374                24.8728

 - Thermochemistry -
 -------------------
 Temperature   298.150 Kelvin.  Pressure   1.00000 Atm.
 Atom     1 has atomic number  6 and mass  12.00000

 Molecular mass:    77.04768 amu.
 Principal axes and moments of inertia in atomic units:
                           1         2         3
     Eigenvalues --   204.68685 449.60874 599.74401
           X            0.99945  -0.03318  -0.00096
           Y            0.03313   0.99884  -0.03509
           Z            0.00212   0.03504   0.99938
 This molecule is an asymmetric top.
 Rotational symmetry number  1.
 Rotational temperatures (Kelvin)      0.42315     0.19264     0.14442
 Rotational constants (GHZ):           8.81708     4.01403     3.00919
 Zero-point vibrational energy     269841.3 (Joules/Mol)
                                   64.49362 (Kcal/Mol)
 Warning -- explicit consideration of   8 degrees of freedom as
           vibrations may cause significant error
 Vibrational temperatures:    175.59   264.87   364.80   426.28   575.46
          (Kelvin)            727.72   840.60   883.06  1212.55  1348.26
                             1466.02  1597.19  1674.04  1700.89  1728.92
                             1840.89  1888.92  2035.08  2093.88  2148.06
                             2155.67  2200.19  2363.26  4251.77  4319.80
                             4431.68  4520.44  5064.46  5203.20  5405.27

 Zero-point correction=                           0.102777 (Hartree/Particle)
 Thermal correction to Energy=                    0.108925
 Thermal correction to Enthalpy=                  0.109869
 Thermal correction to Gibbs Free Energy=         0.073679
 Sum of electronic and zero-point Energies=           -285.517445
 Sum of electronic and thermal Energies=              -285.511298
 Sum of electronic and thermal Enthalpies=            -285.510353
 Sum of electronic and thermal Free Energies=         -285.546543

                     E (Thermal)             CV                S
                      KCal/Mol        Cal/Mol-Kelvin    Cal/Mol-Kelvin
 Total                   68.351             21.034             76.168
 Electronic               0.000              0.000              0.000
 Translational            0.889              2.981             38.941
 Rotational               0.889              2.981             25.515
 Vibrational             66.574             15.072             11.712
 Vibration     1          0.610              1.931              3.068
 Vibration     2          0.631              1.862              2.286
 Vibration     3          0.665              1.757              1.706
 Vibration     4          0.690              1.681              1.438
 Vibration     5          0.766              1.470              0.963
 Vibration     6          0.861              1.237              0.644
 Vibration     7          0.941              1.065              0.478
 Vibration     8          0.973              1.003              0.427

 Normal termination of Gaussian 09 at Thu Sep  8 14:57:13 2022.
