 Gaussian 09, Revision E.01,
 Gaussian 09:  ES64L-G09RevE.01 30-Nov-2015

 ----------------------------
 #P OPT Freq B3LYP/6-31G(d,p)
 ----------------------------

 ---------
 Frag_1100
 ---------
 Symbolic Z-matrix:
 Charge =  0 Multiplicity = 1

 SCF Done:  E(RB3LYP) =  -356.973150361     A.U. after   13 cycles
 SCF Done:  E(RB3LYP) =  -356.973217541     A.U. after   10 cycles
 SCF Done:  E(RB3LYP) =  -356.973225720     A.U. after    9 cycles
 SCF Done:  E(RB3LYP) =  -356.973227608     A.U. after    8 cycles
 SCF Done:  E(RB3LYP) =  -356.973228334     A.U. after    7 cycles
 SCF Done:  E(RB3LYP) =  -356.973228636     A.U. after    7 cycles
 SCF Done:  E(RB3LYP) =  -356.973228897     A.U. after    7 cycles
 SCF Done:  E(RB3LYP) =  -356.973229087     A.U. after    7 cycles
 SCF Done:  E(RB3LYP) =  -356.973229172     A.U. after    7 cycles
 Optimization completed.
    -- Stationary point found.
 Normal termination of Gaussian 09 at Thu Sep  8 14:53:48 2022.

 ----------------------------------------------------------------------
 #P Geom=AllCheck Guess=TCheck SCRF=Check GenChk RB3LYP/6-31G(d,p) Freq
 ----------------------------------------------------------------------

 Structure from the checkpoint file:  "B3LYP6-31Gdp.Frag_1100.chk"
 ---------
 Frag_1100
 ---------
 Charge =  0 Multiplicity = 1

                         Standard orientation:
 ---------------------------------------------------------------------
 Center     Atomic      Atomic             Coordinates (Angstroms)
 Number     Number       Type             X           Y           Z
 ---------------------------------------------------------------------
      1          7           0        1.989821   -0.174995   -0.101560
      2          8           0        0.724118   -0.747354   -0.455668
      3          6           0       -0.381392    0.016358    0.015086
      4          7           0       -0.320436    1.344407   -0.559261
      5          7           0       -1.512639   -0.835875   -0.304710
      6          8           0       -0.333904    0.227248    1.403267
      7          1           0        1.960491   -0.113299    0.920723
      8          1           0        1.918216    0.798410   -0.416747
      9          1           0       -0.912574    1.987587   -0.045292
     10          1           0       -0.587873    1.325109   -1.537397
     11          1           0       -1.295199   -1.396156   -1.123790
     12          1           0       -2.339249   -0.277584   -0.492519
     13          1           0       -0.674391   -0.596124    1.782441
 ---------------------------------------------------------------------

 SCF Done:  E(RB3LYP) =  -356.973229172     A.U. after    1 cycles

 The electronic state is 1-A.
 Alpha  occ. eigenvalues --  -19.16734 -19.15776 -14.35171 -14.33134 -14.33036
 Alpha  occ. eigenvalues --  -10.33946  -1.09246  -1.02023  -0.90891  -0.86352
 Alpha  occ. eigenvalues --   -0.78726  -0.62448  -0.55880  -0.51883  -0.51149
 Alpha  occ. eigenvalues --   -0.47798  -0.45625  -0.45344  -0.40548  -0.35982
 Alpha  occ. eigenvalues --   -0.31204  -0.30235  -0.27717  -0.25002  -0.24464
 Alpha virt. eigenvalues --    0.06145   0.09286   0.11395   0.12460   0.13299
 Alpha virt. eigenvalues --    0.15182   0.15757   0.19202   0.23790   0.25416
 Alpha virt. eigenvalues --    0.27640   0.30063   0.56712   0.60532   0.61490

 Mulliken charges:
               1
     1  N   -0.341291
     2  O   -0.429684
     3  C    0.685809
     4  N   -0.595267
     5  N   -0.622054
     6  O   -0.533560
     7  H    0.250668
     8  H    0.259266
     9  H    0.256601
    10  H    0.245697
    11  H    0.263157
    12  H    0.239410
    13  H    0.321250
 Sum of Mulliken charges =  -0.00000

 Dipole moment (field-independent basis, Debye):
    X=             -3.0955    Y=              1.5599    Z=             -0.4907  Tot=              3.5009
 Quadrupole moment (field-independent basis, Debye-Ang):
   XX=            -35.6057   YY=            -36.0600   ZZ=            -32.3439
   XY=              0.7367   XZ=              4.7453   YZ=             -2.5886

  Exact polarizability:  44.873   1.325  37.446   1.982  -0.312  37.771
 Approx polarizability:  57.693   1.893  52.839   1.640   1.936  53.139

                      1                      2                      3
                      A                      A                      A
 Frequencies --    142.8261               211.2290               261.0680
 Red. masses --      2.0702                 1.3933                 1.2780
 Frc consts  --      0.0249                 0.0366                 0.0513
 IR Inten    --     12.1590                12.3318                 7.6148

                      4                      5                      6
                      A                      A                      A
 Frequencies --    298.6665               325.0751               401.6942
 Red. masses --      4.3785                 1.0924                 2.1853
 Frc consts  --      0.2301                 0.0680                 0.2078
 IR Inten    --     12.9744                67.9486                23.8420

                      7                      8                      9
                      A                      A                      A
 Frequencies --    434.1237               512.9654               517.3883
 Red. masses --      2.0371                 2.0593                 2.2207
 Frc consts  --      0.2262                 0.3193                 0.3502
 IR Inten    --     16.6733                30.2559                50.4050

                     10                     11                     12
                      A                      A                      A
 Frequencies --    571.4129               650.3128               776.7184
 Red. masses --      3.8720                 3.5194                 1.5324
 Frc consts  --      0.7449                 0.8769                 0.5447
 IR Inten    --     16.0747                54.0856               221.0469

                     13                     14                     15
                      A                      A                      A
 Frequencies --    821.6490               828.7536               935.3398
 Red. masses --      2.2416                 2.3237                 2.6311
 Frc consts  --      0.8916                 0.9403                 1.3562
 IR Inten    --     64.3785                55.1864               123.9045

                     16                     17                     18
                      A                      A                      A
 Frequencies --    970.1621              1064.1771              1122.7166
 Red. masses --      7.1740                 2.0051                 1.9361
 Frc consts  --      3.9783                 1.3379                 1.4379
 IR Inten    --     11.6450               156.6280                31.2887

                     19                     20                     21
                      A                      A                      A
 Frequencies --   1267.2204              1279.7495              1347.1548
 Red. masses --      1.5669                 1.8905                 1.5785
 Frc consts  --      1.4825                 1.8242                 1.6879
 IR Inten    --     38.5096               256.2963                63.5001

                     22                     23                     24
                      A                      A                      A
 Frequencies --   1374.4801              1399.0356              1632.8780
 Red. masses --      1.2886                 1.6787                 1.1020
 Frc consts  --      1.4344                 1.9358                 1.7312
 IR Inten    --     21.0638               129.9676                54.7915

                     25                     26                     27
                      A                      A                      A
 Frequencies --   1644.4792              1684.4151              3386.1404
 Red. masses --      1.1463                 1.0657                 1.0469
 Frc consts  --      1.8265                 1.7815                 7.0723
 IR Inten    --     43.1017                26.8096                 9.0249

                     28                     29                     30
                      A                      A                      A
 Frequencies --   3473.8550              3520.1139              3534.3893
 Red. masses --      1.0933                 1.0486                 1.0480
 Frc consts  --      7.7734                 7.6555                 7.7130
 IR Inten    --      0.5067                 5.4765                 3.8228

                     31                     32                     33
                      A                      A                      A
 Frequencies --   3619.3387              3638.8367              3804.9804
 Red. masses --      1.0949                 1.0962                 1.0649
 Frc consts  --      8.4508                 8.5516                 9.0834
 IR Inten    --      7.2085                 7.1561                49.2040

 - Thermochemistry -
 -------------------
 Temperature   298.150 Kelvin.  Pressure   1.00000 Atm.
 Atom     1 has atomic number  7 and mass  14.00307

 Molecular mass:    93.05383 amu.
 Principal axes and moments of inertia in atomic units:
                           1         2         3
     Eigenvalues --   366.48130 590.92090 614.29925
           X            0.99846   0.03886   0.03966
           Y           -0.02550   0.95543  -0.29412
           Z           -0.04932   0.29265   0.95495
 This molecule is an asymmetric top.
 Rotational symmetry number  1.
 Rotational temperatures (Kelvin)      0.23634     0.14657     0.14100
 Rotational constants (GHZ):           4.92451     3.05412     2.93789
 Zero-point vibrational energy     283834.0 (Joules/Mol)
                                   67.83796 (Kcal/Mol)
 Warning -- explicit consideration of  10 degrees of freedom as
           vibrations may cause significant error
 Vibrational temperatures:    205.49   303.91   375.62   429.71   467.71
          (Kelvin)            577.95   624.61   738.04   744.41   822.13
                              935.65  1117.52  1182.17  1192.39  1345.74
                             1395.85  1531.11  1615.34  1823.25  1841.27
                             1938.25  1977.57  2012.90  2349.34  2366.04
                             2423.49  4871.89  4998.10  5064.65  5085.19
                             5207.41  5235.47  5474.51

 Zero-point correction=                           0.108107 (Hartree/Particle)
 Thermal correction to Energy=                    0.115169
 Thermal correction to Enthalpy=                  0.116114
 Thermal correction to Gibbs Free Energy=         0.078070
 Sum of electronic and zero-point Energies=           -356.865122
 Sum of electronic and thermal Energies=              -356.858060
 Sum of electronic and thermal Enthalpies=            -356.857116
 Sum of electronic and thermal Free Energies=         -356.895159

                     E (Thermal)             CV                S
                      KCal/Mol        Cal/Mol-Kelvin    Cal/Mol-Kelvin
 Total                   72.270             26.206             80.070
 Electronic               0.000              0.000              0.000
 Translational            0.889              2.981             39.503
 Rotational               0.889              2.981             26.389
 Vibrational             70.492             20.245             14.177
 Vibration     1          0.616              1.910              2.766
 Vibration     2          0.643              1.824              2.033
 Vibration     3          0.669              1.744              1.655
 Vibration     4          0.692              1.676              1.424
 Vibration     5          0.709              1.625              1.284
 Vibration     6          0.767              1.466              0.956
 Vibration     7          0.795              1.396              0.845
 Vibration     8          0.868              1.221              0.626
 Vibration     9          0.872              1.211              0.616
 Vibration    10          0.928              1.093              0.502

 Normal termination of Gaussian 09 at Thu Sep  8 14:53:59 2022.
