 Gaussian 09, Revision E.01,
 Gaussian 09:  ES64L-G09RevE.01 30-Nov-2015

 ----------------------------
 #P OPT Freq B3LYP/6-31G(d,p)
 ----------------------------

 ---------
 Frag_1040
 ---------
 Symbolic Z-matrix:
 Charge =  0 Multiplicity = 1

 SCF Done:  E(RB3LYP) =  -344.823761604     A.U. after   13 cycles
 SCF Done:  E(RB3LYP) =  -344.823816889     A.U. after   10 cycles
 SCF Done:  E(RB3LYP) =  -344.823820990     A.U. after    8 cycles
 SCF Done:  E(RB3LYP) =  -344.823822312     A.U. after    7 cycles
 SCF Done:  E(RB3LYP) =  -344.823823950     A.U. after    8 cycles
 SCF Done:  E(RB3LYP) =  -344.823824082     A.U. after    7 cycles
 Optimization completed.
    -- Stationary point found.
 Normal termination of Gaussian 09 at Thu Sep  8 14:53:02 2022.

 ----------------------------------------------------------------------
 #P Geom=AllCheck Guess=TCheck SCRF=Check GenChk RB3LYP/6-31G(d,p) Freq
 ----------------------------------------------------------------------

 Structure from the checkpoint file:  "B3LYP6-31Gdp.Frag_1040.chk"
 ---------
 Frag_1040
 ---------
 Charge =  0 Multiplicity = 1

                         Standard orientation:
 ---------------------------------------------------------------------
 Center     Atomic      Atomic             Coordinates (Angstroms)
 Number     Number       Type             X           Y           Z
 ---------------------------------------------------------------------
      1          6           0       -2.123329   -0.073738   -0.039230
      2          6           0       -0.871479    0.804006   -0.020799
      3          6           0        0.435627    0.004622    0.017507
      4          8           0        0.559395   -0.885535   -1.062014
      5          8           0        1.567283    0.856412   -0.082091
      6          8           0        0.451467   -0.734361    1.198001
      7          1           0       -3.026718    0.540313   -0.104454
      8          1           0       -2.102934   -0.749188   -0.898691
      9          1           0       -2.183181   -0.681438    0.866957
     10          1           0       -0.888096    1.470390    0.851207
     11          1           0       -0.830265    1.441088   -0.911062
     12          1           0        1.048688   -0.415513   -1.751082
     13          1           0        1.537475    1.464738    0.668678
     14          1           0        1.174959   -1.371857    1.102404
 ---------------------------------------------------------------------

 SCF Done:  E(RB3LYP) =  -344.823824082     A.U. after    1 cycles

 The electronic state is 1-A.
 Alpha  occ. eigenvalues --  -19.15613 -19.15400 -19.15297 -10.33303 -10.18361
 Alpha  occ. eigenvalues --  -10.16797  -1.09869  -1.00291  -0.99780  -0.77015
 Alpha  occ. eigenvalues --   -0.66078  -0.59747  -0.55789  -0.53418  -0.46765
 Alpha  occ. eigenvalues --   -0.42977  -0.42205  -0.39251  -0.37335  -0.35750
 Alpha  occ. eigenvalues --   -0.34637  -0.33973  -0.31719  -0.28484  -0.28410
 Alpha virt. eigenvalues --    0.06693   0.09779   0.11127   0.13273   0.15845
 Alpha virt. eigenvalues --    0.16706   0.17948   0.19354   0.22215   0.25229
 Alpha virt. eigenvalues --    0.26408   0.28155   0.29230   0.52875   0.54191

 Mulliken charges:
               1
     1  C   -0.319747
     2  C   -0.185636
     3  C    0.665400
     4  O   -0.547779
     5  O   -0.561046
     6  O   -0.520566
     7  H    0.095024
     8  H    0.119874
     9  H    0.124398
    10  H    0.090856
    11  H    0.098052
    12  H    0.320532
    13  H    0.310420
    14  H    0.310217
 Sum of Mulliken charges =  -0.00000

 Dipole moment (field-independent basis, Debye):
    X=              0.6192    Y=              1.2163    Z=             -0.0594  Tot=              1.3661
 Quadrupole moment (field-independent basis, Debye-Ang):
   XX=            -35.7355   YY=            -34.7909   ZZ=            -34.8149
   XY=             -1.3923   XZ=              1.1953   YZ=              0.4219

  Exact polarizability:  45.375   0.052  42.082  -0.458   0.427  41.873
 Approx polarizability:  55.363   0.816  58.014  -2.152   1.031  59.963

                      1                      2                      3
                      A                      A                      A
 Frequencies --    121.5702               188.1208               215.3454
 Red. masses --      2.1309                 1.1430                 1.2022
 Frc consts  --      0.0186                 0.0238                 0.0328
 IR Inten    --      0.5980               141.4240                 2.5048

                      4                      5                      6
                      A                      A                      A
 Frequencies --    240.7081               277.6318               342.1240
 Red. masses --      3.1084                 1.1247                 1.4597
 Frc consts  --      0.1061                 0.0511                 0.1007
 IR Inten    --      3.4205                35.1455                56.2379

                      7                      8                      9
                      A                      A                      A
 Frequencies --    394.4551               447.1742               530.4536
 Red. masses --      2.4962                 2.5673                 3.4719
 Frc consts  --      0.2288                 0.3025                 0.5756
 IR Inten    --     12.6998                48.3554                20.3850

                     10                     11                     12
                      A                      A                      A
 Frequencies --    547.3485               606.9328               795.3162
 Red. masses --      3.0303                 4.6814                 3.3479
 Frc consts  --      0.5349                 1.0160                 1.2477
 IR Inten    --     39.5637                20.7303                 3.9187

                     13                     14                     15
                      A                      A                      A
 Frequencies --    806.0497               984.7614              1008.9350
 Red. masses --      1.3259                 1.8980                 2.5593
 Frc consts  --      0.5075                 1.0845                 1.5350
 IR Inten    --      0.6311                46.3122               119.4466

                     16                     17                     18
                      A                      A                      A
 Frequencies --   1039.9336              1072.0196              1114.5996
 Red. masses --      2.5497                 2.0042                 1.7838
 Frc consts  --      1.6246                 1.3571                 1.3056
 IR Inten    --    107.5314                80.4457                72.6579

                     19                     20                     21
                      A                      A                      A
 Frequencies --   1175.6796              1271.4701              1296.3450
 Red. masses --      1.9127                 1.2959                 1.3042
 Frc consts  --      1.5577                 1.2344                 1.2913
 IR Inten    --    159.2082                12.0263                59.7071

                     22                     23                     24
                      A                      A                      A
 Frequencies --   1380.4388              1393.3220              1423.7475
 Red. masses --      1.5167                 1.7272                 1.3593
 Frc consts  --      1.7029                 1.9756                 1.6235
 IR Inten    --     74.4398                47.8118                11.5532

                     25                     26                     27
                      A                      A                      A
 Frequencies --   1448.5912              1493.5512              1507.8086
 Red. masses --      1.8441                 1.0862                 1.0399
 Frc consts  --      2.2800                 1.4276                 1.3929
 IR Inten    --    150.5722                 1.1520                 2.4411

                     28                     29                     30
                      A                      A                      A
 Frequencies --   1528.1174              3041.8106              3058.0927
 Red. masses --      1.0679                 1.0631                 1.0361
 Frc consts  --      1.4692                 5.7955                 5.7086
 IR Inten    --      9.9234                28.1817                24.4342

                     31                     32                     33
                      A                      A                      A
 Frequencies --   3089.5226              3128.6545              3144.1074
 Red. masses --      1.1009                 1.1016                 1.1032
 Frc consts  --      6.1915                 6.3533                 6.4251
 IR Inten    --     19.4603                27.1606                25.2648

                     34                     35                     36
                      A                      A                      A
 Frequencies --   3789.8690              3819.2306              3824.8296
 Red. masses --      1.0648                 1.0664                 1.0647
 Frc consts  --      9.0111                 9.1645                 9.1769
 IR Inten    --     30.2840                31.1611                38.6684

 - Thermochemistry -
 -------------------
 Temperature   298.150 Kelvin.  Pressure   1.00000 Atm.
 Atom     1 has atomic number  6 and mass  12.00000

 Molecular mass:    92.04734 amu.
 Principal axes and moments of inertia in atomic units:
                           1         2         3
     Eigenvalues --   355.50945 666.57325 671.94470
           X            0.99990  -0.01182   0.00797
           Y            0.01099   0.99515   0.09771
           Z           -0.00909  -0.09762   0.99518
 This molecule is an asymmetric top.
 Rotational symmetry number  1.
 Rotational temperatures (Kelvin)      0.24363     0.12994     0.12890
 Rotational constants (GHZ):           5.07649     2.70749     2.68585
 Zero-point vibrational energy     308329.5 (Joules/Mol)
                                   73.69252 (Kcal/Mol)
 Warning -- explicit consideration of  11 degrees of freedom as
           vibrations may cause significant error
 Vibrational temperatures:    174.91   270.66   309.83   346.32   399.45
          (Kelvin)            492.24   567.53   643.38   763.20   787.51
                              873.24  1144.28  1159.72  1416.85  1451.63
                             1496.23  1542.40  1603.66  1691.54  1829.36
                             1865.15  1986.14  2004.68  2048.45  2084.20
                             2148.88  2169.40  2198.62  4376.48  4399.91
                             4445.13  4501.43  4523.66  5452.77  5495.01
                             5503.07

 Zero-point correction=                           0.117437 (Hartree/Particle)
 Thermal correction to Energy=                    0.124929
 Thermal correction to Enthalpy=                  0.125873
 Thermal correction to Gibbs Free Energy=         0.086776
 Sum of electronic and zero-point Energies=           -344.706388
 Sum of electronic and thermal Energies=              -344.698895
 Sum of electronic and thermal Enthalpies=            -344.697951
 Sum of electronic and thermal Free Energies=         -344.737048

                     E (Thermal)             CV                S
                      KCal/Mol        Cal/Mol-Kelvin    Cal/Mol-Kelvin
 Total                   78.394             26.975             82.286
 Electronic               0.000              0.000              0.000
 Translational            0.889              2.981             39.471
 Rotational               0.889              2.981             26.568
 Vibrational             76.617             21.013             16.247
 Vibration     1          0.609              1.931              3.075
 Vibration     2          0.633              1.856              2.246
 Vibration     3          0.645              1.818              1.998
 Vibration     4          0.658              1.778              1.798
 Vibration     5          0.679              1.715              1.548
 Vibration     6          0.721              1.591              1.202
 Vibration     7          0.761              1.482              0.983
 Vibration     8          0.806              1.367              0.804
 Vibration     9          0.885              1.183              0.586
 Vibration    10          0.903              1.145              0.550
 Vibration    11          0.966              1.017              0.438

 Normal termination of Gaussian 09 at Thu Sep  8 14:53:13 2022.
