 Gaussian 09, Revision E.01,
 Gaussian 09:  ES64L-G09RevE.01 30-Nov-2015

 -------------------------
 #P OPT Freq B3LYP/6-31G**
 -------------------------

 --------
 Frag_140
 --------
 Symbolic Z-matrix:
 Charge =  0 Multiplicity = 1

 SCF Done:  E(RB3LYP) =  -309.466973111     A.U. after   11 cycles
 SCF Done:  E(RB3LYP) =  -309.473041558     A.U. after   11 cycles
 SCF Done:  E(RB3LYP) =  -309.473058108     A.U. after    7 cycles
 Optimization completed.
    -- Stationary point found.
 Normal termination of Gaussian 09 at Sat Aug 21 01:39:41 2021.

 ----------------------------------------------------------------------
 #P Geom=AllCheck Guess=TCheck SCRF=Check GenChk RB3LYP/6-31G(d,p) Freq
 ----------------------------------------------------------------------

 Structure from the checkpoint file:  "/public/home/users/caep010/.cache/gau_scr/Gau-53064.chk"
 --------
 Frag_140
 --------
 Charge =  0 Multiplicity = 1

                         Standard orientation:
 ---------------------------------------------------------------------
 Center     Atomic      Atomic             Coordinates (Angstroms)
 Number     Number       Type             X           Y           Z
 ---------------------------------------------------------------------
      1          6           0        0.339466    1.201970    0.537883
      2          6           0        1.252221    0.341305   -0.406517
      3          6           0        0.884523   -0.947237    0.412290
      4          6           0       -0.028191   -0.086453    1.356798
      5          6           0       -1.252208   -0.341316    0.406538
      6          6           0       -0.884544    0.947220   -0.412291
      7          6           0        0.028203    0.086468   -1.356799
      8          6           0       -0.339470   -1.201959   -0.537900
      9          1           0        0.611755    2.166279    0.969416
     10          1           0        2.256678    0.615034   -0.732685
     11          1           0        1.594039   -1.707069    0.743157
     12          1           0       -0.050713   -0.155527    2.445366
     13          1           0       -2.256665   -0.615054    0.732696
     14          1           0       -1.594054    1.707053   -0.743167
     15          1           0        0.050742    0.155560   -2.445366
     16          1           0       -0.611791   -2.166260   -0.969433
 ---------------------------------------------------------------------

 SCF Done:  E(RB3LYP) =  -309.473058108     A.U. after    1 cycles

 The electronic state is 1-A.
 Alpha  occ. eigenvalues --  -10.18012 -10.17996 -10.17995 -10.17995 -10.17980
 Alpha  occ. eigenvalues --  -10.17980 -10.17979 -10.17966  -0.93599  -0.71805
 Alpha  occ. eigenvalues --   -0.71803  -0.71800  -0.55338  -0.55338  -0.55335
 Alpha  occ. eigenvalues --   -0.52555  -0.45957  -0.42464  -0.42464  -0.41896
 Alpha  occ. eigenvalues --   -0.41894  -0.41891  -0.26670  -0.26664  -0.26663
 Alpha  occ. eigenvalues --   -0.25671  -0.25667  -0.25661
 Alpha virt. eigenvalues --    0.07847   0.07851   0.07853   0.09029   0.16553
 Alpha virt. eigenvalues --    0.16554   0.16556   0.18071   0.18072   0.18073
 Alpha virt. eigenvalues --    0.18306   0.19744   0.19746   0.19749   0.31067

 Mulliken charges:
               1
     1  C   -0.066052
     2  C   -0.065996
     3  C   -0.066058
     4  C   -0.066098
     5  C   -0.065995
     6  C   -0.066059
     7  C   -0.066098
     8  C   -0.066052
     9  H    0.066055
    10  H    0.066046
    11  H    0.066053
    12  H    0.066050
    13  H    0.066045
    14  H    0.066053
    15  H    0.066050
    16  H    0.066055
 Sum of Mulliken charges =  -0.00000

 Dipole moment (field-independent basis, Debye):
    X=             -0.0000    Y=              0.0000    Z=             -0.0000  Tot=              0.0000
 Quadrupole moment (field-independent basis, Debye-Ang):
   XX=            -46.2402   YY=            -46.2419   ZZ=            -46.2432
   XY=             -0.0000   XZ=              0.0004   YZ=              0.0007

  Exact polarizability:  67.358   0.000  67.353   0.000   0.001  67.350
 Approx polarizability:  98.728   0.000  98.716   0.002   0.002  98.711

                      1                      2                      3
                      A                      A                      A
 Frequencies --    623.8640               626.0564               683.2968
 Red. masses --      2.6673                 2.6587                 3.9074
 Frc consts  --      0.6117                 0.6140                 1.0749
 IR Inten    --      0.0000                 0.0000                 0.0000

                      4                      5                      6
                      A                      A                      A
 Frequencies --    684.4146               685.2833               846.1315
 Red. masses --      3.9165                 3.9155                 1.9800
 Frc consts  --      1.0809                 1.0834                 0.8352
 IR Inten    --      0.0000                 0.0000                 0.0000

                      7                      8                      9
                      A                      A                      A
 Frequencies --    846.3852               846.4426               847.9652
 Red. masses --      1.9815                 1.9793                 1.4462
 Frc consts  --      0.8363                 0.8355                 0.6127
 IR Inten    --      0.0000                 0.0000                 0.0006

                     10                     11                     12
                      A                      A                      A
 Frequencies --    848.2689               848.3607               869.5462
 Red. masses --      1.4452                 1.4460                 1.9627
 Frc consts  --      0.6127                 0.6132                 0.8744
 IR Inten    --      0.0008                 0.0005                 5.9096

                     13                     14                     15
                      A                      A                      A
 Frequencies --    869.5748               869.9394               921.1527
 Red. masses --      1.9642                 1.9619                 1.5039
 Frc consts  --      0.8751                 0.8748                 0.7519
 IR Inten    --      5.9094                 5.9266                 0.0000

                     16                     17                     18
                      A                      A                      A
 Frequencies --    921.3291              1019.7862              1044.0779
 Red. masses --      1.5032                 6.0096                 6.3560
 Frc consts  --      0.7518                 3.6822                 4.0823
 IR Inten    --      0.0000                 0.0000                 0.0003

                     19                     20                     21
                      A                      A                      A
 Frequencies --   1080.1132              1080.5984              1080.6215
 Red. masses --      2.6042                 2.6103                 2.6018
 Frc consts  --      1.7901                 1.7958                 1.7900
 IR Inten    --      0.0000                 0.0000                 0.0001

                     22                     23                     24
                      A                      A                      A
 Frequencies --   1122.3058              1122.6849              1165.2308
 Red. masses --      2.4352                 2.4370                 1.2540
 Frc consts  --      1.8072                 1.8097                 1.0032
 IR Inten    --      0.0000                 0.0000                 0.0000

                     25                     26                     27
                      A                      A                      A
 Frequencies --   1165.2832              1165.5938              1193.9668
 Red. masses --      1.2540                 1.2540                 1.4273
 Frc consts  --      1.0033                 1.0038                 1.1988
 IR Inten    --      0.0000                 0.0000                 0.0000

                     28                     29                     30
                      A                      A                      A
 Frequencies --   1194.6366              1238.3186              1238.8635
 Red. masses --      1.4297                 2.1209                 2.1216
 Frc consts  --      1.2022                 1.9162                 1.9185
 IR Inten    --      0.0000                 0.0000                 0.0000

                     31                     32                     33
                      A                      A                      A
 Frequencies --   1239.0731              1281.1477              1281.2409
 Red. masses --      2.1237                 1.7467                 1.7453
 Frc consts  --      1.9211                 1.6891                 1.6881
 IR Inten    --      0.0000                 1.8779                 1.8738

                     34                     35                     36
                      A                      A                      A
 Frequencies --   1281.4494              3108.8226              3118.3870
 Red. masses --      1.7464                 1.0888                 1.0877
 Frc consts  --      1.6896                 6.1997                 6.2317
 IR Inten    --      1.8712                 0.0051                 0.0000

                     37                     38                     39
                      A                      A                      A
 Frequencies --   3118.5018              3118.5917              3125.4118
 Red. masses --      1.0877                 1.0877                 1.0926
 Frc consts  --      6.2324                 6.2329                 6.2880
 IR Inten    --      0.0000                 0.0000               133.7556

                     40                     41                     42
                      A                      A                      A
 Frequencies --   3125.4860              3125.5405              3143.2312
 Red. masses --      1.0926                 1.0926                 1.0999
 Frc consts  --      6.2883                 6.2885                 6.4026
 IR Inten    --    133.6346               133.6114                 0.0000

 - Thermochemistry -
 -------------------
 Temperature   298.150 Kelvin.  Pressure   1.00000 Atm.
 Atom     1 has atomic number  6 and mass  12.00000

 Molecular mass:   104.06260 amu.
 Principal axes and moments of inertia in atomic units:
                           1         2         3
     Eigenvalues --   537.94658 538.00143 538.04424
           X            0.99987  -0.00536   0.01530
           Y            0.00430   0.99764   0.06850
           Z           -0.01563  -0.06842   0.99753
 This molecule is an asymmetric top.
 Rotational symmetry number  1.
 Warning -- assumption of classical behavior for rotation
           may cause significant error
 Rotational temperatures (Kelvin)      0.16101     0.16099     0.16098
 Rotational constants (GHZ):           3.35487     3.35453     3.35426
 Zero-point vibrational energy     351803.6 (Joules/Mol)
                                   84.08309 (Kcal/Mol)
 Vibrational temperatures:    897.60   900.75   983.11   984.72   985.97
          (Kelvin)           1217.39  1217.76  1217.84  1220.03  1220.47
                             1220.60  1251.08  1251.12  1251.65  1325.33
                             1325.59  1467.24  1502.19  1554.04  1554.74
                             1554.77  1614.75  1615.29  1676.51  1676.58
                             1677.03  1717.85  1718.81  1781.66  1782.45
                             1782.75  1843.28  1843.42  1843.72  4472.90
                             4486.66  4486.82  4486.95  4496.76  4496.87
                             4496.95  4522.40

 Zero-point correction=                           0.133995 (Hartree/Particle)
 Thermal correction to Energy=                    0.138517
 Thermal correction to Enthalpy=                  0.139461
 Thermal correction to Gibbs Free Energy=         0.105803
 Sum of electronic and zero-point Energies=           -309.339063
 Sum of electronic and thermal Energies=              -309.334541
 Sum of electronic and thermal Enthalpies=            -309.333597
 Sum of electronic and thermal Free Energies=         -309.367255

                     E (Thermal)             CV                S
                      KCal/Mol        Cal/Mol-Kelvin    Cal/Mol-Kelvin
 Total                   86.921             20.747             70.840
 Electronic               0.000              0.000              0.000
 Translational            0.889              2.981             39.837
 Rotational               0.889              2.981             26.546
 Vibrational             85.143             14.785              4.458

 Optimization completed.
    -- Stationary point found.
 Normal termination of Gaussian 09 at Sat Aug 21 01:40:00 2021.
