 Gaussian 09, Revision E.01,
 Gaussian 09:  ES64L-G09RevE.01 30-Nov-2015

 -------------------------
 #P OPT Freq B3LYP/6-31G**
 -------------------------

 --------
 Frag_167
 --------
 Symbolic Z-matrix:
 Charge =  0 Multiplicity = 1

 SCF Done:  E(RB3LYP) =  -322.364067479     A.U. after   18 cycles
 SCF Done:  E(RB3LYP) =  -322.392205970     A.U. after   14 cycles
 SCF Done:  E(RB3LYP) =  -322.383771900     A.U. after   16 cycles
 SCF Done:  E(RB3LYP) =  -322.394375277     A.U. after   12 cycles
 SCF Done:  E(RB3LYP) =  -322.395958133     A.U. after   14 cycles
 SCF Done:  E(RB3LYP) =  -322.396595923     A.U. after   13 cycles
 SCF Done:  E(RB3LYP) =  -322.396637296     A.U. after   12 cycles
 SCF Done:  E(RB3LYP) =  -322.396658318     A.U. after   12 cycles
 SCF Done:  E(RB3LYP) =  -322.396935422     A.U. after   15 cycles
 SCF Done:  E(RB3LYP) =  -322.353406229     A.U. after   16 cycles
 SCF Done:  E(RB3LYP) =  -322.365863029     A.U. after   14 cycles
 SCF Done:  E(RB3LYP) =  -322.400168017     A.U. after   11 cycles
 SCF Done:  E(RB3LYP) =  -322.403577081     A.U. after   16 cycles
 SCF Done:  E(RB3LYP) =  -322.403837143     A.U. after   16 cycles
 SCF Done:  E(RB3LYP) =  -322.404960561     A.U. after   14 cycles
 SCF Done:  E(RB3LYP) =  -322.405244864     A.U. after   14 cycles
 SCF Done:  E(RB3LYP) =  -322.405751711     A.U. after   14 cycles
 SCF Done:  E(RB3LYP) =  -322.405763968     A.U. after   10 cycles
 SCF Done:  E(RB3LYP) =  -322.405764984     A.U. after    9 cycles
 Optimization completed.
    -- Stationary point found.
 Normal termination of Gaussian 09 at Sat Aug 21 01:35:08 2021.

 ----------------------------------------------------------------------
 #P Geom=AllCheck Guess=TCheck SCRF=Check GenChk RB3LYP/6-31G(d,p) Freq
 ----------------------------------------------------------------------

 Structure from the checkpoint file:  "/public/home/users/caep010/.cache/gau_scr/Gau-85444.chk"
 --------
 Frag_167
 --------
 Charge =  0 Multiplicity = 1

                         Standard orientation:
 ---------------------------------------------------------------------
 Center     Atomic      Atomic             Coordinates (Angstroms)
 Number     Number       Type             X           Y           Z
 ---------------------------------------------------------------------
      1          8           0        1.868201   -0.723921   -0.000171
      2          7           0        0.886451    0.014519   -0.000013
      3          8           0        0.920873    1.245314    0.000530
      4          6           0       -0.431069   -0.641460   -0.000854
      5          6           0       -1.547520    0.046351   -0.748209
      6          6           0       -1.547273    0.044478    0.748653
      7          1           0       -0.323669   -1.717166   -0.002216
      8          1           0       -1.282202    0.973917   -1.242715
      9          1           0       -2.237583   -0.596838   -1.283879
     10          1           0       -2.236781   -0.600061    1.283459
     11          1           0       -1.282350    0.971157    1.245028
 ---------------------------------------------------------------------

 SCF Done:  E(RB3LYP) =  -322.405764983     A.U. after    1 cycles

 The electronic state is 1-A.
 Alpha  occ. eigenvalues --  -19.18178 -19.18139 -14.57150 -10.26010 -10.22403
 Alpha  occ. eigenvalues --  -10.22376  -1.22405  -1.05241  -0.90473  -0.74704
 Alpha  occ. eigenvalues --   -0.63496  -0.58776  -0.55324  -0.52714  -0.52568
 Alpha  occ. eigenvalues --   -0.49571  -0.44619  -0.39671  -0.35045  -0.33189
 Alpha  occ. eigenvalues --   -0.30926  -0.30405  -0.28863
 Alpha virt. eigenvalues --   -0.06563   0.07157   0.09784   0.12131   0.13658
 Alpha virt. eigenvalues --    0.14390   0.20070   0.20784   0.21050   0.23523
 Alpha virt. eigenvalues --    0.27105   0.35058   0.45342   0.51775   0.52348

 Mulliken charges:
               1
     1  O   -0.393289
     2  N    0.460927
     3  O   -0.393862
     4  C    0.038275
     5  C   -0.220777
     6  C   -0.220816
     7  H    0.141676
     8  H    0.158507
     9  H    0.135435
    10  H    0.135449
    11  H    0.158474
 Sum of Mulliken charges =  -0.00000

 Dipole moment (field-independent basis, Debye):
    X=             -3.7243    Y=             -1.2074    Z=             -0.0011  Tot=              3.9151
 Quadrupole moment (field-independent basis, Debye-Ang):
   XX=            -37.5067   YY=            -35.4500   ZZ=            -32.6485
   XY=              1.1441   XZ=             -0.0005   YZ=             -0.0006

  Exact polarizability:  51.856  -2.526  44.081  -0.001   0.002  34.279
 Approx polarizability:  75.580 -13.296  83.668  -0.007   0.010  48.419

                      1                      2                      3
                      A                      A                      A
 Frequencies --     95.6753               282.1105               299.1648
 Red. masses --      4.2432                 4.3824                 2.6963
 Frc consts  --      0.0229                 0.2055                 0.1422
 IR Inten    --      0.3362                 2.1160                 3.0546

                      4                      5                      6
                      A                      A                      A
 Frequencies --    489.1210               653.6617               734.6096
 Red. masses --      7.1392                 3.1377                 4.1940
 Frc consts  --      1.0063                 0.7899                 1.3335
 IR Inten    --      7.3185                 8.5844                 4.4316

                      7                      8                      9
                      A                      A                      A
 Frequencies --    779.5199               836.1575               868.5826
 Red. masses --      1.0997                 1.5676                 3.5344
 Frc consts  --      0.3937                 0.6457                 1.5710
 IR Inten    --      1.4120                 8.7740                 8.3404

                     10                     11                     12
                      A                      A                      A
 Frequencies --    945.9645               962.3486              1073.8919
 Red. masses --      5.2067                 3.4398                 1.2033
 Frc consts  --      2.7451                 1.8769                 0.8176
 IR Inten    --     54.4888                 0.0159                 9.9497

                     13                     14                     15
                      A                      A                      A
 Frequencies --   1095.8622              1119.0116              1131.0680
 Red. masses --      1.2780                 1.1875                 1.5768
 Frc consts  --      0.9043                 0.8761                 1.1885
 IR Inten    --      5.0902                 1.2173                 6.3348

                     16                     17                     18
                      A                      A                      A
 Frequencies --   1209.0729              1226.2464              1354.0134
 Red. masses --      1.3189                 1.8611                 1.6683
 Frc consts  --      1.1360                 1.6489                 1.8021
 IR Inten    --      0.1340                 3.6635                 5.3228

                     19                     20                     21
                      A                      A                      A
 Frequencies --   1423.5765              1458.8097              1500.5783
 Red. masses --     10.3108                 1.0910                 1.4237
 Frc consts  --     12.3113                 1.3680                 1.8888
 IR Inten    --    155.6907                 4.9912                20.9578

                     22                     23                     24
                      A                      A                      A
 Frequencies --   1658.4501              3161.1719              3161.4439
 Red. masses --     10.0348                 1.0507                 1.0582
 Frc consts  --     16.2616                 6.1862                 6.2317
 IR Inten    --    216.3407                 5.7982                 3.6719

                     25                     26                     27
                      A                      A                      A
 Frequencies --   3245.1121              3251.3533              3262.3677
 Red. masses --      1.0945                 1.1205                 1.1149
 Frc consts  --      6.7909                 6.9790                 6.9914
 IR Inten    --      0.1348                 0.8687                 0.8459

 - Thermochemistry -
 -------------------
 Temperature   298.150 Kelvin.  Pressure   1.00000 Atm.
 Atom     1 has atomic number  8 and mass  15.99491

 Molecular mass:    87.03203 amu.
 Principal axes and moments of inertia in atomic units:
                           1         2         3
     Eigenvalues --   227.27901 617.34878 702.61615
           X            0.99997   0.00744  -0.00000
           Y           -0.00744   0.99997  -0.00005
           Z            0.00000   0.00005   1.00000
 This molecule is an asymmetric top.
 Rotational symmetry number  1.
 Rotational temperatures (Kelvin)      0.38109     0.14030     0.12327
 Rotational constants (GHZ):           7.94064     2.92337     2.56860
 Zero-point vibrational energy     222977.6 (Joules/Mol)
                                   53.29293 (Kcal/Mol)
 Warning -- explicit consideration of   4 degrees of freedom as
           vibrations may cause significant error
 Vibrational temperatures:    137.66   405.89   430.43   703.74   940.47
          (Kelvin)           1056.94  1121.55  1203.04  1249.70  1361.03
                             1384.60  1545.09  1576.70  1610.01  1627.35
                             1739.58  1764.29  1948.12  2048.21  2098.90
                             2158.99  2386.14  4548.22  4548.61  4668.99
                             4677.97  4693.81

 Zero-point correction=                           0.084928 (Hartree/Particle)
 Thermal correction to Energy=                    0.090292
 Thermal correction to Enthalpy=                  0.091236
 Thermal correction to Gibbs Free Energy=         0.055897
 Sum of electronic and zero-point Energies=           -322.320837
 Sum of electronic and thermal Energies=              -322.315473
 Sum of electronic and thermal Enthalpies=            -322.314529
 Sum of electronic and thermal Free Energies=         -322.349868

                     E (Thermal)             CV                S
                      KCal/Mol        Cal/Mol-Kelvin    Cal/Mol-Kelvin
 Total                   56.659             18.856             74.378
 Electronic               0.000              0.000              0.000
 Translational            0.889              2.981             39.304
 Rotational               0.889              2.981             26.092
 Vibrational             54.882             12.894              8.982
 Vibration     1          0.603              1.952              3.541
 Vibration     2          0.681              1.707              1.521
 Vibration     3          0.692              1.675              1.422
 Vibration     4          0.845              1.274              0.686

 Optimization completed.
    -- Stationary point found.
 Normal termination of Gaussian 09 at Sat Aug 21 01:35:18 2021.
