 Gaussian 09, Revision E.01,
 Gaussian 09:  ES64L-G09RevE.01 30-Nov-2015

 ----------------------------
 #P OPT Freq B3LYP/6-31G(d,p)
 ----------------------------

 ---------
 Frag_1122
 ---------
 Symbolic Z-matrix:
 Charge =  0 Multiplicity = 1

 SCF Done:  E(RB3LYP) =  -363.840420891     A.U. after   12 cycles
 SCF Done:  E(RB3LYP) =  -363.840660425     A.U. after   10 cycles
 SCF Done:  E(RB3LYP) =  -363.840603961     A.U. after   10 cycles
 SCF Done:  E(RB3LYP) =  -363.840682094     A.U. after   10 cycles
 SCF Done:  E(RB3LYP) =  -363.840699964     A.U. after    7 cycles
 SCF Done:  E(RB3LYP) =  -363.840721426     A.U. after    7 cycles
 SCF Done:  E(RB3LYP) =  -363.840665647     A.U. after    7 cycles
 SCF Done:  E(RB3LYP) =  -363.840748628     A.U. after    7 cycles
 SCF Done:  E(RB3LYP) =  -363.840737083     A.U. after    7 cycles
 SCF Done:  E(RB3LYP) =  -363.840697791     A.U. after    7 cycles
 SCF Done:  E(RB3LYP) =  -363.840673651     A.U. after    7 cycles
 SCF Done:  E(RB3LYP) =  -363.840718551     A.U. after    7 cycles
 SCF Done:  E(RB3LYP) =  -363.840690603     A.U. after    7 cycles
 SCF Done:  E(RB3LYP) =  -363.840678572     A.U. after    7 cycles
 SCF Done:  E(RB3LYP) =  -363.840502474     A.U. after   10 cycles
 SCF Done:  E(RB3LYP) =  -363.840594892     A.U. after   10 cycles
 SCF Done:  E(RB3LYP) =  -363.840426634     A.U. after   10 cycles
 SCF Done:  E(RB3LYP) =  -363.830509529     A.U. after   13 cycles
 SCF Done:  E(RB3LYP) =  -363.840748363     A.U. after    7 cycles
 Optimization completed.
    -- Stationary point found.
 Normal termination of Gaussian 09 at Thu Sep  8 20:03:01 2022.

 ----------------------------------------------------------------------
 #P Geom=AllCheck Guess=TCheck SCRF=Check GenChk RB3LYP/6-31G(d,p) Freq
 ----------------------------------------------------------------------

 Structure from the checkpoint file:  "B3LYP6-31Gdp.Frag_1122.chk"
 ---------
 Frag_1122
 ---------
 Charge =  0 Multiplicity = 1

                         Standard orientation:
 ---------------------------------------------------------------------
 Center     Atomic      Atomic             Coordinates (Angstroms)
 Number     Number       Type             X           Y           Z
 ---------------------------------------------------------------------
      1          6           0       -1.315363   -0.238672    1.427897
      2          6           0       -0.788417    0.000561   -0.000768
      3          6           0       -1.316634   -1.118411   -0.921334
      4          6           0       -1.315216    1.358333   -0.507911
      5          6           0        0.789194   -0.000176    0.000002
      6          7           0        1.272020    0.379274   -1.335272
      7          7           0        1.268990   -1.346693    0.339795
      8          7           0        1.269247    0.966799    0.996979
      9          1           0       -1.106280    0.612226    2.084567
     10          1           0       -2.402639   -0.369908    1.406908
     11          1           0       -0.870781   -1.138203    1.862668
     12          1           0       -0.872348   -1.046000   -1.917793
     13          1           0       -2.403907   -1.034720   -1.023864
     14          1           0       -1.106733   -2.111193   -0.510219
     15          1           0       -1.104357    1.501657   -1.572641
     16          1           0       -2.402690    1.405585   -0.385697
     17          1           0       -0.871336    2.183908    0.055351
     18          1           0        1.110629    1.372317   -1.488695
     19          1           0        2.280173    0.237656   -1.375832
     20          1           0        1.099300   -1.977779   -0.440507
     21          1           0        2.278308   -1.315040    0.474836
     22          1           0        2.278064    1.070215    0.900088
     23          1           0        1.101418    0.603802    1.933002
 ---------------------------------------------------------------------

 SCF Done:  E(RB3LYP) =  -363.840748363     A.U. after    1 cycles

 The electronic state is 1-A.
 Alpha  occ. eigenvalues --  -14.31078 -14.31069 -14.31064 -10.26221 -10.18548
 Alpha  occ. eigenvalues --  -10.15798 -10.15788 -10.15785  -0.94376  -0.83373
 Alpha  occ. eigenvalues --   -0.83359  -0.78952  -0.66853  -0.66845  -0.62195
 Alpha  occ. eigenvalues --   -0.52019  -0.49044  -0.48687  -0.48672  -0.44223
 Alpha  occ. eigenvalues --   -0.44194  -0.41631  -0.40038  -0.40022  -0.36644
 Alpha  occ. eigenvalues --   -0.36636  -0.34967  -0.31353  -0.31181  -0.31170
 Alpha  occ. eigenvalues --   -0.24882  -0.24849  -0.23912
 Alpha virt. eigenvalues --    0.05955   0.11113   0.11934   0.11945   0.14641
 Alpha virt. eigenvalues --    0.15612   0.15722   0.15738   0.17520   0.17538
 Alpha virt. eigenvalues --    0.19680   0.19697   0.21141   0.21150   0.22274

 Mulliken charges:
               1
     1  C   -0.323590
     2  C    0.097893
     3  C   -0.323763
     4  C   -0.323489
     5  C    0.319506
     6  N   -0.583345
     7  N   -0.583309
     8  N   -0.583203
     9  H    0.097268
    10  H    0.092036
    11  H    0.117566
    12  H    0.117563
    13  H    0.092188
    14  H    0.097299
    15  H    0.097348
    16  H    0.092022
    17  H    0.117585
    18  H    0.244496
    19  H    0.216248
    20  H    0.244501
    21  H    0.216330
    22  H    0.216302
    23  H    0.244546
 Sum of Mulliken charges =  -0.00000

 Dipole moment (field-independent basis, Debye):
    X=              2.1338    Y=             -0.0086    Z=             -0.0011  Tot=              2.1338
 Quadrupole moment (field-independent basis, Debye-Ang):
   XX=            -44.1948   YY=            -53.7231   ZZ=            -53.7540
   XY=             -0.0014   XZ=             -0.0081   YZ=              0.0079

  Exact polarizability:  81.720   0.002  72.154  -0.007   0.004  72.126
 Approx polarizability: 108.794   0.007 102.207  -0.010   0.005 102.165

                      1                      2                      3
                      A                      A                      A
 Frequencies --    109.4697               247.8052               251.9991
 Red. masses --      3.3242                 1.0587                 1.2860
 Frc consts  --      0.0235                 0.0383                 0.0481
 IR Inten    --      0.0149                 3.1815                 8.7982

                      4                      5                      6
                      A                      A                      A
 Frequencies --    254.7657               285.4967               287.4181
 Red. masses --      1.3329                 1.8547                 1.7848
 Frc consts  --      0.0510                 0.0891                 0.0869
 IR Inten    --      8.0879                 7.0363                 5.4605

                      7                      8                      9
                      A                      A                      A
 Frequencies --    319.8946               323.8769               357.6809
 Red. masses --      1.2891                 1.3062                 1.7625
 Frc consts  --      0.0777                 0.0807                 0.1329
 IR Inten    --     12.9293                11.2918                51.7037

                     10                     11                     12
                      A                      A                      A
 Frequencies --    365.1786               366.8739               379.2799
 Red. masses --      1.8271                 1.8838                 1.3420
 Frc consts  --      0.1436                 0.1494                 0.1137
 IR Inten    --      2.6203                 1.1030                35.2394

                     13                     14                     15
                      A                      A                      A
 Frequencies --    425.0140               426.9279               523.2895
 Red. masses --      2.4121                 2.3663                 3.1213
 Frc consts  --      0.2567                 0.2541                 0.5036
 IR Inten    --     17.1467                17.7800                 6.5452

                     16                     17                     18
                      A                      A                      A
 Frequencies --    525.1916               533.5606               682.4770
 Red. masses --      3.1665                 2.3213                 2.7887
 Frc consts  --      0.5146                 0.3894                 0.7653
 IR Inten    --      6.1643                15.0791                 6.2635

                     19                     20                     21
                      A                      A                      A
 Frequencies --    838.5895               857.4614               894.7035
 Red. masses --      2.9853                 1.7340                 1.5240
 Frc consts  --      1.2369                 0.7512                 0.7188
 IR Inten    --      0.1862                 3.1955               180.5388

                     22                     23                     24
                      A                      A                      A
 Frequencies --    896.2530               946.0022               948.3032
 Red. masses --      1.5326                 1.6800                 1.6879
 Frc consts  --      0.7253                 0.8858                 0.8943
 IR Inten    --    180.9262                 1.0954                 0.9511

                     25                     26                     27
                      A                      A                      A
 Frequencies --    966.0789               973.6883              1024.6557
 Red. masses --      1.3229                 1.3588                 1.6131
 Frc consts  --      0.7274                 0.7590                 0.9978
 IR Inten    --     13.8301                10.8856                16.2139

                     28                     29                     30
                      A                      A                      A
 Frequencies --   1025.5736              1073.4504              1074.3366
 Red. masses --      1.6225                 1.5521                 1.5640
 Frc consts  --      1.0054                 1.0538                 1.0636
 IR Inten    --     18.5560                28.7394                29.3071

                     31                     32                     33
                      A                      A                      A
 Frequencies --   1242.8759              1243.5400              1254.0490
 Red. masses --      2.2899                 2.2786                 2.1319
 Frc consts  --      2.0841                 2.0761                 1.9753
 IR Inten    --     14.7838                14.3773                18.0169

                     34                     35                     36
                      A                      A                      A
 Frequencies --   1298.4792              1300.1337              1382.6730
 Red. masses --      2.1283                 2.1069                 2.0004
 Frc consts  --      2.1143                 2.0983                 2.2533
 IR Inten    --     23.4548                23.5532                12.2259

                     37                     38                     39
                      A                      A                      A
 Frequencies --   1401.1710              1404.0517              1435.4814
 Red. masses --      1.2526                 1.2501                 1.2524
 Frc consts  --      1.4490                 1.4520                 1.5206
 IR Inten    --      4.1249                 4.2039                24.4026

                     40                     41                     42
                      A                      A                      A
 Frequencies --   1498.7101              1515.4116              1516.2456
 Red. masses --      1.0494                 1.0490                 1.0493
 Frc consts  --      1.3887                 1.4193                 1.4214
 IR Inten    --      0.0486                 0.5199                 0.6023

                     43                     44                     45
                      A                      A                      A
 Frequencies --   1524.0029              1525.2887              1547.0913
 Red. masses --      1.0501                 1.0493                 1.0573
 Frc consts  --      1.4370                 1.4383                 1.4911
 IR Inten    --      1.9142                 1.8028                18.6329

                     46                     47                     48
                      A                      A                      A
 Frequencies --   1650.5469              1659.7214              1661.7363
 Red. masses --      1.0995                 1.1035                 1.1031
 Frc consts  --      1.7649                 1.7910                 1.7947
 IR Inten    --     50.9582                24.8222                25.2779

                     49                     50                     51
                      A                      A                      A
 Frequencies --   3041.2938              3041.6038              3048.9352
 Red. masses --      1.0353                 1.0352                 1.0364
 Frc consts  --      5.6418                 5.6428                 5.6764
 IR Inten    --     26.7878                26.9065                22.7673

                     52                     53                     54
                      A                      A                      A
 Frequencies --   3105.5846              3106.2648              3109.0364
 Red. masses --      1.1016                 1.1016                 1.1012
 Frc consts  --      6.2598                 6.2627                 6.2717
 IR Inten    --     15.0026                15.1276                53.4352

                     55                     56                     57
                      A                      A                      A
 Frequencies --   3130.5208              3131.3340              3131.9047
 Red. masses --      1.1024                 1.1022                 1.1022
 Frc consts  --      6.3651                 6.3677                 6.3699
 IR Inten    --     18.8806                21.6153                23.3240

                     58                     59                     60
                      A                      A                      A
 Frequencies --   3475.3673              3476.4594              3476.5781
 Red. masses --      1.0498                 1.0500                 1.0500
 Frc consts  --      7.4707                 7.4766                 7.4770
 IR Inten    --      7.7420                 2.8093                 0.7099

                     61                     62                     63
                      A                      A                      A
 Frequencies --   3567.1187              3567.7269              3568.3321
 Red. masses --      1.0917                 1.0915                 1.0912
 Frc consts  --      8.1846                 8.1853                 8.1862
 IR Inten    --      2.0151                 0.1827                 0.1612

 - Thermochemistry -
 -------------------
 Temperature   298.150 Kelvin.  Pressure   1.00000 Atm.
 Atom     1 has atomic number  6 and mass  12.00000

 Molecular mass:   117.12660 amu.
 Principal axes and moments of inertia in atomic units:
                           1         2         3
     Eigenvalues --   749.922971045.331461045.76499
           X            1.00000  -0.00000  -0.00009
           Y            0.00001   0.99974   0.02274
           Z            0.00009  -0.02274   0.99974
 This molecule is an asymmetric top.
 Rotational symmetry number  1.
 Warning -- assumption of classical behavior for rotation
           may cause significant error
 Rotational temperatures (Kelvin)      0.11550     0.08286     0.08282
 Rotational constants (GHZ):           2.40657     1.72648     1.72576
 Zero-point vibrational energy     557606.7 (Joules/Mol)
                                  133.27121 (Kcal/Mol)
 Warning -- explicit consideration of  17 degrees of freedom as
           vibrations may cause significant error
 Vibrational temperatures:    157.50   356.54   362.57   366.55   410.77
          (Kelvin)            413.53   460.26   465.99   514.62   525.41
                              527.85   545.70   611.50   614.25   752.90
                              755.63   767.67   981.93  1206.54  1233.69
                             1287.28  1289.51  1361.08  1364.40  1389.97
                             1400.92  1474.25  1475.57  1544.45  1545.73
                             1788.22  1789.17  1804.29  1868.22  1870.60
                             1989.36  2015.97  2020.11  2065.34  2156.31
                             2180.34  2181.54  2192.70  2194.55  2225.92
                             2374.77  2387.97  2390.86  4375.74  4376.18
                             4386.73  4468.24  4469.22  4473.20  4504.12
                             4505.29  4506.11  5000.27  5001.84  5002.01
                             5132.28  5133.16  5134.03

 Zero-point correction=                           0.212381 (Hartree/Particle)
 Thermal correction to Energy=                    0.222384
 Thermal correction to Enthalpy=                  0.223328
 Thermal correction to Gibbs Free Energy=         0.179464
 Sum of electronic and zero-point Energies=           -363.628367
 Sum of electronic and thermal Energies=              -363.618364
 Sum of electronic and thermal Enthalpies=            -363.617420
 Sum of electronic and thermal Free Energies=         -363.661285

                     E (Thermal)             CV                S
                      KCal/Mol        Cal/Mol-Kelvin    Cal/Mol-Kelvin
 Total                  139.548             40.221             92.321
 Electronic               0.000              0.000              0.000
 Translational            0.889              2.981             40.189
 Rotational               0.889              2.981             28.196
 Vibrational            137.771             34.259             23.935
 Vibration     1          0.606              1.942              3.278
 Vibration     2          0.661              1.766              1.746
 Vibration     3          0.664              1.759              1.717
 Vibration     4          0.665              1.755              1.697
 Vibration     5          0.683              1.701              1.501
 Vibration     6          0.685              1.697              1.489
 Vibration     7          0.706              1.635              1.311
 Vibration     8          0.708              1.628              1.290
 Vibration     9          0.733              1.559              1.132
 Vibration    10          0.738              1.544              1.100
 Vibration    11          0.740              1.540              1.093
 Vibration    12          0.749              1.514              1.042
 Vibration    13          0.787              1.416              0.875
 Vibration    14          0.789              1.412              0.869
 Vibration    15          0.878              1.198              0.602
 Vibration    16          0.880              1.194              0.598
 Vibration    17          0.889              1.176              0.579

 Normal termination of Gaussian 09 at Thu Sep  8 20:03:29 2022.
