 Gaussian 09, Revision E.01,
 Gaussian 09:  ES64L-G09RevE.01 30-Nov-2015

 -------------------------
 #P OPT Freq B3LYP/6-31G**
 -------------------------

 --------
 Frag_283
 --------
 Symbolic Z-matrix:
 Charge =  0 Multiplicity = 1

 SCF Done:  E(RB3LYP) =  -284.362613732     A.U. after   14 cycles
 SCF Done:  E(RB3LYP) =  -284.373630846     A.U. after   13 cycles
 SCF Done:  E(RB3LYP) =  -284.375012193     A.U. after   12 cycles
 SCF Done:  E(RB3LYP) =  -284.375484339     A.U. after   12 cycles
 SCF Done:  E(RB3LYP) =  -284.376181507     A.U. after   12 cycles
 SCF Done:  E(RB3LYP) =  -284.377018915     A.U. after   12 cycles
 SCF Done:  E(RB3LYP) =  -284.378565596     A.U. after   13 cycles
 SCF Done:  E(RB3LYP) =  -284.379765809     A.U. after   13 cycles
 SCF Done:  E(RB3LYP) =  -284.380869426     A.U. after   14 cycles
 SCF Done:  E(RB3LYP) =  -284.381031176     A.U. after   12 cycles
 SCF Done:  E(RB3LYP) =  -284.381573712     A.U. after   12 cycles
 SCF Done:  E(RB3LYP) =  -284.381935402     A.U. after   11 cycles
 SCF Done:  E(RB3LYP) =  -284.382048796     A.U. after   10 cycles
 SCF Done:  E(RB3LYP) =  -284.382135132     A.U. after   11 cycles
 SCF Done:  E(RB3LYP) =  -284.382181660     A.U. after   11 cycles
 SCF Done:  E(RB3LYP) =  -284.382234516     A.U. after   11 cycles
 SCF Done:  E(RB3LYP) =  -284.382269060     A.U. after   11 cycles
 SCF Done:  E(RB3LYP) =  -284.382277842     A.U. after   10 cycles
 SCF Done:  E(RB3LYP) =  -284.382279227     A.U. after    8 cycles
 Optimization completed.
    -- Stationary point found.
 Normal termination of Gaussian 09 at Sat Aug 21 01:39:16 2021.

 ----------------------------------------------------------------------
 #P Geom=AllCheck Guess=TCheck SCRF=Check GenChk RB3LYP/6-31G(d,p) Freq
 ----------------------------------------------------------------------

 Structure from the checkpoint file:  "/public/home/users/caep010/.cache/gau_scr/Gau-44943.chk"
 --------
 Frag_283
 --------
 Charge =  0 Multiplicity = 1

                         Standard orientation:
 ---------------------------------------------------------------------
 Center     Atomic      Atomic             Coordinates (Angstroms)
 Number     Number       Type             X           Y           Z
 ---------------------------------------------------------------------
      1          6           0       -1.814875   -0.443592   -0.023236
      2          6           0       -0.429218    0.155703    0.010219
      3          8           0       -0.195233    1.363774    0.002636
      4          7           0        0.604944   -0.732239    0.122081
      5          8           0        1.886644   -0.183496   -0.039947
      6          1           0       -2.315807   -0.131765   -0.943806
      7          1           0       -1.810435   -1.535198    0.034984
      8          1           0       -2.390630   -0.046802    0.816904
      9          1           0        0.552905   -1.649101   -0.302636
     10          1           0        1.662634    0.773649   -0.083430
 ---------------------------------------------------------------------

 SCF Done:  E(RB3LYP) =  -284.382279227     A.U. after    1 cycles

 The electronic state is 1-A.
 Alpha  occ. eigenvalues --  -19.18635 -19.13169 -14.41664 -10.30213 -10.20852
 Alpha  occ. eigenvalues --   -1.10221  -1.02487  -0.86339  -0.74525  -0.62626
 Alpha  occ. eigenvalues --   -0.53000  -0.50547  -0.46692  -0.43374  -0.41705
 Alpha  occ. eigenvalues --   -0.40475  -0.38463  -0.34104  -0.27676  -0.23854
 Alpha virt. eigenvalues --    0.00793   0.06807   0.09287   0.12025   0.14447
 Alpha virt. eigenvalues --    0.16149   0.16760   0.22183   0.32442   0.37589
 Alpha virt. eigenvalues --    0.51835   0.52301   0.57554   0.60246   0.63391

 Mulliken charges:
               1
     1  C   -0.389976
     2  C    0.557521
     3  O   -0.522447
     4  N   -0.250057
     5  O   -0.439137
     6  H    0.151424
     7  H    0.111382
     8  H    0.157860
     9  H    0.282387
    10  H    0.341043
 Sum of Mulliken charges =   0.00000

 Dipole moment (field-independent basis, Debye):
    X=             -1.7920    Y=             -2.5263    Z=             -0.7568  Tot=              3.1885
 Quadrupole moment (field-independent basis, Debye-Ang):
   XX=            -29.3615   YY=            -29.3056   ZZ=            -29.3955
   XY=              2.7153   XZ=             -0.5606   YZ=              1.0721

  Exact polarizability:  45.029  -0.334  38.695   0.217   0.142  22.123
 Approx polarizability:  59.717  -4.212  65.566   1.078  -1.104  31.020

                      1                      2                      3
                      A                      A                      A
 Frequencies --    100.1799               239.7265               289.6541
 Red. masses --      1.1155                 3.6838                 4.3582
 Frc consts  --      0.0066                 0.1247                 0.2154
 IR Inten    --      0.8090                 1.6585                26.5329

                      4                      5                      6
                      A                      A                      A
 Frequencies --    411.2306               435.7893               470.5497
 Red. masses --      2.2226                 1.3685                 1.3930
 Frc consts  --      0.2215                 0.1531                 0.1817
 IR Inten    --     58.2135               122.4946               105.2943

                      7                      8                      9
                      A                      A                      A
 Frequencies --    624.5241               650.9844               958.2456
 Red. masses --      2.6637                 3.6376                 2.2990
 Frc consts  --      0.6121                 0.9083                 1.2438
 IR Inten    --     21.6431                17.8197                13.6379

                     10                     11                     12
                      A                      A                      A
 Frequencies --   1011.1662              1056.6243              1094.7352
 Red. masses --      2.6858                 1.6548                 4.0012
 Frc consts  --      1.6179                 1.0885                 2.8253
 IR Inten    --     15.4854                14.0653                59.9376

                     13                     14                     15
                      A                      A                      A
 Frequencies --   1276.5006              1404.5176              1422.5134
 Red. masses --      1.5325                 1.3390                 1.6376
 Frc consts  --      1.4712                 1.5563                 1.9524
 IR Inten    --      4.3991                59.5824               162.8212

                     16                     17                     18
                      A                      A                      A
 Frequencies --   1481.6835              1503.1583              1564.3729
 Red. masses --      1.0484                 1.1107                 1.4413
 Frc consts  --      1.3560                 1.4787                 2.0781
 IR Inten    --      6.4048                26.8319                40.9548

                     19                     20                     21
                      A                      A                      A
 Frequencies --   1761.2564              3062.0838              3141.4180
 Red. masses --      8.1320                 1.0351                 1.1019
 Frc consts  --     14.8625                 5.7184                 6.4066
 IR Inten    --    183.8228                 4.8455                 4.9017

                     22                     23                     24
                      A                      A                      A
 Frequencies --   3145.2458              3540.3463              3617.9507
 Red. masses --      1.1039                 1.0640                 1.0799
 Frc consts  --      6.4340                 7.8571                 8.3282
 IR Inten    --     12.0071                52.3012                44.6737

 - Thermochemistry -
 -------------------
 Temperature   298.150 Kelvin.  Pressure   1.00000 Atm.
 Atom     1 has atomic number  6 and mass  12.00000

 Molecular mass:    75.03203 amu.
 Principal axes and moments of inertia in atomic units:
                           1         2         3
     Eigenvalues --   170.80250 442.12337 599.32254
           X            0.99882   0.04859  -0.00058
           Y           -0.04858   0.99876   0.01081
           Z            0.00110  -0.01077   0.99994
 This molecule is an asymmetric top.
 Rotational symmetry number  1.
 Rotational temperatures (Kelvin)      0.50710     0.19590     0.14452
 Rotational constants (GHZ):          10.56625     4.08199     3.01130
 Zero-point vibrational energy     204947.0 (Joules/Mol)
                                   48.98350 (Kcal/Mol)
 Warning -- explicit consideration of   6 degrees of freedom as
           vibrations may cause significant error
 Vibrational temperatures:    144.14   344.91   416.75   591.67   627.00
          (Kelvin)            677.02   898.55   936.62  1378.70  1454.84
                             1520.24  1575.08  1836.60  2020.79  2046.68
                             2131.81  2162.71  2250.78  2534.05  4405.65
                             4519.79  4525.30  5093.76  5205.42

 Zero-point correction=                           0.078060 (Hartree/Particle)
 Thermal correction to Energy=                    0.083839
 Thermal correction to Enthalpy=                  0.084784
 Thermal correction to Gibbs Free Energy=         0.049325
 Sum of electronic and zero-point Energies=           -284.304219
 Sum of electronic and thermal Energies=              -284.298440
 Sum of electronic and thermal Enthalpies=            -284.297496
 Sum of electronic and thermal Free Energies=         -284.332954

                     E (Thermal)             CV                S
                      KCal/Mol        Cal/Mol-Kelvin    Cal/Mol-Kelvin
 Total                   52.610             19.442             74.628
 Electronic               0.000              0.000              0.000
 Translational            0.889              2.981             38.862
 Rotational               0.889              2.981             25.318
 Vibrational             50.833             13.481             10.448
 Vibration     1          0.604              1.949              3.451
 Vibration     2          0.657              1.780              1.805
 Vibration     3          0.686              1.693              1.476
 Vibration     4          0.775              1.446              0.922
 Vibration     5          0.796              1.392              0.840
 Vibration     6          0.828              1.315              0.736

 Optimization completed.
    -- Stationary point found.
 Normal termination of Gaussian 09 at Sat Aug 21 01:39:24 2021.
