 Gaussian 09, Revision E.01,
 Gaussian 09:  ES64L-G09RevE.01 30-Nov-2015

 ----------------------------
 #P OPT Freq B3LYP/6-31G(d,p)
 ----------------------------

 --------
 Frag_918
 --------
 Symbolic Z-matrix:
 Charge =  0 Multiplicity = 1

 SCF Done:  E(RB3LYP) =  -324.522816801     A.U. after   12 cycles
 SCF Done:  E(RB3LYP) =  -324.522843426     A.U. after    8 cycles
 SCF Done:  E(RB3LYP) =  -324.522838559     A.U. after    9 cycles
 SCF Done:  E(RB3LYP) =  -324.522846019     A.U. after    8 cycles
 SCF Done:  E(RB3LYP) =  -324.522846194     A.U. after    6 cycles
 Optimization completed.
    -- Stationary point found.
 Normal termination of Gaussian 09 at Thu Sep  8 15:13:12 2022.

 ----------------------------------------------------------------------
 #P Geom=AllCheck Guess=TCheck SCRF=Check GenChk RB3LYP/6-31G(d,p) Freq
 ----------------------------------------------------------------------

 Structure from the checkpoint file:  "B3LYP6-31Gdp.Frag_918.chk"
 --------
 Frag_918
 --------
 Charge =  0 Multiplicity = 1

                         Standard orientation:
 ---------------------------------------------------------------------
 Center     Atomic      Atomic             Coordinates (Angstroms)
 Number     Number       Type             X           Y           Z
 ---------------------------------------------------------------------
      1          6           0        1.752371   -1.061814   -0.019951
      2          6           0        0.850205    0.099496   -0.470629
      3          7           0        1.326474    1.417012   -0.033905
      4          6           0       -0.627249   -0.063696    0.001125
      5          6           0       -1.484559    1.108522   -0.505139
      6          7           0       -0.645996   -0.047794    1.468205
      7          7           0       -1.114291   -1.371292   -0.491651
      8          1           0        1.845318   -1.076615    1.071813
      9          1           0        1.364511   -2.030709   -0.344609
     10          1           0        2.759476   -0.934157   -0.433200
     11          1           0        0.828816    0.107131   -1.571332
     12          1           0        1.213394    1.453317    0.979193
     13          1           0        2.322375    1.499183   -0.225316
     14          1           0       -2.528426    0.972032   -0.193920
     15          1           0       -1.117299    2.063209   -0.126733
     16          1           0       -1.463907    1.148759   -1.598747
     17          1           0       -0.400054   -0.976328    1.804008
     18          1           0       -1.585930    0.145748    1.805472
     19          1           0       -1.035387   -1.406271   -1.508203
     20          1           0       -2.110798   -1.445833   -0.289400
 ---------------------------------------------------------------------

 SCF Done:  E(RB3LYP) =  -324.522846194     A.U. after    1 cycles

 The electronic state is 1-A.
 Alpha  occ. eigenvalues --  -14.30995 -14.30991 -14.29435 -10.23798 -10.20193
 Alpha  occ. eigenvalues --  -10.16576 -10.16161  -0.92160  -0.86110  -0.83094
 Alpha  occ. eigenvalues --   -0.71919  -0.70897  -0.62142  -0.55019  -0.49287
 Alpha  occ. eigenvalues --   -0.48426  -0.47335  -0.42919  -0.41983  -0.40989
 Alpha  occ. eigenvalues --   -0.38858  -0.38184  -0.37802  -0.36106  -0.33436
 Alpha  occ. eigenvalues --   -0.31584  -0.25059  -0.23583  -0.21835
 Alpha virt. eigenvalues --    0.06593   0.10513   0.11774   0.12855   0.13650
 Alpha virt. eigenvalues --    0.15718   0.16740   0.17425   0.18267   0.19265
 Alpha virt. eigenvalues --    0.19932   0.20703   0.21027   0.23506   0.24923

 Mulliken charges:
               1
     1  C   -0.322201
     2  C    0.088712
     3  N   -0.603491
     4  C    0.229007
     5  C   -0.297566
     6  N   -0.593075
     7  N   -0.589489
     8  H    0.097660
     9  H    0.115843
    10  H    0.086671
    11  H    0.075085
    12  H    0.249409
    13  H    0.227221
    14  H    0.073631
    15  H    0.136679
    16  H    0.094651
    17  H    0.245465
    18  H    0.232167
    19  H    0.229738
    20  H    0.223884
 Sum of Mulliken charges =   0.00000

 Dipole moment (field-independent basis, Debye):
    X=             -0.9631    Y=             -0.8765    Z=             -0.1388  Tot=              1.3096
 Quadrupole moment (field-independent basis, Debye-Ang):
   XX=            -38.7869   YY=            -50.7251   ZZ=            -42.9396
   XY=              1.3942   XZ=             -0.4802   YZ=              0.6781

  Exact polarizability:  70.869   0.448  62.700  -1.255   1.342  61.763
 Approx polarizability:  90.612   2.468  86.047  -3.043   3.271  90.829

                      1                      2                      3
                      A                      A                      A
 Frequencies --     99.4191               230.0247               244.5511
 Red. masses --      2.8444                 1.0487                 1.1046
 Frc consts  --      0.0166                 0.0327                 0.0389
 IR Inten    --      1.2468                 3.4728                 1.8889

                      4                      5                      6
                      A                      A                      A
 Frequencies --    255.7917               273.9864               277.7681
 Red. masses --      1.6613                 1.3578                 1.7906
 Frc consts  --      0.0640                 0.0601                 0.0814
 IR Inten    --      9.9833                 9.5082                23.0642

                      7                      8                      9
                      A                      A                      A
 Frequencies --    307.9409               350.3711               357.5170
 Red. masses --      1.3207                 1.2473                 2.6807
 Frc consts  --      0.0738                 0.0902                 0.2019
 IR Inten    --     16.6351                81.1928                 0.6584

                     10                     11                     12
                      A                      A                      A
 Frequencies --    392.3277               417.6454               472.6314
 Red. masses --      2.5778                 2.3180                 2.3690
 Frc consts  --      0.2338                 0.2382                 0.3118
 IR Inten    --      2.5526                18.2602                11.4325

                     13                     14                     15
                      A                      A                      A
 Frequencies --    509.5039               587.9836               726.4754
 Red. masses --      3.2778                 2.4922                 2.7269
 Frc consts  --      0.5013                 0.5077                 0.8479
 IR Inten    --     10.6728                11.6402                 0.0385

                     16                     17                     18
                      A                      A                      A
 Frequencies --    851.4498               888.7780               907.3197
 Red. masses --      2.2718                 1.9712                 1.5462
 Frc consts  --      0.9704                 0.9174                 0.7500
 IR Inten    --     58.5773               166.1735                60.6542

                     19                     20                     21
                      A                      A                      A
 Frequencies --    931.5780               944.9788               973.4811
 Red. masses --      1.2793                 1.3879                 1.6200
 Frc consts  --      0.6541                 0.7302                 0.9045
 IR Inten    --    120.6307                 7.2066                 4.5461

                     22                     23                     24
                      A                      A                      A
 Frequencies --   1019.0024              1028.2560              1067.5228
 Red. masses --      1.3274                 1.6236                 2.3364
 Frc consts  --      0.8121                 1.0114                 1.5687
 IR Inten    --      7.2887                25.8158                30.2302

                     25                     26                     27
                      A                      A                      A
 Frequencies --   1131.7111              1148.7689              1193.0564
 Red. masses --      1.6939                 1.3072                 2.2365
 Frc consts  --      1.2782                 1.0164                 1.8756
 IR Inten    --      9.5899                 1.6388                40.5379

                     28                     29                     30
                      A                      A                      A
 Frequencies --   1255.1085              1306.2843              1363.9828
 Red. masses --      2.1604                 1.7681                 1.6339
 Frc consts  --      2.0051                 1.7775                 1.7910
 IR Inten    --     15.5404                18.1295                10.1495

                     31                     32                     33
                      A                      A                      A
 Frequencies --   1378.7314              1411.1844              1414.0424
 Red. masses --      1.4307                 1.2558                 1.4510
 Frc consts  --      1.6024                 1.4735                 1.7094
 IR Inten    --      4.4764                10.6901                 6.7911

                     34                     35                     36
                      A                      A                      A
 Frequencies --   1420.7761              1494.5427              1503.0811
 Red. masses --      1.3107                 1.0512                 1.0465
 Frc consts  --      1.5588                 1.3835                 1.3930
 IR Inten    --      4.5527                 0.6865                 3.4094

                     37                     38                     39
                      A                      A                      A
 Frequencies --   1512.6873              1519.9025              1646.1436
 Red. masses --      1.0582                 1.0708                 1.0908
 Frc consts  --      1.4267                 1.4574                 1.7415
 IR Inten    --      5.7605                 0.9360                37.9935

                     40                     41                     42
                      A                      A                      A
 Frequencies --   1656.2183              1671.1441              3001.4749
 Red. masses --      1.1012                 1.0954                 1.0838
 Frc consts  --      1.7797                 1.8025                 5.7529
 IR Inten    --     32.9290                33.5451                39.3977

                     43                     44                     45
                      A                      A                      A
 Frequencies --   3031.8474              3037.5927              3100.9049
 Red. masses --      1.0445                 1.0371                 1.1017
 Frc consts  --      5.6567                 5.6379                 6.2413
 IR Inten    --     39.5918                21.7802                22.6743

                     46                     47                     48
                      A                      A                      A
 Frequencies --   3104.8520              3132.9294              3158.5782
 Red. masses --      1.0964                 1.1006                 1.0987
 Frc consts  --      6.2274                 6.3649                 6.4582
 IR Inten    --     44.6419                21.5069                12.5424

                     49                     50                     51
                      A                      A                      A
 Frequencies --   3457.0106              3469.9317              3492.8501
 Red. masses --      1.0495                 1.0495                 1.0491
 Frc consts  --      7.3895                 7.4453                 7.5408
 IR Inten    --      3.3471                 6.7645                 0.5613

                     52                     53                     54
                      A                      A                      A
 Frequencies --   3542.6555              3561.5213              3577.9270
 Red. masses --      1.0917                 1.0917                 1.0927
 Frc consts  --      8.0724                 8.1585                 8.2419
 IR Inten    --      1.4963                 0.8454                 1.0186

 - Thermochemistry -
 -------------------
 Temperature   298.150 Kelvin.  Pressure   1.00000 Atm.
 Atom     1 has atomic number  6 and mass  12.00000

 Molecular mass:   103.11095 amu.
 Principal axes and moments of inertia in atomic units:
                           1         2         3
     Eigenvalues --   574.15923 783.39685 958.78067
           X            0.99787  -0.06413   0.01170
           Y            0.06423   0.99790  -0.00846
           Z           -0.01113   0.00920   0.99990
 This molecule is an asymmetric top.
 Rotational symmetry number  1.
 Warning -- assumption of classical behavior for rotation
           may cause significant error
 Rotational temperatures (Kelvin)      0.15085     0.11056     0.09034
 Rotational constants (GHZ):           3.14328     2.30374     1.88233
 Zero-point vibrational energy     483373.5 (Joules/Mol)
                                  115.52905 (Kcal/Mol)
 Warning -- explicit consideration of  14 degrees of freedom as
           vibrations may cause significant error
 Vibrational temperatures:    143.04   330.95   351.85   368.03   394.20
          (Kelvin)            399.65   443.06   504.11   514.39   564.47
                              600.90   680.01   733.06   845.98  1045.23
                             1225.04  1278.75  1305.43  1340.33  1359.61
                             1400.62  1466.12  1479.43  1535.93  1628.28
                             1652.82  1716.54  1805.82  1879.45  1962.46
                             1983.68  2030.38  2034.49  2044.18  2150.31
                             2162.60  2176.42  2186.80  2368.43  2382.93
                             2404.40  4318.45  4362.15  4370.41  4461.50
                             4467.18  4507.58  4544.48  4973.86  4992.45
                             5025.43  5097.08  5124.23  5147.83

 Zero-point correction=                           0.184107 (Hartree/Particle)
 Thermal correction to Energy=                    0.193083
 Thermal correction to Enthalpy=                  0.194027
 Thermal correction to Gibbs Free Energy=         0.152043
 Sum of electronic and zero-point Energies=           -324.338739
 Sum of electronic and thermal Energies=              -324.329763
 Sum of electronic and thermal Enthalpies=            -324.328819
 Sum of electronic and thermal Free Energies=         -324.370803

                     E (Thermal)             CV                S
                      KCal/Mol        Cal/Mol-Kelvin    Cal/Mol-Kelvin
 Total                  121.161             34.627             88.363
 Electronic               0.000              0.000              0.000
 Translational            0.889              2.981             39.809
 Rotational               0.889              2.981             27.558
 Vibrational            119.384             28.665             20.995
 Vibration     1          0.604              1.950              3.466
 Vibration     2          0.652              1.795              1.879
 Vibration     3          0.660              1.772              1.770
 Vibration     4          0.666              1.753              1.690
 Vibration     5          0.676              1.721              1.571
 Vibration     6          0.679              1.715              1.547
 Vibration     7          0.698              1.659              1.373
 Vibration     8          0.727              1.574              1.165
 Vibration     9          0.733              1.560              1.133
 Vibration    10          0.760              1.487              0.991
 Vibration    11          0.781              1.432              0.900
 Vibration    12          0.829              1.311              0.730
 Vibration    13          0.865              1.229              0.635
 Vibration    14          0.945              1.057              0.471

 Normal termination of Gaussian 09 at Thu Sep  8 15:13:32 2022.
