 Gaussian 09, Revision E.01,
 Gaussian 09:  ES64L-G09RevE.01 30-Nov-2015

 ----------------------------
 #P OPT Freq B3LYP/6-31G(d,p)
 ----------------------------

 ---------
 Frag_1104
 ---------
 Symbolic Z-matrix:
 Charge =  0 Multiplicity = 1

 SCF Done:  E(RB3LYP) =  -207.903266877     A.U. after   15 cycles
 SCF Done:  E(RB3LYP) =  -207.903425023     A.U. after   11 cycles
 SCF Done:  E(RB3LYP) =  -207.903430044     A.U. after    8 cycles
 SCF Done:  E(RB3LYP) =  -207.903429046     A.U. after    8 cycles
 SCF Done:  E(RB3LYP) =  -207.903430073     A.U. after    8 cycles
 Optimization completed.
    -- Stationary point found.
 Normal termination of Gaussian 09 at Thu Sep  8 14:45:29 2022.

 ----------------------------------------------------------------------
 #P Geom=AllCheck Guess=TCheck SCRF=Check GenChk RB3LYP/6-31G(d,p) Freq
 ----------------------------------------------------------------------

 Structure from the checkpoint file:  "B3LYP6-31Gdp.Frag_1104.chk"
 ---------
 Frag_1104
 ---------
 Charge =  0 Multiplicity = 1

                         Standard orientation:
 ---------------------------------------------------------------------
 Center     Atomic      Atomic             Coordinates (Angstroms)
 Number     Number       Type             X           Y           Z
 ---------------------------------------------------------------------
      1          6           0       -1.890705    0.000111    0.000027
      2          6           0       -0.430481   -0.000316   -0.000083
      3          7           0        0.734626   -0.000053   -0.000003
      4          8           0        1.952544    0.000113    0.000024
      5          1           0       -2.278672   -0.576506    0.846033
      6          1           0       -2.278764   -0.444046   -0.922396
      7          1           0       -2.278187    1.021249    0.076531
 ---------------------------------------------------------------------

 SCF Done:  E(RB3LYP) =  -207.903430073     A.U. after    1 cycles

 The electronic state is 1-A.
 Alpha  occ. eigenvalues --  -19.16544 -14.47295 -10.24669 -10.24331  -1.12977
 Alpha  occ. eigenvalues --   -0.90444  -0.77332  -0.52545  -0.49365  -0.48284
 Alpha  occ. eigenvalues --   -0.48284  -0.43812  -0.43812  -0.24701  -0.24701
 Alpha virt. eigenvalues --    0.03455   0.03455   0.07949   0.15275   0.15950
 Alpha virt. eigenvalues --    0.15951   0.19849   0.28676   0.51977   0.51978
 Alpha virt. eigenvalues --    0.54010   0.60325   0.60326   0.75780   0.76802

 Mulliken charges:
               1
     1  C   -0.356188
     2  C    0.304732
     3  N    0.060262
     4  O   -0.489621
     5  H    0.160270
     6  H    0.160266
     7  H    0.160279
 Sum of Mulliken charges =  -0.00000

 Dipole moment (field-independent basis, Debye):
    X=             -4.2040    Y=              0.0003    Z=              0.0001  Tot=              4.2040
 Quadrupole moment (field-independent basis, Debye-Ang):
   XX=            -24.0837   YY=            -22.2547   ZZ=            -22.2548
   XY=             -0.0006   XZ=             -0.0002   YZ=             -0.0000

  Exact polarizability:  55.958   0.004  18.866   0.001   0.000  18.866
 Approx polarizability: 113.949   0.018  24.818   0.005   0.000  24.818

                      1                      2                      3
                      A                      A                      A
 Frequencies --    139.6037               140.0706               503.1114
 Red. masses --      4.1174                 4.1184                13.6043
 Frc consts  --      0.0473                 0.0476                 2.0289
 IR Inten    --      1.6149                 1.6128                 7.6286

                      4                      5                      6
                      A                      A                      A
 Frequencies --    503.1140               802.7346              1049.9989
 Red. masses --     13.6040                 5.0811                 1.3109
 Frc consts  --      2.0288                 1.9291                 0.8515
 IR Inten    --      7.6283                20.8528                 1.5004

                      7                      8                      9
                      A                      A                      A
 Frequencies --   1050.1006              1407.7138              1443.6861
 Red. masses --      1.3109                 1.9484                 2.4615
 Frc consts  --      0.8517                 2.2749                 3.0227
 IR Inten    --      1.5019               121.3275                52.4037

                     10                     11                     12
                      A                      A                      A
 Frequencies --   1487.7373              1487.9982              2484.3603
 Red. masses --      1.0395                 1.0394                12.7810
 Frc consts  --      1.3555                 1.3560                46.4778
 IR Inten    --      8.2400                 8.2378               362.8457

                     13                     14                     15
                      A                      A                      A
 Frequencies --   3042.7465              3113.1439              3113.2505
 Red. masses --      1.0333                 1.1030                 1.1030
 Frc consts  --      5.6364                 6.2982                 6.2987
 IR Inten    --     18.4634                 5.2300                 5.2276

 - Thermochemistry -
 -------------------
 Temperature   298.150 Kelvin.  Pressure   1.00000 Atm.
 Atom     1 has atomic number  6 and mass  12.00000

 Molecular mass:    57.02146 amu.
 Principal axes and moments of inertia in atomic units:
                           1         2         3
     Eigenvalues --    11.31863 464.71883 464.71898
           X            1.00000  -0.00001  -0.00000
           Y            0.00001   0.99999  -0.00449
           Z            0.00000   0.00449   0.99999
 This molecule is an asymmetric top.
 Rotational symmetry number  1.
 Rotational temperatures (Kelvin)      7.65232     0.18638     0.18638
 Rotational constants (GHZ):         159.44866     3.88351     3.88351
 Zero-point vibrational energy     130209.7 (Joules/Mol)
                                   31.12088 (Kcal/Mol)
 Warning -- explicit consideration of   4 degrees of freedom as
           vibrations may cause significant error
 Vibrational temperatures:    200.86   201.53   723.86   723.87  1154.95
          (Kelvin)           1510.71  1510.86  2025.38  2077.14  2140.52
                             2140.89  3574.44  4377.83  4479.11  4479.27

 Zero-point correction=                           0.049594 (Hartree/Particle)
 Thermal correction to Energy=                    0.054355
 Thermal correction to Enthalpy=                  0.055299
 Thermal correction to Gibbs Free Energy=         0.023090
 Sum of electronic and zero-point Energies=           -207.853836
 Sum of electronic and thermal Energies=              -207.849075
 Sum of electronic and thermal Enthalpies=            -207.848131
 Sum of electronic and thermal Free Energies=         -207.880340

                     E (Thermal)             CV                S
                      KCal/Mol        Cal/Mol-Kelvin    Cal/Mol-Kelvin
 Total                   34.108             13.925             67.790
 Electronic               0.000              0.000              0.000
 Translational            0.889              2.981             38.044
 Rotational               0.889              2.981             22.418
 Vibrational             32.331              7.963              7.328
 Vibration     1          0.615              1.914              2.809
 Vibration     2          0.615              1.913              2.803
 Vibration     3          0.858              1.243              0.650
 Vibration     4          0.858              1.243              0.650

 Optimization completed.
    -- Stationary point found.
 Normal termination of Gaussian 09 at Thu Sep  8 14:45:35 2022.
