 Gaussian 09, Revision E.01,
 Gaussian 09:  ES64L-G09RevE.01 30-Nov-2015

 ----------------------------
 #P OPT Freq B3LYP/6-31G(d,p)
 ----------------------------

 --------
 Frag_980
 --------
 Symbolic Z-matrix:
 Charge =  0 Multiplicity = 1

 SCF Done:  E(RB3LYP) =  -280.562420284     A.U. after   14 cycles
 SCF Done:  E(RB3LYP) =  -280.562480073     A.U. after   11 cycles
 SCF Done:  E(RB3LYP) =  -280.562462154     A.U. after   11 cycles
 SCF Done:  E(RB3LYP) =  -280.562502815     A.U. after    6 cycles
 SCF Done:  E(RB3LYP) =  -280.562506899     A.U. after    8 cycles
 SCF Done:  E(RB3LYP) =  -280.562502288     A.U. after    9 cycles
 SCF Done:  E(RB3LYP) =  -280.562510308     A.U. after    8 cycles
 SCF Done:  E(RB3LYP) =  -280.562511180     A.U. after    8 cycles
 SCF Done:  E(RB3LYP) =  -280.562511324     A.U. after    8 cycles
 Optimization completed.
    -- Stationary point found.
 Normal termination of Gaussian 09 at Thu Sep  8 15:15:27 2022.

 ----------------------------------------------------------------------
 #P Geom=AllCheck Guess=TCheck SCRF=Check GenChk RB3LYP/6-31G(d,p) Freq
 ----------------------------------------------------------------------

 Structure from the checkpoint file:  "B3LYP6-31Gdp.Frag_980.chk"
 --------
 Frag_980
 --------
 Charge =  0 Multiplicity = 1

                         Standard orientation:
 ---------------------------------------------------------------------
 Center     Atomic      Atomic             Coordinates (Angstroms)
 Number     Number       Type             X           Y           Z
 ---------------------------------------------------------------------
      1          7           0        1.764102   -0.410461   -0.077081
      2          6           0        0.468140    0.052540   -0.005835
      3          8           0        0.229163    1.299286    0.004353
      4          7           0       -0.493896   -0.898229    0.009138
      5          7           0       -1.719019   -0.104132    0.001961
      6          1           0        1.897661   -1.373073    0.198227
      7          1           0        2.454084    0.242285    0.262572
      8          1           0       -2.288186   -0.299591    0.826840
      9          1           0       -1.286137    0.904530    0.006365
     10          1           0       -2.277882   -0.293921   -0.831945
 ---------------------------------------------------------------------

 SCF Done:  E(RB3LYP) =  -280.562511324     A.U. after    1 cycles

 The electronic state is 1-A.
 Alpha  occ. eigenvalues --  -19.09005 -14.43885 -14.32501 -14.30223 -10.27107
 Alpha  occ. eigenvalues --   -1.03750  -0.96464  -0.88043  -0.78158  -0.57164
 Alpha  occ. eigenvalues --   -0.56345  -0.54931  -0.50618  -0.44126  -0.40992
 Alpha  occ. eigenvalues --   -0.38388  -0.28073  -0.25175  -0.24693  -0.20595
 Alpha virt. eigenvalues --    0.04314   0.08294   0.10205   0.11379   0.15392
 Alpha virt. eigenvalues --    0.16466   0.17677   0.29964   0.38183   0.41079
 Alpha virt. eigenvalues --    0.55853   0.58711   0.63225   0.65934   0.67615

 Mulliken charges:
               1
     1  N   -0.626968
     2  C    0.689831
     3  O   -0.620389
     4  N   -0.494118
     5  N   -0.422684
     6  H    0.262726
     7  H    0.265954
     8  H    0.307364
     9  H    0.330045
    10  H    0.308239
 Sum of Mulliken charges =   0.00000

 Dipole moment (field-independent basis, Debye):
    X=             -2.8726    Y=             -0.8126    Z=              0.9339  Tot=              3.1280
 Quadrupole moment (field-independent basis, Debye-Ang):
   XX=            -14.3021   YY=            -35.0689   ZZ=            -28.9997
   XY=             -2.0801   XZ=              2.3877   YZ=             -0.4869

  Exact polarizability:  51.059  -0.167  34.393   0.517  -0.020  20.141
 Approx polarizability:  67.768   2.448  58.625  -0.070   0.137  28.156

                      1                      2                      3
                      A                      A                      A
 Frequencies --    240.9646               323.3821               356.9361
 Red. masses --      3.4726                 2.6189                 1.0793
 Frc consts  --      0.1188                 0.1614                 0.0810
 IR Inten    --     44.0357               184.0438                 1.2052

                      4                      5                      6
                      A                      A                      A
 Frequencies --    421.4272               499.5346               527.0212
 Red. masses --      1.1981                 1.8256                 1.6467
 Frc consts  --      0.1254                 0.2684                 0.2695
 IR Inten    --     17.6193               251.0676                71.6827

                      7                      8                      9
                      A                      A                      A
 Frequencies --    711.2406               777.4310               908.3224
 Red. masses --      4.8683                10.5596                 5.9181
 Frc consts  --      1.4510                 3.7603                 2.8768
 IR Inten    --      1.1472                51.9452                12.2189

                     10                     11                     12
                      A                      A                      A
 Frequencies --   1035.1964              1107.1429              1128.1722
 Red. masses --      3.8607                 1.6692                 1.2032
 Frc consts  --      2.4376                 1.2055                 0.9022
 IR Inten    --     35.9464                34.9786                 7.6127

                     13                     14                     15
                      A                      A                      A
 Frequencies --   1158.0737              1207.3799              1481.3678
 Red. masses --      1.6317                 1.2916                 3.5888
 Frc consts  --      1.2893                 1.1094                 4.6401
 IR Inten    --    234.3733               100.4280               198.8783

                     16                     17                     18
                      A                      A                      A
 Frequencies --   1623.5093              1632.8675              1641.5466
 Red. masses --      1.3891                 1.0595                 1.0914
 Frc consts  --      2.1571                 1.6644                 1.7328
 IR Inten    --    174.6720                32.1917                36.4459

                     19                     20                     21
                      A                      A                      A
 Frequencies --   1685.4058              2485.8932              3438.6695
 Red. masses --      3.5306                 1.0760                 1.0495
 Frc consts  --      5.9089                 3.9177                 7.3119
 IR Inten    --    186.4641               371.1699                 7.8050

                     22                     23                     24
                      A                      A                      A
 Frequencies --   3499.6853              3589.3850              3717.0026
 Red. masses --      1.0976                 1.0463                 1.1007
 Frc consts  --      7.9208                 7.9420                 8.9603
 IR Inten    --     16.1061                21.3118                27.5786

 - Thermochemistry -
 -------------------
 Temperature   298.150 Kelvin.  Pressure   1.00000 Atm.
 Atom     1 has atomic number  7 and mass  14.00307

 Molecular mass:    75.04326 amu.
 Principal axes and moments of inertia in atomic units:
                           1         2         3
     Eigenvalues --   161.84104 411.77447 562.41724
           X            0.99964  -0.02547   0.00899
           Y            0.02552   0.99966  -0.00534
           Z           -0.00885   0.00556   0.99995
 This molecule is an asymmetric top.
 Rotational symmetry number  1.
 Rotational temperatures (Kelvin)      0.53518     0.21034     0.15400
 Rotational constants (GHZ):          11.15132     4.38284     3.20890
 Zero-point vibrational energy     210528.1 (Joules/Mol)
                                   50.31743 (Kcal/Mol)
 Warning -- explicit consideration of   6 degrees of freedom as
           vibrations may cause significant error
 Vibrational temperatures:    346.69   465.27   513.55   606.34   718.72
          (Kelvin)            758.27  1023.32  1118.55  1306.87  1489.41
                             1592.93  1623.19  1666.21  1737.15  2131.36
                             2335.86  2349.33  2361.82  2424.92  3576.64
                             4947.47  5035.26  5164.32  5347.93

 Zero-point correction=                           0.080186 (Hartree/Particle)
 Thermal correction to Energy=                    0.085358
 Thermal correction to Enthalpy=                  0.086302
 Thermal correction to Gibbs Free Energy=         0.052408
 Sum of electronic and zero-point Energies=           -280.482325
 Sum of electronic and thermal Energies=              -280.477153
 Sum of electronic and thermal Enthalpies=            -280.476209
 Sum of electronic and thermal Free Energies=         -280.510103

                     E (Thermal)             CV                S
                      KCal/Mol        Cal/Mol-Kelvin    Cal/Mol-Kelvin
 Total                   53.563             18.345             71.337
 Electronic               0.000              0.000              0.000
 Translational            0.889              2.981             38.862
 Rotational               0.889              2.981             25.131
 Vibrational             51.786             12.383              7.344
 Vibration     1          0.658              1.778              1.796
 Vibration     2          0.708              1.629              1.293
 Vibration     3          0.732              1.561              1.135
 Vibration     4          0.784              1.424              0.887
 Vibration     5          0.855              1.251              0.659
 Vibration     6          0.882              1.190              0.594

 Optimization completed.
    -- Stationary point found.
 Normal termination of Gaussian 09 at Thu Sep  8 15:15:35 2022.
