 Gaussian 09, Revision D.01,
 Gaussian 09:  ES64L-G09RevD.01 24-Apr-2013

 -------------------------
 #P OPT Freq B3LYP/6-31G**
 -------------------------

 -------
 Frag_12
 -------
 Symbolic Z-matrix:
 Charge =  0 Multiplicity = 1

 SCF Done:  E(RB3LYP) =  -286.623479883     A.U. after   15 cycles
 Optimization completed.
    -- Stationary point found.
 Normal termination of Gaussian 09 at Fri Jul 23 08:08:59 2021.

 ----------------------------------------------------------------------
 #P Geom=AllCheck Guess=TCheck SCRF=Check GenChk RB3LYP/6-31G(d,p) Freq
 ----------------------------------------------------------------------

 Structure from the checkpoint file:  "/vol2/users/liuj201281/HOFBenchmark/IsodesmicSplit/Sample60/Ring26/Running/Gau-549662.chk"
 -------
 Frag_12
 -------
 Charge =  0 Multiplicity = 1

                         Standard orientation:
 ---------------------------------------------------------------------
 Center     Atomic      Atomic             Coordinates (Angstroms)
 Number     Number       Type             X           Y           Z
 ---------------------------------------------------------------------
      1          6           0       -1.311630    1.336664   -0.004802
      2          6           0       -0.719809    0.137974   -0.000502
      3          6           0       -1.492486   -1.158439    0.004398
      4          6           0        0.791191    0.121501    0.000398
      5          7           0        1.375113   -1.117389    0.005098
      6          8           0        1.466373    1.144113    0.003998
      7          1           0       -0.706846    2.236675   -0.007602
      8          1           0       -2.392432    1.439445   -0.005002
      9          1           0       -2.568590   -0.969358    0.011198
     10          1           0       -1.272076   -1.767135   -0.882202
     11          1           0       -1.258776   -1.767235    0.886998
     12          1           0        0.856228   -1.976998   -0.045702
     13          1           0        2.382114   -1.152771   -0.022302
 ---------------------------------------------------------------------

 SCF Done:  E(RB3LYP) =  -286.623479883     A.U. after    1 cycles

 The electronic state is 1-A.
 Alpha  occ. eigenvalues --  -19.10271 -14.35519 -10.28460 -10.20325 -10.19790
 Alpha  occ. eigenvalues --  -10.18721  -1.02264  -0.89955  -0.80223  -0.69753
 Alpha  occ. eigenvalues --   -0.63265  -0.55741  -0.52133  -0.47702  -0.43595
 Alpha  occ. eigenvalues --   -0.42857  -0.41170  -0.39227  -0.38851  -0.35996
 Alpha  occ. eigenvalues --   -0.26961  -0.25513  -0.24539
 Alpha virt. eigenvalues --   -0.02489   0.07028   0.09382   0.11551   0.12775
 Alpha virt. eigenvalues --    0.15445   0.16768   0.17268   0.18354   0.24021
 Alpha virt. eigenvalues --    0.30008   0.32662   0.35024   0.38578   0.51113

 Mulliken charges:
               1
     1  C   -0.250083
     2  C    0.107496
     3  C   -0.399789
     4  C    0.548624
     5  N   -0.625192
     6  O   -0.518599
     7  H    0.137274
     8  H    0.095237
     9  H    0.120997
    10  H    0.118676
    11  H    0.121239
    12  H    0.266354
    13  H    0.277766
 Sum of Mulliken charges =   0.00000

 Dipole moment (field-independent basis, Debye):
    X=             -1.5050    Y=             -3.4272    Z=             -0.1271  Tot=              3.7453
 Quadrupole moment (field-independent basis, Debye-Ang):
   XX=            -33.8414   YY=            -33.5500   ZZ=            -37.4517
   XY=             -5.9200   XZ=             -0.2041   YZ=              0.2061

  Exact polarizability:  58.832  -6.504  65.220   0.017   0.024  26.797
 Approx polarizability:  79.995 -10.095 104.862   0.121  -0.079  38.575

                      1                      2                      3
                      A                      A                      A
 Frequencies --     47.3102                87.7841               236.5101
 Red. masses --      1.3573                 3.1964                 1.0220
 Frc consts  --      0.0018                 0.0145                 0.0337
 IR Inten    --    137.9038                63.0746                 8.7841

                      4                      5                      6
                      A                      A                      A
 Frequencies --    287.0035               354.1098               393.4621
 Red. masses --      3.1884                 2.5471                 2.6703
 Frc consts  --      0.1547                 0.1882                 0.2436
 IR Inten    --      6.4970                 8.6543                 1.0496

                      7                      8                      9
                      A                      A                      A
 Frequencies --    483.0558               556.5990               581.1315
 Red. masses --      2.9075                 3.8123                 1.1883
 Frc consts  --      0.3997                 0.6959                 0.2364
 IR Inten    --      5.1135                 9.7144                 5.7034

                     10                     11                     12
                      A                      A                      A
 Frequencies --    687.6794               748.4043               827.1389
 Red. masses --      1.3821                 3.1243                 2.2009
 Frc consts  --      0.3851                 1.0310                 0.8872
 IR Inten    --     16.9403                 7.8806                 9.3960

                     13                     14                     15
                      A                      A                      A
 Frequencies --    950.9119               982.9064              1021.9361
 Red. masses --      1.8555                 1.3402                 1.3621
 Frc consts  --      0.9885                 0.7629                 0.8381
 IR Inten    --      3.2090                30.3184                 8.7976

                     16                     17                     18
                      A                      A                      A
 Frequencies --   1074.4235              1087.9724              1250.4312
 Red. masses --      1.4615                 1.8410                 2.7010
 Frc consts  --      0.9940                 1.2839                 2.4882
 IR Inten    --      0.2430                 0.8107                33.9300

                     19                     20                     21
                      A                      A                      A
 Frequencies --   1370.0092              1415.0980              1442.9369
 Red. masses --      3.8000                 1.1911                 1.2633
 Frc consts  --      4.2022                 1.4053                 1.5497
 IR Inten    --    133.4041                 7.3706                23.0737

                     22                     23                     24
                      A                      A                      A
 Frequencies --   1500.3602              1513.9568              1623.8062
 Red. masses --      1.0434                 1.0622                 1.2695
 Frc consts  --      1.3838                 1.4345                 1.9722
 IR Inten    --      7.1126                25.8867               136.9829

                     25                     26                     27
                      A                      A                      A
 Frequencies --   1708.9532              1790.0209              3026.2333
 Red. masses --      5.8693                 8.0710                 1.0396
 Frc consts  --     10.0994                15.2368                 5.6096
 IR Inten    --     53.4524               191.2763                22.8024

                     28                     29                     30
                      A                      A                      A
 Frequencies --   3077.2155              3128.7768              3166.3724
 Red. masses --      1.1005                 1.0984                 1.0605
 Frc consts  --      6.1399                 6.3354                 6.2643
 IR Inten    --     22.0575                15.4113                 9.5498

                     31                     32                     33
                      A                      A                      A
 Frequencies --   3264.8041              3618.1313              3758.3238
 Red. masses --      1.1165                 1.0452                 1.1048
 Frc consts  --      7.0116                 8.0614                 9.1944
 IR Inten    --      1.9958                36.7016                39.6017

 - Thermochemistry -
 -------------------
 Temperature   298.150 Kelvin.  Pressure   1.00000 Atm.
 Atom     1 has atomic number  6 and mass  12.00000

 Molecular mass:    85.05276 amu.
 Principal axes and moments of inertia in atomic units:
                           1         2         3
     Eigenvalues --   347.52809 521.31473 857.55062
           X            0.99894  -0.04611  -0.00067
           Y            0.04611   0.99894   0.00081
           Z            0.00064  -0.00084   1.00000
 This molecule is an asymmetric top.
 Rotational symmetry number  1.
 Rotational temperatures (Kelvin)      0.24923     0.16614     0.10100
 Rotational constants (GHZ):           5.19308     3.46190     2.10453
 Zero-point vibrational energy     281503.8 (Joules/Mol)
                                   67.28103 (Kcal/Mol)
 Warning -- explicit consideration of   9 degrees of freedom as
           vibrations may cause significant error
 Vibrational temperatures:     68.07   126.30   340.28   412.93   509.48
          (Kelvin)            566.10   695.01   800.82   836.12   989.42
                             1076.79  1190.07  1368.15  1414.18  1470.34
                             1545.85  1565.35  1799.09  1971.14  2036.01
                             2076.06  2158.68  2178.24  2336.29  2458.80
                             2575.44  4354.07  4427.42  4501.61  4555.70
                             4697.32  5205.68  5407.38

 Zero-point correction=                           0.107219 (Hartree/Particle)
 Thermal correction to Energy=                    0.114364
 Thermal correction to Enthalpy=                  0.115309
 Thermal correction to Gibbs Free Energy=         0.075918
 Sum of electronic and zero-point Energies=           -286.516261
 Sum of electronic and thermal Energies=              -286.509115
 Sum of electronic and thermal Enthalpies=            -286.508171
 Sum of electronic and thermal Free Energies=         -286.547562

                     E (Thermal)             CV                S
                      KCal/Mol        Cal/Mol-Kelvin    Cal/Mol-Kelvin
 Total                   71.765             24.633             82.905
 Electronic               0.000              0.000              0.000
 Translational            0.889              2.981             39.235
 Rotational               0.889              2.981             26.544
 Vibrational             69.987             18.672             17.126
 Vibration     1          0.595              1.979              4.927
 Vibration     2          0.601              1.958              3.709
 Vibration     3          0.655              1.785              1.829
 Vibration     4          0.684              1.698              1.492
 Vibration     5          0.730              1.567              1.148
 Vibration     6          0.761              1.484              0.987
 Vibration     7          0.839              1.288              0.702
 Vibration     8          0.912              1.125              0.531
 Vibration     9          0.938              1.072              0.483

 Normal termination of Gaussian 09 at Fri Jul 23 08:09:12 2021.
