 Gaussian 09, Revision D.01,
 Gaussian 09:  ES64L-G09RevD.01 24-Apr-2013

 -------------------------
 #P OPT Freq B3LYP/6-31G**
 -------------------------

 -------
 Frag_15
 -------
 Symbolic Z-matrix:
 Charge =  0 Multiplicity = 1

 SCF Done:  E(RB3LYP) =  -193.164213370     A.U. after   13 cycles
 Optimization completed.
    -- Stationary point found.

 1\1\GINC-FN17\FOpt\RB3LYP\6-31G(d,p)\C3H6O1\LIUJ201281\23-Jul-2021\0\\
 #P OPT Freq B3LYP/6-31G**\\Frag_15\\0,1\C,1.2925,-0.6145,0.\C,0.000000
 0011,0.1848,-0.0001\C,-1.2925,-0.6145,0.\O,-0.0000000022,1.4005,0.\H,2
 .1465,0.0638,-0.0005\H,1.34,-1.266,0.8804\H,1.3396,-1.2671,-0.8796\H,-
 1.3396,-1.2672,-0.8796\H,-1.34,-1.2659,0.8804\H,-2.1465,0.0638,-0.0005
 \\Version=ES64L-G09RevD.01\State=1-A\HF=-193.1642134\RMSD=4.568e-09\RM
 SF=4.551e-05\Dipole=0.,-1.1130066,0.0001637\Quadrupole=1.3005226,-2.24
 11968,0.9406742,-0.0000002,-0.0001155,-0.0001842\PG=C01 [X(C3H6O1)]\\@

 Normal termination of Gaussian 09 at Fri Jul 23 02:06:33 2021.

 ----------------------------------------------------------------------
 #P Geom=AllCheck Guess=TCheck SCRF=Check GenChk RB3LYP/6-31G(d,p) Freq
 ----------------------------------------------------------------------

 Structure from the checkpoint file:  "/vol2/users/liuj201281/HOFBenchmark/IsodesmicSplit/Sample60/Ring26/Running/Gau-183879.chk"
 -------
 Frag_15
 -------
 Charge =  0 Multiplicity = 1

                         Standard orientation:
 ---------------------------------------------------------------------
 Center     Atomic      Atomic             Coordinates (Angstroms)
 Number     Number       Type             X           Y           Z
 ---------------------------------------------------------------------
      1          6           0        1.292500   -0.614506    0.000000
      2          6           0        0.000000    0.184794   -0.000100
      3          6           0       -1.292500   -0.614506    0.000000
      4          8           0        0.000000    1.400494    0.000000
      5          1           0        2.146500    0.063794   -0.000500
      6          1           0        1.340000   -1.266006    0.880400
      7          1           0        1.339600   -1.267106   -0.879600
      8          1           0       -1.339600   -1.267206   -0.879600
      9          1           0       -1.340000   -1.265906    0.880400
     10          1           0       -2.146500    0.063794   -0.000500
 ---------------------------------------------------------------------

 SCF Done:  E(RB3LYP) =  -193.164213370     A.U. after    1 cycles

 The electronic state is 1-A.
 Alpha  occ. eigenvalues --  -19.13557 -10.27741 -10.19089 -10.19088  -1.03546
 Alpha  occ. eigenvalues --   -0.76709  -0.70975  -0.53047  -0.45738  -0.45733
 Alpha  occ. eigenvalues --   -0.44733  -0.40299  -0.39256  -0.37788  -0.34652
 Alpha  occ. eigenvalues --   -0.24402
 Alpha virt. eigenvalues --   -0.01091   0.08807   0.13779   0.14849   0.16084
 Alpha virt. eigenvalues --    0.17120   0.18069   0.19767   0.28966   0.32215
 Alpha virt. eigenvalues --    0.48987   0.53367   0.55850   0.56793   0.57321

 Mulliken charges:
               1
     1  C   -0.387023
     2  C    0.421522
     3  C   -0.387023
     4  O   -0.427870
     5  H    0.138607
     6  H    0.125815
     7  H    0.125775
     8  H    0.125764
     9  H    0.125826
    10  H    0.138607
 Sum of Mulliken charges =   0.00000

 Dipole moment (field-independent basis, Debye):
    X=              0.0000    Y=             -2.8290    Z=              0.0004  Tot=              2.8290
 Quadrupole moment (field-independent basis, Debye-Ang):
   XX=            -23.4137   YY=            -28.1774   ZZ=            -23.8977
   XY=              0.0000   XZ=             -0.0002   YZ=             -0.0002

  Exact polarizability:  36.691   0.000  39.014   0.000   0.001  27.223
 Approx polarizability:  43.389   0.000  62.232   0.000   0.001  38.131

                      1                      2                      3
                      A                      A                      A
 Frequencies --     41.5751               135.8966               375.7601
 Red. masses --      1.0173                 1.1267                 2.1759
 Frc consts  --      0.0010                 0.0123                 0.1810
 IR Inten    --      0.0000                 0.1000                 1.3074

                      4                      5                      6
                      A                      A                      A
 Frequencies --    485.5624               530.3895               784.7174
 Red. masses --      2.0029                 3.5252                 3.5959
 Frc consts  --      0.2782                 0.5843                 1.3046
 IR Inten    --      0.3411                14.8240                 0.9230

                      7                      8                      9
                      A                      A                      A
 Frequencies --    887.6438               888.0155              1086.3323
 Red. masses --      1.2368                 1.5197                 1.5659
 Frc consts  --      0.5741                 0.7061                 1.0888
 IR Inten    --      0.6383                 5.7701                 0.0183

                     10                     11                     12
                      A                      A                      A
 Frequencies --   1121.0653              1238.4170              1395.1978
 Red. masses --      1.9607                 2.7065                 1.2320
 Frc consts  --      1.4519                 2.4456                 1.4130
 IR Inten    --      4.0725                76.5076                14.8408

                     13                     14                     15
                      A                      A                      A
 Frequencies --   1399.0880              1473.2924              1479.6727
 Red. masses --      1.4475                 1.0421                 1.0525
 Frc consts  --      1.6694                 1.3327                 1.3577
 IR Inten    --     56.5943                 0.2177                 0.0006

                     16                     17                     18
                      A                      A                      A
 Frequencies --   1482.1253              1501.7482              1822.5078
 Red. masses --      1.0626                 1.0445                 9.8486
 Frc consts  --      1.3753                 1.3879                19.2736
 IR Inten    --     21.4906                18.3796               152.8802

                     19                     20                     21
                      A                      A                      A
 Frequencies --   3040.5269              3047.2937              3100.7084
 Red. masses --      1.0378                 1.0376                 1.0993
 Frc consts  --      5.6527                 5.6769                 6.2271
 IR Inten    --      1.4077                 6.8949                 0.0001

                     22                     23                     24
                      A                      A                      A
 Frequencies --   3107.9099              3165.3379              3166.1761
 Red. masses --      1.0996                 1.1020                 1.1025
 Frc consts  --      6.2576                 6.5052                 6.5115
 IR Inten    --     22.1418                11.0889                 8.5924

 - Thermochemistry -
 -------------------
 Temperature   298.150 Kelvin.  Pressure   1.00000 Atm.
 Atom     1 has atomic number  6 and mass  12.00000

 Molecular mass:    58.04186 amu.
 Principal axes and moments of inertia in atomic units:
                           1         2         3
     Eigenvalues --   178.65757 213.33064 369.69163
           X            1.00000   0.00000   0.00000
           Y            0.00000   1.00000   0.00000
           Z            0.00000   0.00000   1.00000
 This molecule is an asymmetric top.
 Rotational symmetry number  1.
 Rotational temperatures (Kelvin)      0.48480     0.40601     0.23429
 Rotational constants (GHZ):          10.10168     8.45983     4.88175
 Zero-point vibrational energy     219855.4 (Joules/Mol)
                                   52.54671 (Kcal/Mol)
 Warning -- explicit consideration of   5 degrees of freedom as
           vibrations may cause significant error
 Vibrational temperatures:     59.82   195.52   540.63   698.62   763.11
          (Kelvin)           1129.03  1277.12  1277.65  1562.99  1612.96
                             1781.80  2007.38  2012.97  2119.74  2128.92
                             2132.45  2160.68  2622.18  4374.63  4384.37
                             4461.22  4471.58  4554.21  4555.42

 Zero-point correction=                           0.083739 (Hartree/Particle)
 Thermal correction to Energy=                    0.089160
 Thermal correction to Enthalpy=                  0.090104
 Thermal correction to Gibbs Free Energy=         0.055231
 Sum of electronic and zero-point Energies=           -193.080475
 Sum of electronic and thermal Energies=              -193.075053
 Sum of electronic and thermal Enthalpies=            -193.074109
 Sum of electronic and thermal Free Energies=         -193.108983

                     E (Thermal)             CV                S
                      KCal/Mol        Cal/Mol-Kelvin    Cal/Mol-Kelvin
 Total                   55.949             16.846             73.398
 Electronic               0.000              0.000              0.000
 Translational            0.889              2.981             38.096
 Rotational               0.889              2.981             24.159
 Vibrational             54.171             10.885             11.143
 Vibration     1          0.594              1.981              5.183
 Vibration     2          0.614              1.917              2.861
 Vibration     3          0.747              1.522              1.056
 Vibration     4          0.842              1.282              0.695
 Vibration     5          0.885              1.183              0.586

 Optimization completed.
    -- Stationary point found.

 1\1\GINC-FN17\Freq\RB3LYP\6-31G(d,p)\C3H6O1\LIUJ201281\23-Jul-2021\0\\
 #P Geom=AllCheck Guess=TCheck SCRF=Check GenChk RB3LYP/6-31G(d,p) Freq
 \\Frag_15\\0,1\C,1.2925,-0.6145,0.\C,0.0000000009,0.1848,-0.0001\C,-1.
 2925,-0.6145,0.\O,-0.0000000022,1.4005,0.\H,2.1465,0.0638,-0.0005\H,1.
 34,-1.266,0.8804\H,1.3396,-1.2671,-0.8796\H,-1.3396,-1.2672,-0.8796\H,
 -1.34,-1.2659,0.8804\H,-2.1465,0.0638,-0.0005\\Version=ES64L-G09RevD.0
 1\State=1-A\HF=-193.1642134\RMSD=2.418e-09\RMSF=4.550e-05\ZeroPoint=0.
 0837385\Thermal=0.0891601\Dipole=0.,-1.113007,0.0001637\DipoleDeriv=-0

 Normal termination of Gaussian 09 at Fri Jul 23 02:06:43 2021.
