 Gaussian 09, Revision E.01,
 Gaussian 09:  ES64L-G09RevE.01 30-Nov-2015

 -------------------------
 #P OPT Freq B3LYP/6-31G**
 -------------------------

 --------
 Frag_157
 --------
 Symbolic Z-matrix:
 Charge =  0 Multiplicity = 1

 SCF Done:  E(RB3LYP) =  -193.104749809     A.U. after   12 cycles
 SCF Done:  E(RB3LYP) =  -193.112916648     A.U. after   11 cycles
 SCF Done:  E(RB3LYP) =  -193.113171005     A.U. after   10 cycles
 SCF Done:  E(RB3LYP) =  -193.113208060     A.U. after    8 cycles
 SCF Done:  E(RB3LYP) =  -193.113211055     A.U. after    7 cycles
 Optimization completed.
    -- Stationary point found.
 Normal termination of Gaussian 09 at Sat Aug 21 01:36:50 2021.

 ----------------------------------------------------------------------
 #P Geom=AllCheck Guess=TCheck SCRF=Check GenChk RB3LYP/6-31G(d,p) Freq
 ----------------------------------------------------------------------

 Structure from the checkpoint file:  "/public/home/users/caep010/.cache/gau_scr/Gau-207190.chk"
 --------
 Frag_157
 --------
 Charge =  0 Multiplicity = 1

                         Standard orientation:
 ---------------------------------------------------------------------
 Center     Atomic      Atomic             Coordinates (Angstroms)
 Number     Number       Type             X           Y           Z
 ---------------------------------------------------------------------
      1          6           0        0.000004    1.077247   -0.000004
      2          6           0        1.036999   -0.064893    0.000004
      3          8           0       -0.000003   -1.072816   -0.000006
      4          6           0       -1.037000   -0.064887    0.000004
      5          1           0        0.000005    1.710642    0.889688
      6          1           0        0.000005    1.710624   -0.889708
      7          1           0        1.673367   -0.130889    0.891936
      8          1           0        1.673384   -0.130890   -0.891916
      9          1           0       -1.673367   -0.130879    0.891936
     10          1           0       -1.673385   -0.130879   -0.891916
 ---------------------------------------------------------------------

 SCF Done:  E(RB3LYP) =  -193.113211055     A.U. after    1 cycles

 The electronic state is 1-A.
 Alpha  occ. eigenvalues --  -19.13312 -10.23199 -10.23199 -10.19206  -1.03029
 Alpha  occ. eigenvalues --   -0.74119  -0.68694  -0.55968  -0.49568  -0.48248
 Alpha  occ. eigenvalues --   -0.43498  -0.40045  -0.37270  -0.32927  -0.30256
 Alpha  occ. eigenvalues --   -0.24164
 Alpha virt. eigenvalues --    0.08758   0.09788   0.11376   0.12989   0.16863
 Alpha virt. eigenvalues --    0.17530   0.18599   0.23131   0.23995   0.31604
 Alpha virt. eigenvalues --    0.50206   0.51200   0.52015   0.53901   0.58819

 Mulliken charges:
               1
     1  C   -0.282024
     2  C    0.093981
     3  O   -0.514144
     4  C    0.093981
     5  H    0.112290
     6  H    0.112291
     7  H    0.095906
     8  H    0.095906
     9  H    0.095906
    10  H    0.095906
 Sum of Mulliken charges =  -0.00000

 Dipole moment (field-independent basis, Debye):
    X=              0.0000    Y=              1.9715    Z=              0.0000  Tot=              1.9715
 Quadrupole moment (field-independent basis, Debye-Ang):
   XX=            -22.7617   YY=            -27.4340   ZZ=            -24.0957
   XY=             -0.0000   XZ=              0.0000   YZ=             -0.0000

  Exact polarizability:  38.187  -0.000  30.488   0.000   0.000  31.689
 Approx polarizability:  48.208  -0.000  41.943   0.000   0.000  42.913

                      1                      2                      3
                      A                      A                      A
 Frequencies --     63.4346               769.7646               815.4650
 Red. masses --      1.8691                 1.0654                 5.9860
 Frc consts  --      0.0044                 0.3720                 2.3453
 IR Inten    --      2.5999                 0.2418                 3.7131

                      4                      5                      6
                      A                      A                      A
 Frequencies --    843.5375               932.8524               948.1037
 Red. masses --      1.0854                 3.0982                 2.4291
 Frc consts  --      0.4551                 1.5885                 1.2865
 IR Inten    --      0.0000                26.3853                 5.3948

                      7                      8                      9
                      A                      A                      A
 Frequencies --   1047.1055              1053.1288              1151.9996
 Red. masses --     11.2522                 4.5254                 1.4237
 Frc consts  --      7.2689                 2.9572                 1.1132
 IR Inten    --    102.8036                 6.8947                 1.5972

                     10                     11                     12
                      A                      A                      A
 Frequencies --   1167.1556              1199.7344              1239.5320
 Red. masses --      1.0853                 1.3609                 1.1405
 Frc consts  --      0.8711                 1.1541                 1.0325
 IR Inten    --      0.0000                 1.1143                 0.0000

                     13                     14                     15
                      A                      A                      A
 Frequencies --   1269.6683              1317.6494              1392.3577
 Red. masses --      1.5068                 1.2810                 1.4276
 Frc consts  --      1.4311                 1.3104                 1.6306
 IR Inten    --      6.7089                 0.4572                 5.2561

                     16                     17                     18
                      A                      A                      A
 Frequencies --   1506.3780              1531.3546              1562.2600
 Red. masses --      1.1017                 1.0823                 1.1190
 Frc consts  --      1.4730                 1.4954                 1.6092
 IR Inten    --      1.3851                 5.6724                 0.0333

                     19                     20                     21
                      A                      A                      A
 Frequencies --   3017.9478              3029.3677              3062.5924
 Red. masses --      1.0528                 1.0580                 1.1144
 Frc consts  --      5.6497                 5.7208                 6.1583
 IR Inten    --    163.4271                 1.9254                94.7865

                     22                     23                     24
                      A                      A                      A
 Frequencies --   3063.1534              3088.9801              3143.1970
 Red. masses --      1.1106                 1.0597                 1.1099
 Frc consts  --      6.1398                 5.9572                 6.4609
 IR Inten    --      0.0001                27.2674                34.6458

 - Thermochemistry -
 -------------------
 Temperature   298.150 Kelvin.  Pressure   1.00000 Atm.
 Atom     1 has atomic number  6 and mass  12.00000

 Molecular mass:    58.04186 amu.
 Principal axes and moments of inertia in atomic units:
                           1         2         3
     Eigenvalues --   149.62674 153.78347 269.10985
           X            0.00001   1.00000  -0.00000
           Y            1.00000  -0.00001  -0.00000
           Z            0.00000   0.00000   1.00000
 This molecule is an asymmetric top.
 Rotational symmetry number  1.
 Rotational temperatures (Kelvin)      0.57887     0.56322     0.32185
 Rotational constants (GHZ):          12.06162    11.73560     6.70634
 Zero-point vibrational energy     228586.7 (Joules/Mol)
                                   54.63354 (Kcal/Mol)
 Warning -- explicit consideration of   1 degrees of freedom as
           vibrations may cause significant error
 Vibrational temperatures:     91.27  1107.52  1173.27  1213.66  1342.16
          (Kelvin)           1364.11  1506.55  1515.22  1657.47  1679.27
                             1726.15  1783.41  1826.77  1895.80  2003.29
                             2167.34  2203.27  2247.74  4342.15  4358.58
                             4406.38  4407.19  4444.35  4522.35

 Zero-point correction=                           0.087064 (Hartree/Particle)
 Thermal correction to Energy=                    0.091199
 Thermal correction to Enthalpy=                  0.092144
 Thermal correction to Gibbs Free Energy=         0.060282
 Sum of electronic and zero-point Energies=           -193.026147
 Sum of electronic and thermal Energies=              -193.022012
 Sum of electronic and thermal Enthalpies=            -193.021067
 Sum of electronic and thermal Free Energies=         -193.052929

                     E (Thermal)             CV                S
                      KCal/Mol        Cal/Mol-Kelvin    Cal/Mol-Kelvin
 Total                   57.229             12.852             67.059
 Electronic               0.000              0.000              0.000
 Translational            0.889              2.981             38.096
 Rotational               0.889              2.981             23.342
 Vibrational             55.451              6.891              5.621
 Vibration     1          0.597              1.972              4.347

 Optimization completed.
    -- Stationary point found.
 Normal termination of Gaussian 09 at Sat Aug 21 01:36:57 2021.
