 Gaussian 09, Revision D.01,
 Gaussian 09:  ES64L-G09RevD.01 24-Apr-2013

 -------------------------
 #P OPT Freq B3LYP/6-31G**
 -------------------------

 -------
 Frag_59
 -------
 Symbolic Z-matrix:
 Charge =  0 Multiplicity = 1

 SCF Done:  E(RB3LYP) =  -269.575311487     A.U. after   12 cycles
 Optimization completed.
    -- Stationary point found.
 Normal termination of Gaussian 09 at Thu Jul 22 23:33:01 2021.

 ----------------------------------------------------------------------
 #P Geom=AllCheck Guess=TCheck SCRF=Check GenChk RB3LYP/6-31G(d,p) Freq
 ----------------------------------------------------------------------

 Structure from the checkpoint file:  "/vol2/users/liuj201281/HOFBenchmark/IsodesmicSplit/Sample60/Ring26/Running/Gau-305517.chk"
 -------
 Frag_59
 -------
 Charge =  0 Multiplicity = 1

                         Standard orientation:
 ---------------------------------------------------------------------
 Center     Atomic      Atomic             Coordinates (Angstroms)
 Number     Number       Type             X           Y           Z
 ---------------------------------------------------------------------
      1          6           0        0.755694    1.386300    0.122593
      2          6           0        0.475508   -0.038103   -0.329707
      3          8           0        1.590315   -0.837392    0.068493
      4          6           0       -0.806487   -0.604915    0.286593
      5          8           0       -1.910094    0.144675   -0.204007
      6          1           0        1.652090    1.773708   -0.368807
      7          1           0       -0.093712    2.029692   -0.117907
      8          1           0        0.921194    1.409202    1.205193
      9          1           0        0.356308   -0.052304   -1.425007
     10          1           0        1.494423   -1.707493   -0.341007
     11          1           0       -0.893277   -1.671116    0.012793
     12          1           0       -0.722888   -0.551314    1.382993
     13          1           0       -2.704191   -0.148333    0.258993
 ---------------------------------------------------------------------

 SCF Done:  E(RB3LYP) =  -269.575311487     A.U. after    1 cycles

 The electronic state is 1-A.
 Alpha  occ. eigenvalues --  -19.14721 -19.14090 -10.23099 -10.22911 -10.16525
 Alpha  occ. eigenvalues --   -1.02256  -1.00999  -0.75877  -0.67748  -0.57799
 Alpha  occ. eigenvalues --   -0.52907  -0.49277  -0.45987  -0.42910  -0.38089
 Alpha  occ. eigenvalues --   -0.37476  -0.36663  -0.33874  -0.31992  -0.27119
 Alpha  occ. eigenvalues --   -0.26490
 Alpha virt. eigenvalues --    0.06773   0.07523   0.13643   0.14411   0.15320
 Alpha virt. eigenvalues --    0.17586   0.18983   0.20020   0.20648   0.24260
 Alpha virt. eigenvalues --    0.26588   0.27122   0.51371   0.52991   0.56822

 Mulliken charges:
               1
     1  C   -0.311453
     2  C    0.154772
     3  O   -0.543796
     4  C    0.049926
     5  O   -0.538566
     6  H    0.110008
     7  H    0.122634
     8  H    0.106957
     9  H    0.086002
    10  H    0.301672
    11  H    0.063286
    12  H    0.088403
    13  H    0.310155
 Sum of Mulliken charges =   0.00000

 Dipole moment (field-independent basis, Debye):
    X=             -1.4172    Y=             -1.4922    Z=              0.1710  Tot=              2.0650
 Quadrupole moment (field-independent basis, Debye-Ang):
   XX=            -30.8868   YY=            -28.2758   ZZ=            -31.2650
   XY=              1.4011   XZ=             -4.0739   YZ=              1.2534

  Exact polarizability:  43.287   0.031  42.397  -0.555   0.128  36.048
 Approx polarizability:  55.424  -2.140  54.552   0.999  -0.505  50.728

                      1                      2                      3
                      A                      A                      A
 Frequencies --    130.6304               228.0475               230.2754
 Red. masses --      2.8060                 1.2290                 1.0608
 Frc consts  --      0.0282                 0.0377                 0.0331
 IR Inten    --     14.7609                 0.4453               114.8577

                      4                      5                      6
                      A                      A                      A
 Frequencies --    265.6492               308.8734               391.6157
 Red. masses --      2.5806                 1.0765                 2.9968
 Frc consts  --      0.1073                 0.0605                 0.2708
 IR Inten    --      9.0599               117.7897                 5.5305

                      7                      8                      9
                      A                      A                      A
 Frequencies --    441.6097               508.1152               851.4760
 Red. masses --      2.2146                 4.3588                 2.4860
 Frc consts  --      0.2545                 0.6630                 1.0619
 IR Inten    --     13.4842                 2.7098                 6.6960

                     10                     11                     12
                      A                      A                      A
 Frequencies --    937.4863               960.1376              1072.0183
 Red. masses --      1.2322                 1.9065                 1.9412
 Frc consts  --      0.6380                 1.0355                 1.3144
 IR Inten    --      2.1783                 9.4021               110.6691

                     13                     14                     15
                      A                      A                      A
 Frequencies --   1088.3004              1118.2085              1172.8604
 Red. masses --      6.2585                 1.7164                 1.8457
 Frc consts  --      4.3673                 1.2645                 1.4959
 IR Inten    --     73.9740                20.5264                 9.8434

                     16                     17                     18
                      A                      A                      A
 Frequencies --   1248.7356              1250.0399              1294.1226
 Red. masses --      1.2430                 1.1524                 1.2318
 Frc consts  --      1.1419                 1.0610                 1.2155
 IR Inten    --     43.6595                14.7330                49.6136

                     19                     20                     21
                      A                      A                      A
 Frequencies --   1370.0086              1403.2909              1449.6397
 Red. masses --      1.2484                 1.2284                 1.6846
 Frc consts  --      1.3805                 1.4252                 2.0858
 IR Inten    --      6.4722                 2.9618                17.1203

                     22                     23                     24
                      A                      A                      A
 Frequencies --   1464.3526              1503.0334              1511.6456
 Red. masses --      1.4158                 1.0480                 1.0721
 Frc consts  --      1.7888                 1.3949                 1.4433
 IR Inten    --      6.2728                 5.8579                 1.4737

                     25                     26                     27
                      A                      A                      A
 Frequencies --   1534.8931              2959.4899              2990.2978
 Red. masses --      1.0852                 1.0649                 1.0829
 Frc consts  --      1.5063                 5.4951                 5.7051
 IR Inten    --      2.9102                85.7677                17.7707

                     28                     29                     30
                      A                      A                      A
 Frequencies --   3020.2256              3053.8304              3126.9583
 Red. masses --      1.0987                 1.0368                 1.1010
 Frc consts  --      5.9049                 5.6967                 6.3431
 IR Inten    --     88.8418                18.4895                29.8989

                     31                     32                     33
                      A                      A                      A
 Frequencies --   3149.9691              3807.9098              3833.5735
 Red. masses --      1.1027                 1.0663                 1.0668
 Frc consts  --      6.4464                 9.1094                 9.2371
 IR Inten    --     14.4380                 8.8863                18.9317

 - Thermochemistry -
 -------------------
 Temperature   298.150 Kelvin.  Pressure   1.00000 Atm.
 Atom     1 has atomic number  6 and mass  12.00000

 Molecular mass:    76.05243 amu.
 Principal axes and moments of inertia in atomic units:
                           1         2         3
     Eigenvalues --   225.59593 500.05653 661.84770
           X            0.99865   0.04886  -0.01763
           Y           -0.04864   0.99874   0.01271
           Z            0.01823  -0.01183   0.99976
 This molecule is an asymmetric top.
 Rotational symmetry number  1.
 Rotational temperatures (Kelvin)      0.38393     0.17321     0.13087
 Rotational constants (GHZ):           7.99988     3.60907     2.72682
 Zero-point vibrational energy     297136.4 (Joules/Mol)
                                   71.01729 (Kcal/Mol)
 Warning -- explicit consideration of   8 degrees of freedom as
           vibrations may cause significant error
 Vibrational temperatures:    187.95   328.11   331.31   382.21   444.40
          (Kelvin)            563.45   635.38   731.06  1225.08  1348.83
                             1381.42  1542.39  1565.82  1608.85  1687.48
                             1796.65  1798.53  1861.95  1971.13  2019.02
                             2085.71  2106.87  2162.53  2174.92  2208.37
                             4258.04  4302.37  4345.43  4393.78  4498.99
                             4532.10  5478.73  5515.65

 Zero-point correction=                           0.113173 (Hartree/Particle)
 Thermal correction to Energy=                    0.119728
 Thermal correction to Enthalpy=                  0.120672
 Thermal correction to Gibbs Free Energy=         0.083752
 Sum of electronic and zero-point Energies=           -269.462138
 Sum of electronic and thermal Energies=              -269.455584
 Sum of electronic and thermal Enthalpies=            -269.454639
 Sum of electronic and thermal Free Energies=         -269.491560

                     E (Thermal)             CV                S
                      KCal/Mol        Cal/Mol-Kelvin    Cal/Mol-Kelvin
 Total                   75.130             22.606             77.705
 Electronic               0.000              0.000              0.000
 Translational            0.889              2.981             38.902
 Rotational               0.889              2.981             25.815
 Vibrational             73.353             16.644             12.988
 Vibration     1          0.612              1.923              2.937
 Vibration     2          0.651              1.798              1.894
 Vibration     3          0.652              1.795              1.877
 Vibration     4          0.671              1.736              1.624
 Vibration     5          0.698              1.657              1.368
 Vibration     6          0.759              1.488              0.994
 Vibration     7          0.801              1.379              0.822
 Vibration     8          0.863              1.232              0.638

 Optimization completed.
    -- Stationary point found.
 Normal termination of Gaussian 09 at Thu Jul 22 23:33:14 2021.
