 Gaussian 09, Revision E.01,
 Gaussian 09:  ES64L-G09RevE.01 30-Nov-2015

 -------------------------
 #P OPT Freq B3LYP/6-31G**
 -------------------------

 --------
 Frag_221
 --------
 Symbolic Z-matrix:
 Charge =  0 Multiplicity = 1

 SCF Done:  E(RB3LYP) =  -172.074079083     A.U. after   13 cycles
 SCF Done:  E(RB3LYP) =  -172.075517566     A.U. after   11 cycles
 SCF Done:  E(RB3LYP) =  -172.075569225     A.U. after   11 cycles
 SCF Done:  E(RB3LYP) =  -172.075583137     A.U. after    8 cycles
 Optimization completed.
    -- Stationary point found.
 Normal termination of Gaussian 09 at Sat Aug 21 01:33:53 2021.

 ----------------------------------------------------------------------
 #P Geom=AllCheck Guess=TCheck SCRF=Check GenChk RB3LYP/6-31G(d,p) Freq
 ----------------------------------------------------------------------

 Structure from the checkpoint file:  "/public/home/users/caep010/.cache/gau_scr/Gau-227293.chk"
 --------
 Frag_221
 --------
 Charge =  0 Multiplicity = 1

                         Standard orientation:
 ---------------------------------------------------------------------
 Center     Atomic      Atomic             Coordinates (Angstroms)
 Number     Number       Type             X           Y           Z
 ---------------------------------------------------------------------
      1          6           0        1.558779   -0.449331   -0.000006
      2          6           0        0.484170    0.652054   -0.000106
      3          6           0       -0.878962    0.111555    0.000378
      4          7           0       -1.952125   -0.331015   -0.000188
      5          1           0        1.468548   -1.083320    0.885425
      6          1           0        2.553337    0.004495   -0.000057
      7          1           0        1.468571   -1.083557   -0.885272
      8          1           0        0.595223    1.296994    0.878934
      9          1           0        0.595276    1.296825   -0.879306
 ---------------------------------------------------------------------

 SCF Done:  E(RB3LYP) =  -172.075583137     A.U. after    1 cycles

 The electronic state is 1-A.
 Alpha  occ. eigenvalues --  -14.33032 -10.24171 -10.22577 -10.20668  -0.90016
 Alpha  occ. eigenvalues --   -0.80628  -0.67439  -0.51875  -0.48505  -0.42966
 Alpha  occ. eigenvalues --   -0.39995  -0.38976  -0.35343  -0.32234  -0.32114
 Alpha virt. eigenvalues --    0.03307   0.04030   0.08815   0.13125   0.13385
 Alpha virt. eigenvalues --    0.15312   0.18594   0.18726   0.22866   0.31312
 Alpha virt. eigenvalues --    0.51228   0.51517   0.51990   0.56747   0.58666

 Mulliken charges:
               1
     1  C   -0.318595
     2  C   -0.248346
     3  C    0.333700
     4  N   -0.466076
     5  H    0.133313
     6  H    0.120484
     7  H    0.133330
     8  H    0.156074
     9  H    0.156116
 Sum of Mulliken charges =  -0.00000

 Dipole moment (field-independent basis, Debye):
    X=              3.7117    Y=              1.2589    Z=              0.0003  Tot=              3.9194
 Quadrupole moment (field-independent basis, Debye-Ang):
   XX=            -30.5055   YY=            -23.5318   ZZ=            -23.5768
   XY=             -1.3285   XZ=             -0.0012   YZ=             -0.0003

  Exact polarizability:  44.981   4.162  30.038   0.003   0.002  27.073
 Approx polarizability:  67.348  11.962  42.079   0.012   0.006  37.259

                      1                      2                      3
                      A                      A                      A
 Frequencies --    212.1064               223.4194               396.0464
 Red. masses --      4.0380                 1.1610                 2.9150
 Frc consts  --      0.1070                 0.0341                 0.2694
 IR Inten    --      4.1496                 1.0544                 0.3758

                      4                      5                      6
                      A                      A                      A
 Frequencies --    547.7685               790.5831               843.6901
 Red. masses --      4.9214                 1.1953                 2.9475
 Frc consts  --      0.8700                 0.4402                 1.2361
 IR Inten    --      0.9847                 4.0875                 0.1554

                      7                      8                      9
                      A                      A                      A
 Frequencies --   1018.1070              1095.6788              1116.0686
 Red. masses --      2.6921                 1.7214                 1.5002
 Frc consts  --      1.6441                 1.2175                 1.1010
 IR Inten    --      0.3020                 4.3548                 0.2767

                     10                     11                     12
                      A                      A                      A
 Frequencies --   1289.5423              1353.3454              1427.1783
 Red. masses --      1.1460                 1.4580                 1.2091
 Frc consts  --      1.1228                 1.5733                 1.4510
 IR Inten    --      0.0149                 3.7380                 0.7153

                     13                     14                     15
                      A                      A                      A
 Frequencies --   1483.7280              1510.6078              1518.6263
 Red. masses --      1.0762                 1.0382                 1.0521
 Frc consts  --      1.3959                 1.3959                 1.4296
 IR Inten    --      4.0802                 6.2591                 4.7713

                     16                     17                     18
                      A                      A                      A
 Frequencies --   2369.3248              3056.8507              3064.3153
 Red. masses --     12.6053                 1.0591                 1.0349
 Frc consts  --     41.6919                 5.8308                 5.7257
 IR Inten    --      7.5324                 6.0127                18.9600

                     19                     20                     21
                      A                      A                      A
 Frequencies --   3093.8972              3142.3043              3147.1734
 Red. masses --      1.1035                 1.1036                 1.1044
 Frc consts  --      6.2236                 6.4203                 6.4448
 IR Inten    --      2.3272                18.5353                18.0894

 - Thermochemistry -
 -------------------
 Temperature   298.150 Kelvin.  Pressure   1.00000 Atm.
 Atom     1 has atomic number  6 and mass  12.00000

 Molecular mass:    55.04220 amu.
 Principal axes and moments of inertia in atomic units:
                           1         2         3
     Eigenvalues --    64.53717 387.82163 429.94857
           X            0.99985  -0.01728  -0.00000
           Y            0.01728   0.99985  -0.00002
           Z            0.00000   0.00002   1.00000
 This molecule is an asymmetric top.
 Rotational symmetry number  1.
 Rotational temperatures (Kelvin)      1.34208     0.22333     0.20145
 Rotational constants (GHZ):          27.96437     4.65353     4.19757
 Zero-point vibrational energy     195591.6 (Joules/Mol)
                                   46.74751 (Kcal/Mol)
 Warning -- explicit consideration of   4 degrees of freedom as
           vibrations may cause significant error
 Vibrational temperatures:    305.17   321.45   569.82   788.12  1137.47
          (Kelvin)           1213.88  1464.83  1576.44  1605.77  1855.36
                             1947.16  2053.39  2134.75  2173.43  2184.96
                             3408.93  4398.12  4408.86  4451.42  4521.07
                             4528.07

 Zero-point correction=                           0.074497 (Hartree/Particle)
 Thermal correction to Energy=                    0.079174
 Thermal correction to Enthalpy=                  0.080118
 Thermal correction to Gibbs Free Energy=         0.047803
 Sum of electronic and zero-point Energies=           -172.001086
 Sum of electronic and thermal Energies=              -171.996409
 Sum of electronic and thermal Enthalpies=            -171.995465
 Sum of electronic and thermal Free Energies=         -172.027780

                     E (Thermal)             CV                S
                      KCal/Mol        Cal/Mol-Kelvin    Cal/Mol-Kelvin
 Total                   49.682             14.967             68.012
 Electronic               0.000              0.000              0.000
 Translational            0.889              2.981             37.938
 Rotational               0.889              2.981             23.891
 Vibrational             47.905              9.006              6.183
 Vibration     1          0.643              1.822              2.025
 Vibration     2          0.649              1.805              1.931
 Vibration     3          0.763              1.479              0.977
 Vibration     4          0.903              1.145              0.549

 Normal termination of Gaussian 09 at Sat Aug 21 01:34:02 2021.
