 Gaussian 09, Revision E.01,
 Gaussian 09:  ES64L-G09RevE.01 30-Nov-2015

 --------------------------------
 #P OPT=calcfc Freq B3LYP/6-31G**
 --------------------------------

 --------
 Frag_321
 --------
 Symbolic Z-matrix:
 Charge =  0 Multiplicity = 1

 SCF Done:  E(RB3LYP) =  -189.307829176     A.U. after   14 cycles
 SCF Done:  E(RB3LYP) =  -189.318608032     A.U. after   13 cycles
 SCF Done:  E(RB3LYP) =  -189.317655926     A.U. after   13 cycles
 SCF Done:  E(RB3LYP) =  -189.318660706     A.U. after   11 cycles
 SCF Done:  E(RB3LYP) =  -189.319078334     A.U. after   12 cycles
 SCF Done:  E(RB3LYP) =  -189.319119004     A.U. after   11 cycles
 SCF Done:  E(RB3LYP) =  -189.319119371     A.U. after   10 cycles
 SCF Done:  E(RB3LYP) =  -189.319121217     A.U. after    9 cycles
 SCF Done:  E(RB3LYP) =  -189.319121271     A.U. after    7 cycles
 Optimization completed.
    -- Stationary point found.
 Normal termination of Gaussian 09 at Fri Sep 10 20:10:11 2021.

 ----------------------------------------------------------------------
 #P Geom=AllCheck Guess=TCheck SCRF=Check GenChk RB3LYP/6-31G(d,p) Freq
 ----------------------------------------------------------------------

 Structure from the checkpoint file:  "/public/home/users/caep010/.cache/gau_scr/Gau-48538.chk"
 --------
 Frag_321
 --------
 Charge =  0 Multiplicity = 1

                         Standard orientation:
 ---------------------------------------------------------------------
 Center     Atomic      Atomic             Coordinates (Angstroms)
 Number     Number       Type             X           Y           Z
 ---------------------------------------------------------------------
      1          6           0       -1.437714   -0.432779    0.002610
      2          7           0       -0.621907    0.773512   -0.013416
      3          6           0        0.645304    0.622576   -0.003237
      4          7           0        1.371933   -0.551395    0.064322
      5          1           0       -2.494431   -0.157304   -0.041374
      6          1           0       -1.285981   -1.028026    0.916566
      7          1           0       -1.238675   -1.096503   -0.856391
      8          1           0        1.272981    1.516926   -0.002711
      9          1           0        2.344310   -0.512550   -0.200856
     10          1           0        0.906070   -1.416143   -0.167817
 ---------------------------------------------------------------------

 SCF Done:  E(RB3LYP) =  -189.319121271     A.U. after    1 cycles

 The electronic state is 1-A.
 Alpha  occ. eigenvalues --  -14.35313 -14.29419 -10.24421 -10.19603  -0.94058
 Alpha  occ. eigenvalues --   -0.85660  -0.69161  -0.58390  -0.53352  -0.48221
 Alpha  occ. eigenvalues --   -0.42302  -0.42208  -0.37435  -0.34475  -0.23736
 Alpha  occ. eigenvalues --   -0.22958
 Alpha virt. eigenvalues --    0.03830   0.07035   0.10953   0.14910   0.17302
 Alpha virt. eigenvalues --    0.18077   0.19687   0.21385   0.30866   0.36866
 Alpha virt. eigenvalues --    0.54283   0.54895   0.58540   0.60727   0.62090

 Mulliken charges:
               1
     1  C   -0.198941
     2  N   -0.407380
     3  C    0.264578
     4  N   -0.592122
     5  H    0.116104
     6  H    0.102039
     7  H    0.084628
     8  H    0.097203
     9  H    0.265293
    10  H    0.268600
 Sum of Mulliken charges =   0.00000

 Dipole moment (field-independent basis, Debye):
    X=              2.1595    Y=             -2.2171    Z=             -0.7323  Tot=              3.1804
 Quadrupole moment (field-independent basis, Debye-Ang):
   XX=            -20.6775   YY=            -25.0505   ZZ=            -26.5259
   XY=              1.6875   XZ=             -1.5058   YZ=              0.8095

  Exact polarizability:  49.656   0.569  34.179  -0.149   0.249  21.977
 Approx polarizability:  72.214  -4.505  48.183   0.692  -0.094  30.152

                      1                      2                      3
                      A                      A                      A
 Frequencies --    130.7846               285.3293               367.7427
 Red. masses --      1.0682                 2.8018                 1.2335
 Frc consts  --      0.0108                 0.1344                 0.0983
 IR Inten    --      1.0402                 1.6390                10.8545

                      4                      5                      6
                      A                      A                      A
 Frequencies --    414.9912               573.2664               659.6946
 Red. masses --      1.2168                 1.9904                 2.4062
 Frc consts  --      0.1235                 0.3854                 0.6170
 IR Inten    --    261.0920                29.3806                 5.5930

                      7                      8                      9
                      A                      A                      A
 Frequencies --    950.9417               963.6595              1067.4696
 Red. masses --      1.6074                 3.3718                 1.6060
 Frc consts  --      0.8564                 1.8448                 1.0782
 IR Inten    --      5.3480                 8.0691                14.4812

                     10                     11                     12
                      A                      A                      A
 Frequencies --   1123.1327              1181.8011              1252.9453
 Red. masses --      1.3288                 1.5387                 2.6077
 Frc consts  --      0.9876                 1.2661                 2.4120
 IR Inten    --      2.1799                 4.9332                63.1113

                     13                     14                     15
                      A                      A                      A
 Frequencies --   1432.0729              1447.1306              1502.8635
 Red. masses --      1.2301                 1.1736                 1.0533
 Frc consts  --      1.4864                 1.4481                 1.4017
 IR Inten    --      2.2058                23.9887                 0.7527

                     16                     17                     18
                      A                      A                      A
 Frequencies --   1521.2752              1649.2217              1756.8788
 Red. masses --      1.0439                 1.1792                 6.2683
 Frc consts  --      1.4234                 1.8897                11.3994
 IR Inten    --      4.3499                46.1307               267.8148

                     19                     20                     21
                      A                      A                      A
 Frequencies --   2962.9913              3018.0267              3111.4886
 Red. masses --      1.0470                 1.0954                 1.0933
 Frc consts  --      5.4155                 5.8788                 6.2364
 IR Inten    --     60.9139                57.0303                38.8962

                     22                     23                     24
                      A                      A                      A
 Frequencies --   3125.8169              3594.7275              3712.6588
 Red. masses --      1.0896                 1.0463                 1.1014
 Frc consts  --      6.2728                 7.9660                 8.9444
 IR Inten    --     32.4715                18.3548                20.2908

 - Thermochemistry -
 -------------------
 Temperature   298.150 Kelvin.  Pressure   1.00000 Atm.
 Atom     1 has atomic number  6 and mass  12.00000

 Molecular mass:    58.05310 amu.
 Principal axes and moments of inertia in atomic units:
                           1         2         3
     Eigenvalues --    99.65846 288.84351 376.32151
           X            0.99882   0.04789  -0.00774
           Y           -0.04778   0.99877   0.01356
           Z            0.00838  -0.01317   0.99988
 This molecule is an asymmetric top.
 Rotational symmetry number  1.
 Rotational temperatures (Kelvin)      0.86911     0.29986     0.23016
 Rotational constants (GHZ):          18.10926     6.24816     4.79574
 Zero-point vibrational energy     226135.5 (Joules/Mol)
                                   54.04769 (Kcal/Mol)
 Warning -- explicit consideration of   5 degrees of freedom as
           vibrations may cause significant error
 Vibrational temperatures:    188.17   410.52   529.10   597.08   824.80
          (Kelvin)            949.15  1368.19  1386.49  1535.85  1615.94
                             1700.35  1802.71  2060.43  2082.10  2162.28
                             2188.77  2372.86  2527.75  4263.08  4342.26
                             4476.73  4497.35  5172.00  5341.68

 Zero-point correction=                           0.086130 (Hartree/Particle)
 Thermal correction to Energy=                    0.091217
 Thermal correction to Enthalpy=                  0.092162
 Thermal correction to Gibbs Free Energy=         0.059009
 Sum of electronic and zero-point Energies=           -189.232991
 Sum of electronic and thermal Energies=              -189.227904
 Sum of electronic and thermal Enthalpies=            -189.226960
 Sum of electronic and thermal Free Energies=         -189.260112

                     E (Thermal)             CV                S
                      KCal/Mol        Cal/Mol-Kelvin    Cal/Mol-Kelvin
 Total                   57.240             16.774             69.775
 Electronic               0.000              0.000              0.000
 Translational            0.889              2.981             38.097
 Rotational               0.889              2.981             23.897
 Vibrational             55.462             10.813              7.781
 Vibration     1          0.612              1.923              2.934
 Vibration     2          0.683              1.701              1.502
 Vibration     3          0.740              1.539              1.089
 Vibration     4          0.778              1.438              0.909
 Vibration     5          0.930              1.089              0.498

 Optimization completed.
    -- Stationary point found.
 Normal termination of Gaussian 09 at Fri Sep 10 20:10:18 2021.
