 Gaussian 09, Revision E.01,
 Gaussian 09:  ES64L-G09RevE.01 30-Nov-2015

 -------------------------
 #P OPT Freq B3LYP/6-31G**
 -------------------------

 --------
 Frag_179
 --------
 Symbolic Z-matrix:
 Charge =  0 Multiplicity = 1

 SCF Done:  E(RB3LYP) =  -248.447894993     A.U. after   12 cycles
 SCF Done:  E(RB3LYP) =  -248.457153229     A.U. after   11 cycles
 SCF Done:  E(RB3LYP) =  -248.457906710     A.U. after   10 cycles
 SCF Done:  E(RB3LYP) =  -248.458182645     A.U. after   10 cycles
 SCF Done:  E(RB3LYP) =  -248.458259741     A.U. after   10 cycles
 SCF Done:  E(RB3LYP) =  -248.458292867     A.U. after   10 cycles
 SCF Done:  E(RB3LYP) =  -248.458304182     A.U. after    8 cycles
 SCF Done:  E(RB3LYP) =  -248.458305158     A.U. after    7 cycles
 Optimization completed.
    -- Stationary point found.
 Normal termination of Gaussian 09 at Sat Aug 21 01:35:37 2021.

 ----------------------------------------------------------------------
 #P Geom=AllCheck Guess=TCheck SCRF=Check GenChk RB3LYP/6-31G(d,p) Freq
 ----------------------------------------------------------------------

 Structure from the checkpoint file:  "/public/home/users/caep010/.cache/gau_scr/Gau-125711.chk"
 --------
 Frag_179
 --------
 Charge =  0 Multiplicity = 1

                         Standard orientation:
 ---------------------------------------------------------------------
 Center     Atomic      Atomic             Coordinates (Angstroms)
 Number     Number       Type             X           Y           Z
 ---------------------------------------------------------------------
      1          8           0       -2.036612    0.307303    0.062329
      2          6           0       -0.935767   -0.545983   -0.214874
      3          6           0        0.327160   -0.115441    0.498048
      4          6           0        1.263137    0.829317   -0.171626
      5          7           0        1.642039   -0.580203    0.031715
      6          1           0       -1.772911    1.204005   -0.185425
      7          1           0       -1.243158   -1.542364    0.120272
      8          1           0       -0.731491   -0.613954   -1.298828
      9          1           0        0.236040   -0.070200    1.582301
     10          1           0        1.830694    1.546934    0.415329
     11          1           0        1.016378    1.164422   -1.178945
     12          1           0        1.535887   -1.093201   -0.844634
 ---------------------------------------------------------------------

 SCF Done:  E(RB3LYP) =  -248.458305158     A.U. after    1 cycles

 The electronic state is 1-A.
 Alpha  occ. eigenvalues --  -19.14946 -14.33471 -10.24018 -10.22019 -10.21926
 Alpha  occ. eigenvalues --   -1.02267  -0.95931  -0.71530  -0.65597  -0.59767
 Alpha  occ. eigenvalues --   -0.53146  -0.49441  -0.46127  -0.43041  -0.39460
 Alpha  occ. eigenvalues --   -0.36013  -0.33903  -0.32175  -0.27975  -0.24812
 Alpha virt. eigenvalues --    0.06779   0.07700   0.11653   0.11989   0.14311
 Alpha virt. eigenvalues --    0.15182   0.17354   0.18591   0.22276   0.22905
 Alpha virt. eigenvalues --    0.27154   0.30923   0.48260   0.52540   0.54342

 Mulliken charges:
               1
     1  O   -0.528896
     2  C    0.056168
     3  C   -0.003854
     4  C   -0.126224
     5  N   -0.470698
     6  H    0.302578
     7  H    0.116801
     8  H    0.065971
     9  H    0.118012
    10  H    0.122346
    11  H    0.101980
    12  H    0.245816
 Sum of Mulliken charges =   0.00000

 Dipole moment (field-independent basis, Debye):
    X=              0.1479    Y=              1.0378    Z=             -1.5095  Tot=              1.8378
 Quadrupole moment (field-independent basis, Debye-Ang):
   XX=            -39.6039   YY=            -27.4384   ZZ=            -29.2936
   XY=              0.9210   XZ=             -0.9887   YZ=              0.7059

  Exact polarizability:  43.483   2.285  41.849  -1.794  -0.132  37.121
 Approx polarizability:  58.399   0.961  59.481  -3.974  -0.950  52.668

                      1                      2                      3
                      A                      A                      A
 Frequencies --    121.1015               247.1775               345.7625
 Red. masses --      3.0700                 2.5291                 1.4961
 Frc consts  --      0.0265                 0.0910                 0.1054
 IR Inten    --      4.5601                 5.2331                87.9693

                      4                      5                      6
                      A                      A                      A
 Frequencies --    401.8907               475.9561               804.6399
 Red. masses --      1.5596                 4.1287                 2.9573
 Frc consts  --      0.1484                 0.5511                 1.1281
 IR Inten    --     43.6791                 2.5586                55.4458

                      7                      8                      9
                      A                      A                      A
 Frequencies --    870.3922               910.5606               956.3134
 Red. masses --      2.2448                 1.5679                 2.6797
 Frc consts  --      1.0020                 0.7659                 1.4439
 IR Inten    --      9.8768                 7.6800                 9.4108

                     10                     11                     12
                      A                      A                      A
 Frequencies --    966.2405              1059.6926              1079.4752
 Red. masses --      1.1424                 1.4182                 4.1327
 Frc consts  --      0.6284                 0.9383                 2.8373
 IR Inten    --     12.8082                68.3536                76.9118

                     13                     14                     15
                      A                      A                      A
 Frequencies --   1122.0756              1165.2398              1197.3244
 Red. masses --      1.3279                 1.2000                 1.2138
 Frc consts  --      0.9851                 0.9600                 1.0252
 IR Inten    --     15.6946                 3.7249                 3.8014

                     16                     17                     18
                      A                      A                      A
 Frequencies --   1228.0654              1274.7409              1296.2545
 Red. masses --      1.5911                 1.3207                 1.6572
 Frc consts  --      1.4138                 1.2644                 1.6407
 IR Inten    --     27.2171                 4.6757                10.6480

                     19                     20                     21
                      A                      A                      A
 Frequencies --   1365.7140              1412.4400              1445.1475
 Red. masses --      1.3001                 1.2879                 1.5821
 Frc consts  --      1.4288                 1.5138                 1.9467
 IR Inten    --      1.0981                41.6411                25.7198

                     22                     23                     24
                      A                      A                      A
 Frequencies --   1516.0731              1529.6147              2954.2958
 Red. masses --      1.1308                 1.1913                 1.0729
 Frc consts  --      1.5314                 1.6423                 5.5172
 IR Inten    --      0.3609                 1.6189                66.5775

                     25                     26                     27
                      A                      A                      A
 Frequencies --   3085.5818              3105.5956              3146.3470
 Red. masses --      1.0900                 1.0541                 1.0903
 Frc consts  --      6.1142                 5.9898                 6.3595
 IR Inten    --     31.1197                22.0909                20.1202

                     28                     29                     30
                      A                      A                      A
 Frequencies --   3196.8316              3475.7895              3802.8108
 Red. masses --      1.1171                 1.0761                 1.0661
 Frc consts  --      6.7265                 7.6594                 9.0835
 IR Inten    --     21.0695                 0.5799                 9.8017

 - Thermochemistry -
 -------------------
 Temperature   298.150 Kelvin.  Pressure   1.00000 Atm.
 Atom     1 has atomic number  8 and mass  15.99491

 Molecular mass:    73.05276 amu.
 Principal axes and moments of inertia in atomic units:
                           1         2         3
     Eigenvalues --   135.27975 563.11354 623.48580
           X            0.99977   0.02124  -0.00131
           Y           -0.02120   0.99942   0.02669
           Z            0.00188  -0.02666   0.99964
 This molecule is an asymmetric top.
 Rotational symmetry number  1.
 Rotational temperatures (Kelvin)      0.64026     0.15381     0.13892
 Rotational constants (GHZ):          13.34081     3.20493     2.89460
 Zero-point vibrational energy     272504.2 (Joules/Mol)
                                   65.13007 (Kcal/Mol)
 Warning -- explicit consideration of   5 degrees of freedom as
           vibrations may cause significant error
 Vibrational temperatures:    174.24   355.63   497.47   578.23   684.79
          (Kelvin)           1157.70  1252.30  1310.09  1375.92  1390.20
                             1524.66  1553.12  1614.41  1676.52  1722.68
                             1766.91  1834.07  1865.02  1964.96  2032.18
                             2079.24  2181.29  2200.77  4250.57  4439.46
                             4468.25  4526.89  4599.52  5000.88  5471.39

 Zero-point correction=                           0.103791 (Hartree/Particle)
 Thermal correction to Energy=                    0.109185
 Thermal correction to Enthalpy=                  0.110129
 Thermal correction to Gibbs Free Energy=         0.075438
 Sum of electronic and zero-point Energies=           -248.354514
 Sum of electronic and thermal Energies=              -248.349120
 Sum of electronic and thermal Enthalpies=            -248.348176
 Sum of electronic and thermal Free Energies=         -248.382867

                     E (Thermal)             CV                S
                      KCal/Mol        Cal/Mol-Kelvin    Cal/Mol-Kelvin
 Total                   68.515             18.787             73.014
 Electronic               0.000              0.000              0.000
 Translational            0.889              2.981             38.782
 Rotational               0.889              2.981             25.366
 Vibrational             66.737             12.826              8.865
 Vibration     1          0.609              1.932              3.083
 Vibration     2          0.661              1.767              1.751
 Vibration     3          0.724              1.584              1.185
 Vibration     4          0.768              1.466              0.956
 Vibration     5          0.833              1.303              0.721

 Optimization completed.
    -- Stationary point found.
 Normal termination of Gaussian 09 at Sat Aug 21 01:35:45 2021.
