 Gaussian 09, Revision E.01,
 Gaussian 09:  ES64L-G09RevE.01 30-Nov-2015

 ----------------------------
 #P OPT Freq B3LYP/6-31G(d,p)
 ----------------------------

 --------
 Frag_470
 --------
 Symbolic Z-matrix:
 Charge =  0 Multiplicity = 1

 SCF Done:  E(RB3LYP) =  -289.017436627     A.U. after   12 cycles
 SCF Done:  E(RB3LYP) =  -289.017479001     A.U. after   10 cycles
 SCF Done:  E(RB3LYP) =  -289.017486793     A.U. after    8 cycles
 SCF Done:  E(RB3LYP) =  -289.017489196     A.U. after    7 cycles
 SCF Done:  E(RB3LYP) =  -289.017490213     A.U. after    7 cycles
 SCF Done:  E(RB3LYP) =  -289.017490619     A.U. after    7 cycles
 SCF Done:  E(RB3LYP) =  -289.017490861     A.U. after    7 cycles
 SCF Done:  E(RB3LYP) =  -289.017491030     A.U. after    7 cycles
 SCF Done:  E(RB3LYP) =  -289.017491115     A.U. after    7 cycles
 Optimization completed.
    -- Stationary point found.
 Normal termination of Gaussian 09 at Thu Sep  8 14:55:12 2022.

 ----------------------------------------------------------------------
 #P Geom=AllCheck Guess=TCheck SCRF=Check GenChk RB3LYP/6-31G(d,p) Freq
 ----------------------------------------------------------------------

 Structure from the checkpoint file:  "B3LYP6-31Gdp.Frag_470.chk"
 --------
 Frag_470
 --------
 Charge =  0 Multiplicity = 1

                         Standard orientation:
 ---------------------------------------------------------------------
 Center     Atomic      Atomic             Coordinates (Angstroms)
 Number     Number       Type             X           Y           Z
 ---------------------------------------------------------------------
      1          6           0       -1.594580    1.069543   -0.037871
      2          6           0       -0.666010   -0.098088    0.298018
      3          8           0       -1.212892   -1.309297   -0.223606
      4          7           0        0.652832    0.035544   -0.298688
      5          6           0        1.303734    1.307161   -0.009569
      6          6           0        1.521765   -1.084241    0.057680
      7          1           0       -1.298956    2.000986    0.452392
      8          1           0       -1.619150    1.219923   -1.120707
      9          1           0       -2.606635    0.826831    0.300362
     10          1           0       -0.587190   -0.187455    1.406559
     11          1           0       -1.886987   -1.611128    0.397981
     12          1           0        0.740228    2.142955   -0.428669
     13          1           0        2.291658    1.309852   -0.478932
     14          1           0        1.449371    1.493687    1.072970
     15          1           0        1.776470   -1.104259    1.135788
     16          1           0        1.029739   -2.021412   -0.199503
     17          1           0        2.455307   -1.010669   -0.508129
 ---------------------------------------------------------------------

 SCF Done:  E(RB3LYP) =  -289.017491115     A.U. after    1 cycles

 The electronic state is 1-A.
 Alpha  occ. eigenvalues --  -19.14059 -14.32075 -10.25879 -10.20010 -10.19044
 Alpha  occ. eigenvalues --  -10.17372  -1.02201  -0.90642  -0.74022  -0.69679
 Alpha  occ. eigenvalues --   -0.64942  -0.56595  -0.51966  -0.47883  -0.45634
 Alpha  occ. eigenvalues --   -0.42798  -0.40333  -0.39238  -0.38725  -0.37386
 Alpha  occ. eigenvalues --   -0.36091  -0.35298  -0.33293  -0.26741  -0.21049
 Alpha virt. eigenvalues --    0.07154   0.10254   0.12811   0.14209   0.15192
 Alpha virt. eigenvalues --    0.16255   0.17060   0.17484   0.18686   0.19105
 Alpha virt. eigenvalues --    0.19872   0.20878   0.24207   0.24660   0.26608

 Mulliken charges:
               1
     1  C   -0.331339
     2  C    0.329109
     3  O   -0.541439
     4  N   -0.400424
     5  C   -0.162093
     6  C   -0.163900
     7  H    0.101779
     8  H    0.128520
     9  H    0.093449
    10  H    0.042572
    11  H    0.301748
    12  H    0.112971
    13  H    0.107804
    14  H    0.076071
    15  H    0.068785
    16  H    0.134745
    17  H    0.101642
 Sum of Mulliken charges =  -0.00000

 Dipole moment (field-independent basis, Debye):
    X=             -0.4220    Y=              0.5840    Z=              1.7504  Tot=              1.8929
 Quadrupole moment (field-independent basis, Debye-Ang):
   XX=            -34.9151   YY=            -37.7942   ZZ=            -40.5520
   XY=              1.1140   XZ=             -2.4344   YZ=             -2.2021

  Exact polarizability:  62.090   0.575  57.339  -1.574  -0.674  48.004
 Approx polarizability:  77.005   2.833  75.213  -2.549   0.417  71.560

                      1                      2                      3
                      A                      A                      A
 Frequencies --     84.8358               204.3975               226.5932
 Red. masses --      2.8703                 1.0714                 1.1177
 Frc consts  --      0.0122                 0.0264                 0.0338
 IR Inten    --      0.1756                95.9242                 0.9214

                      4                      5                      6
                      A                      A                      A
 Frequencies --    233.9564               248.7160               311.8932
 Red. masses --      1.2085                 1.2670                 2.2902
 Frc consts  --      0.0390                 0.0462                 0.1313
 IR Inten    --      1.8952                 1.8036                 6.5808

                      7                      8                      9
                      A                      A                      A
 Frequencies --    334.5480               417.6837               447.6049
 Red. masses --      1.9389                 2.2604                 2.2495
 Frc consts  --      0.1279                 0.2323                 0.2655
 IR Inten    --      2.0631                 2.0256                 1.0033

                     10                     11                     12
                      A                      A                      A
 Frequencies --    493.2731               551.5934               789.4845
 Red. masses --      3.1734                 3.0136                 2.4646
 Frc consts  --      0.4549                 0.5402                 0.9051
 IR Inten    --      4.2664                11.0166                15.3615

                     13                     14                     15
                      A                      A                      A
 Frequencies --    915.2743               997.6011              1058.0279
 Red. masses --      2.4283                 2.0061                 1.5800
 Frc consts  --      1.1986                 1.1763                 1.0421
 IR Inten    --     15.7485                47.6754                27.0195

                     16                     17                     18
                      A                      A                      A
 Frequencies --   1072.0086              1101.0463              1133.9665
 Red. masses --      1.4309                 2.3195                 1.5012
 Frc consts  --      0.9689                 1.6568                 1.1374
 IR Inten    --     19.9219                27.5048                 1.4785

                     19                     20                     21
                      A                      A                      A
 Frequencies --   1147.6195              1177.3233              1250.7008
 Red. masses --      2.1518                 1.3342                 1.7416
 Frc consts  --      1.6698                 1.0896                 1.6051
 IR Inten    --     48.2302                20.8893                23.2812

                     22                     23                     24
                      A                      A                      A
 Frequencies --   1270.1904              1331.6007              1392.8652
 Red. masses --      2.1555                 1.9395                 1.3148
 Frc consts  --      2.0490                 2.0263                 1.5029
 IR Inten    --    105.5626                13.5798                21.0678

                     25                     26                     27
                      A                      A                      A
 Frequencies --   1415.4332              1424.9961              1450.0457
 Red. masses --      1.3191                 1.3634                 1.1684
 Frc consts  --      1.5570                 1.6312                 1.4475
 IR Inten    --     35.2251                28.2308                 5.8078

                     28                     29                     30
                      A                      A                      A
 Frequencies --   1482.8362              1498.5763              1502.9504
 Red. masses --      1.1641                 1.0466                 1.0496
 Frc consts  --      1.5081                 1.3848                 1.3969
 IR Inten    --      8.1509                 9.7915                 9.3814

                     31                     32                     33
                      A                      A                      A
 Frequencies --   1514.2828              1518.7439              1522.8247
 Red. masses --      1.0562                 1.0813                 1.0625
 Frc consts  --      1.4269                 1.4695                 1.4518
 IR Inten    --      0.6282                 8.3229                 1.1014

                     34                     35                     36
                      A                      A                      A
 Frequencies --   1533.3026              2833.2636              2919.6946
 Red. masses --      1.0610                 1.0805                 1.0621
 Frc consts  --      1.4697                 5.1102                 5.3346
 IR Inten    --     12.3964               100.5192                41.2181

                     37                     38                     39
                      A                      A                      A
 Frequencies --   2930.9281              3054.7126              3087.5132
 Red. masses --      1.0631                 1.0355                 1.0747
 Frc consts  --      5.3806                 5.6933                 6.0361
 IR Inten    --    154.1643                13.7472                10.9859

                     40                     41                     42
                      A                      A                      A
 Frequencies --   3091.1944              3124.1693              3138.4197
 Red. masses --      1.0727                 1.1021                 1.1016
 Frc consts  --      6.0393                 6.3381                 6.3927
 IR Inten    --     57.1653                33.9528                22.5839

                     43                     44                     45
                      A                      A                      A
 Frequencies --   3145.1987              3168.6422              3831.2020
 Red. masses --      1.1024                 1.0974                 1.0663
 Frc consts  --      6.4249                 6.4917                 9.2214
 IR Inten    --     23.1641                10.4471                16.0546

 - Thermochemistry -
 -------------------
 Temperature   298.150 Kelvin.  Pressure   1.00000 Atm.
 Atom     1 has atomic number  6 and mass  12.00000

 Molecular mass:    89.08406 amu.
 Principal axes and moments of inertia in atomic units:
                           1         2         3
     Eigenvalues --   390.82226 561.10513 880.49989
           X            0.99764  -0.06861  -0.00245
           Y            0.06856   0.99754  -0.01461
           Z            0.00345   0.01441   0.99989
 This molecule is an asymmetric top.
 Rotational symmetry number  1.
 Rotational temperatures (Kelvin)      0.22162     0.15436     0.09837
 Rotational constants (GHZ):           4.61781     3.21640     2.04968
 Zero-point vibrational energy     403032.3 (Joules/Mol)
                                   96.32702 (Kcal/Mol)
 Warning -- explicit consideration of  11 degrees of freedom as
           vibrations may cause significant error
 Vibrational temperatures:    122.06   294.08   326.02   336.61   357.85
          (Kelvin)            448.74   481.34   600.95   644.00   709.71
                              793.62  1135.89  1316.87  1435.32  1522.26
                             1542.38  1584.16  1631.52  1651.17  1693.90
                             1799.48  1827.52  1915.87  2004.02  2036.49
                             2050.25  2086.29  2133.47  2156.11  2162.41
                             2178.71  2185.13  2191.00  2206.08  4076.43
                             4200.78  4216.95  4395.04  4442.24  4447.53
                             4494.98  4515.48  4525.23  4558.96  5512.24

 Zero-point correction=                           0.153507 (Hartree/Particle)
 Thermal correction to Energy=                    0.161345
 Thermal correction to Enthalpy=                  0.162289
 Thermal correction to Gibbs Free Energy=         0.122360
 Sum of electronic and zero-point Energies=           -288.863984
 Sum of electronic and thermal Energies=              -288.856146
 Sum of electronic and thermal Enthalpies=            -288.855202
 Sum of electronic and thermal Free Energies=         -288.895131

                     E (Thermal)             CV                S
                      KCal/Mol        Cal/Mol-Kelvin    Cal/Mol-Kelvin
 Total                  101.245             28.083             84.037
 Electronic               0.000              0.000              0.000
 Translational            0.889              2.981             39.374
 Rotational               0.889              2.981             26.760
 Vibrational             99.468             22.121             17.904
 Vibration     1          0.601              1.960              3.776
 Vibration     2          0.640              1.834              2.093
 Vibration     3          0.650              1.801              1.906
 Vibration     4          0.654              1.789              1.848
 Vibration     5          0.662              1.765              1.740
 Vibration     6          0.700              1.651              1.352
 Vibration     7          0.716              1.607              1.238
 Vibration     8          0.781              1.432              0.900
 Vibration     9          0.807              1.366              0.803
 Vibration    10          0.849              1.265              0.675
 Vibration    11          0.907              1.136              0.541

 Optimization completed.
    -- Stationary point found.
 Normal termination of Gaussian 09 at Thu Sep  8 14:55:26 2022.
