 Gaussian 09, Revision D.01,
 Gaussian 09:  ES64L-G09RevD.01 24-Apr-2013

 -------------------------
 #P OPT Freq B3LYP/6-31G**
 -------------------------

 -------
 Frag_69
 -------
 Symbolic Z-matrix:
 Charge =  0 Multiplicity = 1

 SCF Done:  E(RB3LYP) =  -307.724309884     A.U. after   14 cycles
 Optimization completed.
    -- Stationary point found.
 Normal termination of Gaussian 09 at Thu Jul 22 17:52:50 2021.

 ----------------------------------------------------------------------
 #P Geom=AllCheck Guess=TCheck SCRF=Check GenChk RB3LYP/6-31G(d,p) Freq
 ----------------------------------------------------------------------

 Structure from the checkpoint file:  "/vol2/users/liuj201281/HOFBenchmark/IsodesmicSplit/Sample60/Ring26/Running/Gau-308075.chk"
 -------
 Frag_69
 -------
 Charge =  0 Multiplicity = 1

                         Standard orientation:
 ---------------------------------------------------------------------
 Center     Atomic      Atomic             Coordinates (Angstroms)
 Number     Number       Type             X           Y           Z
 ---------------------------------------------------------------------
      1          6           0       -1.327433   -1.272981    0.052998
      2          6           0       -0.642615    0.000009   -0.475702
      3          6           0       -1.327396    1.273019    0.053098
      4          6           0        0.838085   -0.000012   -0.135302
      5          8           0        1.748585    0.000075   -0.934302
      6          8           0        1.057085   -0.000115    1.206298
      7          1           0       -1.289834   -1.311181    1.145298
      8          1           0       -0.849746   -2.176588   -0.338002
      9          1           0       -2.377733   -1.286965   -0.254802
     10          1           0       -0.677715    0.000110   -1.569402
     11          1           0       -1.289795    1.311119    1.145398
     12          1           0       -0.849583    2.176712   -0.337802
     13          1           0       -2.377596    1.287035   -0.254702
     14          1           0        2.022785   -0.000129    1.317498
 ---------------------------------------------------------------------

 SCF Done:  E(RB3LYP) =  -307.724309884     A.U. after    1 cycles

 The electronic state is 1-A.
 Alpha  occ. eigenvalues --  -19.19429 -19.13611 -10.31529 -10.20710 -10.18590
 Alpha  occ. eigenvalues --  -10.18589  -1.10192  -1.01056  -0.80844  -0.69322
 Alpha  occ. eigenvalues --   -0.65472  -0.58465  -0.48286  -0.47539  -0.45253
 Alpha  occ. eigenvalues --   -0.44674  -0.41600  -0.40084  -0.38594  -0.36703
 Alpha  occ. eigenvalues --   -0.34876  -0.34556  -0.31557  -0.26782
 Alpha virt. eigenvalues --    0.01139   0.07055   0.10557   0.14054   0.14325
 Alpha virt. eigenvalues --    0.15253   0.17581   0.18543   0.19311   0.19377
 Alpha virt. eigenvalues --    0.22654   0.25692   0.31878   0.35830   0.49079

 Mulliken charges:
               1
     1  C   -0.319530
     2  C   -0.118021
     3  C   -0.319530
     4  C    0.567525
     5  O   -0.466902
     6  O   -0.483838
     7  H    0.125023
     8  H    0.114292
     9  H    0.109255
    10  H    0.122242
    11  H    0.125020
    12  H    0.114276
    13  H    0.109274
    14  H    0.320914
 Sum of Mulliken charges =   0.00000

 Dipole moment (field-independent basis, Debye):
    X=             -1.1884    Y=             -0.0002    Z=              1.2324  Tot=              1.7120
 Quadrupole moment (field-independent basis, Debye-Ang):
   XX=            -35.7178   YY=            -35.6619   ZZ=            -38.1582
   XY=             -0.0005   XZ=              5.5813   YZ=              0.0002

  Exact polarizability:  53.670   0.001  42.830  -0.354  -0.001  46.897
 Approx polarizability:  71.661   0.001  54.974  -5.460  -0.002  73.274

                      1                      2                      3
                      A                      A                      A
 Frequencies --     33.8185               209.2872               235.4484
 Red. masses --      5.0913                 1.2847                 1.2254
 Frc consts  --      0.0034                 0.0332                 0.0400
 IR Inten    --      0.5105                 0.0230                 0.1080

                      4                      5                      6
                      A                      A                      A
 Frequencies --    239.0098               276.1154               331.8783
 Red. masses --      1.8991                 2.2916                 2.6334
 Frc consts  --      0.0639                 0.1029                 0.1709
 IR Inten    --      0.0047                 0.7140                 1.2821

                      7                      8                      9
                      A                      A                      A
 Frequencies --    521.2679               588.2864               618.7943
 Red. masses --      4.0929                 2.8888                 1.1943
 Frc consts  --      0.6552                 0.5890                 0.2694
 IR Inten    --      8.8784                31.4917                87.5104

                     10                     11                     12
                      A                      A                      A
 Frequencies --    779.1023               781.3505               913.2518
 Red. masses --      2.9191                 4.4698                 2.3545
 Frc consts  --      1.0440                 1.6078                 1.1570
 IR Inten    --     12.7917                30.5260                 4.1316

                     13                     14                     15
                      A                      A                      A
 Frequencies --    944.6480               976.6152              1062.8957
 Red. masses --      1.1628                 1.5294                 1.7728
 Frc consts  --      0.6113                 0.8595                 1.1800
 IR Inten    --      3.0112                 0.0138               132.3369

                     16                     17                     18
                      A                      A                      A
 Frequencies --   1123.6599              1196.2507              1217.6616
 Red. masses --      2.4228                 1.7948                 1.7840
 Frc consts  --      1.8023                 1.5132                 1.5585
 IR Inten    --      0.1058                 2.0146               120.0455

                     19                     20                     21
                      A                      A                      A
 Frequencies --   1350.4000              1355.6432              1365.7121
 Red. masses --      1.3998                 1.3213                 2.5954
 Frc consts  --      1.5040                 1.4307                 2.8521
 IR Inten    --     10.6331                 1.1950                33.9646

                     22                     23                     24
                      A                      A                      A
 Frequencies --   1410.4095              1436.8388              1502.5253
 Red. masses --      1.2227                 1.2686                 1.0429
 Frc consts  --      1.4330                 1.5431                 1.3873
 IR Inten    --      1.9203                 5.2725                 1.8712

                     25                     26                     27
                      A                      A                      A
 Frequencies --   1505.7940              1515.7199              1528.5774
 Red. masses --      1.0459                 1.0449                 1.0642
 Frc consts  --      1.3973                 1.4144                 1.4650
 IR Inten    --      0.5619                 6.8621                15.6080

                     28                     29                     30
                      A                      A                      A
 Frequencies --   1844.0437              3048.3131              3051.3081
 Red. masses --      9.6281                 1.0345                 1.0353
 Frc consts  --     19.2900                 5.6640                 5.6793
 IR Inten    --    281.8583                27.0224                13.6495

                     31                     32                     33
                      A                      A                      A
 Frequencies --   3084.9867              3119.6744              3121.7221
 Red. masses --      1.0864                 1.1032                 1.1027
 Frc consts  --      6.0918                 6.3262                 6.3315
 IR Inten    --      4.8687                13.4420                34.6806

                     34                     35                     36
                      A                      A                      A
 Frequencies --   3131.1873              3137.1233              3753.8922
 Red. masses --      1.1034                 1.1016                 1.0642
 Frc consts  --      6.3740                 6.3874                 8.8355
 IR Inten    --      5.0420                40.4314                49.0374

 - Thermochemistry -
 -------------------
 Temperature   298.150 Kelvin.  Pressure   1.00000 Atm.
 Atom     1 has atomic number  6 and mass  12.00000

 Molecular mass:    88.05243 amu.
 Principal axes and moments of inertia in atomic units:
                           1         2         3
     Eigenvalues --   366.57399 678.68628 706.68815
           X            0.99966  -0.00001   0.02588
           Y            0.00000   1.00000   0.00020
           Z           -0.02588  -0.00020   0.99966
 This molecule is an asymmetric top.
 Rotational symmetry number  1.
 Rotational temperatures (Kelvin)      0.23628     0.12762     0.12256
 Rotational constants (GHZ):           4.92327     2.65917     2.55380
 Zero-point vibrational energy     312902.5 (Joules/Mol)
                                   74.78549 (Kcal/Mol)
 Warning -- explicit consideration of   9 degrees of freedom as
           vibrations may cause significant error
 Vibrational temperatures:     48.66   301.12   338.76   343.88   397.27
          (Kelvin)            477.50   749.99   846.41   890.31  1120.95
                             1124.19  1313.96  1359.14  1405.13  1529.27
                             1616.69  1721.14  1751.94  1942.92  1950.47
                             1964.95  2029.26  2067.29  2161.80  2166.50
                             2180.78  2199.28  2653.16  4385.84  4390.15
                             4438.60  4488.51  4491.46  4505.07  4513.62
                             5401.01

 Zero-point correction=                           0.119178 (Hartree/Particle)
 Thermal correction to Energy=                    0.126244
 Thermal correction to Enthalpy=                  0.127188
 Thermal correction to Gibbs Free Energy=         0.087869
 Sum of electronic and zero-point Energies=           -307.605132
 Sum of electronic and thermal Energies=              -307.598066
 Sum of electronic and thermal Enthalpies=            -307.597122
 Sum of electronic and thermal Free Energies=         -307.636440

                     E (Thermal)             CV                S
                      KCal/Mol        Cal/Mol-Kelvin    Cal/Mol-Kelvin
 Total                   79.219             24.461             82.752
 Electronic               0.000              0.000              0.000
 Translational            0.889              2.981             39.339
 Rotational               0.889              2.981             26.666
 Vibrational             77.442             18.499             16.747
 Vibration     1          0.594              1.983              5.592
 Vibration     2          0.642              1.827              2.050
 Vibration     3          0.655              1.787              1.837
 Vibration     4          0.657              1.781              1.810
 Vibration     5          0.678              1.718              1.558
 Vibration     6          0.714              1.612              1.251
 Vibration     7          0.876              1.203              0.607
 Vibration     8          0.945              1.057              0.470
 Vibration     9          0.979              0.992              0.418

 Optimization completed.
    -- Stationary point found.
 Normal termination of Gaussian 09 at Thu Jul 22 17:53:50 2021.
