 Gaussian 09, Revision D.01,
 Gaussian 09:  ES64L-G09RevD.01 24-Apr-2013

 -------------------------
 #P OPT Freq B3LYP/6-31G**
 -------------------------

 -------
 Frag_54
 -------
 Symbolic Z-matrix:
 Charge =  0 Multiplicity = 1

 SCF Done:  E(RB3LYP) =  -322.417770365     A.U. after   15 cycles
 Optimization completed.
    -- Stationary point found.
 Normal termination of Gaussian 09 at Fri Jul 23 04:58:32 2021.

 ----------------------------------------------------------------------
 #P Geom=AllCheck Guess=TCheck SCRF=Check GenChk RB3LYP/6-31G(d,p) Freq
 ----------------------------------------------------------------------

 Structure from the checkpoint file:  "/vol2/users/liuj201281/HOFBenchmark/IsodesmicSplit/Sample60/Ring26/Running/Gau-285781.chk"
 -------
 Frag_54
 -------
 Charge =  0 Multiplicity = 1

                         Standard orientation:
 ---------------------------------------------------------------------
 Center     Atomic      Atomic             Coordinates (Angstroms)
 Number     Number       Type             X           Y           Z
 ---------------------------------------------------------------------
      1          6           0        1.018836    1.490205   -0.000017
      2          6           0        0.664417    0.207038   -0.000017
      3          6           0        1.554405   -0.994144   -0.000017
      4          7           0       -0.792211   -0.097726   -0.000017
      5          8           0       -1.595025    0.832848   -0.000017
      6          8           0       -1.099922   -1.290298    0.000083
      7          1           0        2.066662    1.767408   -0.000017
      8          1           0        0.270309    2.272075    0.000083
      9          1           0        1.371447   -1.619427   -0.878317
     10          1           0        1.371847   -1.619228    0.878483
     11          1           0        2.598835   -0.675742   -0.000317
 ---------------------------------------------------------------------

 SCF Done:  E(RB3LYP) =  -322.417770365     A.U. after    1 cycles

 The electronic state is 1-A.
 Alpha  occ. eigenvalues --  -19.18310 -19.18095 -14.57089 -10.26289 -10.22289
 Alpha  occ. eigenvalues --  -10.20899  -1.22400  -1.05194  -0.85461  -0.72405
 Alpha  occ. eigenvalues --   -0.70734  -0.56575  -0.53265  -0.52748  -0.51247
 Alpha  occ. eigenvalues --   -0.46141  -0.43381  -0.42673  -0.40488  -0.31212
 Alpha  occ. eigenvalues --   -0.30675  -0.29644  -0.29043
 Alpha virt. eigenvalues --   -0.08893   0.01915   0.09040   0.10479   0.14086
 Alpha virt. eigenvalues --    0.16043   0.16419   0.19189   0.25675   0.27701
 Alpha virt. eigenvalues --    0.31299   0.35538   0.48223   0.49279   0.52205

 Mulliken charges:
               1
     1  C   -0.253553
     2  C    0.279418
     3  C   -0.355581
     4  N    0.415363
     5  O   -0.397792
     6  O   -0.385158
     7  H    0.125699
     8  H    0.156479
     9  H    0.148822
    10  H    0.148825
    11  H    0.117477
 Sum of Mulliken charges =   0.00000

 Dipole moment (field-independent basis, Debye):
    X=              3.7791    Y=              0.8268    Z=             -0.0001  Tot=              3.8685
 Quadrupole moment (field-independent basis, Debye-Ang):
   XX=            -36.1570   YY=            -34.4013   ZZ=            -34.2579
   XY=              0.1718   XZ=              0.0001   YZ=              0.0003

  Exact polarizability:  49.897   3.467  62.003  -0.001  -0.001  24.169
 Approx polarizability:  70.739   5.705 119.412  -0.001  -0.003  34.852

                      1                      2                      3
                      A                      A                      A
 Frequencies --     65.5831               195.3177               321.7537
 Red. masses --      5.6312                 1.0319                 3.9426
 Frc consts  --      0.0143                 0.0232                 0.2405
 IR Inten    --      0.0219                 0.4527                 1.9366

                      4                      5                      6
                      A                      A                      A
 Frequencies --    386.2833               406.4428               543.9210
 Red. masses --      3.4748                 2.5873                 5.1462
 Frc consts  --      0.3055                 0.2518                 0.8970
 IR Inten    --      0.0001                 2.0261                 3.8023

                      7                      8                      9
                      A                      A                      A
 Frequencies --    595.3039               640.3888               831.9330
 Red. masses --      4.7055                 1.5503                 2.1644
 Frc consts  --      0.9825                 0.3746                 0.8826
 IR Inten    --      5.3762                 9.8696                 5.3157

                     10                     11                     12
                      A                      A                      A
 Frequencies --    867.3518               933.9877               978.3728
 Red. masses --      7.7521                 1.9499                 1.3293
 Frc consts  --      3.4360                 1.0022                 0.7497
 IR Inten    --     23.8244                11.7402                35.5673

                     13                     14                     15
                      A                      A                      A
 Frequencies --   1024.0104              1077.1363              1240.4209
 Red. masses --      1.4541                 1.4596                 2.6460
 Frc consts  --      0.8984                 0.9978                 2.3987
 IR Inten    --     10.4033                 0.8020                 9.6019

                     16                     17                     18
                      A                      A                      A
 Frequencies --   1393.8133              1412.5550              1446.3190
 Red. masses --      8.9046                 1.1672                 1.3330
 Frc consts  --     10.1923                 1.3722                 1.6429
 IR Inten    --    130.5527                 9.4556                22.1784

                     19                     20                     21
                      A                      A                      A
 Frequencies --   1482.0924              1495.5162              1638.2515
 Red. masses --      1.0429                 1.0546                13.4082
 Frc consts  --      1.3497                 1.3897                21.2023
 IR Inten    --      7.8470                20.9034               219.7064

                     22                     23                     24
                      A                      A                      A
 Frequencies --   1745.3656              3064.1857              3129.8575
 Red. masses --      6.0561                 1.0354                 1.1011
 Frc consts  --     10.8697                 5.7279                 6.3554
 IR Inten    --      1.7837                 6.1624                 5.6242

                     25                     26                     27
                      A                      A                      A
 Frequencies --   3151.2491              3190.2791              3291.0006
 Red. masses --      1.1041                 1.0612                 1.1174
 Frc consts  --      6.4596                 6.3637                 7.1305
 IR Inten    --      8.6038                 4.0652                 0.8199

 - Thermochemistry -
 -------------------
 Temperature   298.150 Kelvin.  Pressure   1.00000 Atm.
 Atom     1 has atomic number  6 and mass  12.00000

 Molecular mass:    87.03203 amu.
 Principal axes and moments of inertia in atomic units:
                           1         2         3
     Eigenvalues --   330.10628 469.73979 788.73828
           X            0.99881  -0.04879   0.00001
           Y            0.04879   0.99881   0.00002
           Z           -0.00001  -0.00002   1.00000
 This molecule is an asymmetric top.
 Rotational symmetry number  1.
 Rotational temperatures (Kelvin)      0.26238     0.18439     0.10981
 Rotational constants (GHZ):           5.46715     3.84200     2.28814
 Zero-point vibrational energy     218609.7 (Joules/Mol)
                                   52.24898 (Kcal/Mol)
 Warning -- explicit consideration of   7 degrees of freedom as
           vibrations may cause significant error
 Vibrational temperatures:     94.36   281.02   462.93   555.77   584.78
          (Kelvin)            782.58   856.51   921.38  1196.96  1247.92
                             1343.80  1407.66  1473.32  1549.76  1784.69
                             2005.38  2032.35  2080.93  2132.40  2151.71
                             2357.08  2511.19  4408.67  4503.16  4533.94
                             4590.09  4735.01

 Zero-point correction=                           0.083264 (Hartree/Particle)
 Thermal correction to Energy=                    0.089311
 Thermal correction to Enthalpy=                  0.090255
 Thermal correction to Gibbs Free Energy=         0.053403
 Sum of electronic and zero-point Energies=           -322.334506
 Sum of electronic and thermal Energies=              -322.328459
 Sum of electronic and thermal Enthalpies=            -322.327515
 Sum of electronic and thermal Free Energies=         -322.364368

                     E (Thermal)             CV                S
                      KCal/Mol        Cal/Mol-Kelvin    Cal/Mol-Kelvin
 Total                   56.044             20.876             77.563
 Electronic               0.000              0.000              0.000
 Translational            0.889              2.981             39.304
 Rotational               0.889              2.981             26.306
 Vibrational             54.266             14.914             11.953
 Vibration     1          0.597              1.971              4.282
 Vibration     2          0.636              1.846              2.177
 Vibration     3          0.707              1.632              1.301
 Vibration     4          0.755              1.499              1.014
 Vibration     5          0.771              1.456              0.939
 Vibration     6          0.899              1.153              0.557
 Vibration     7          0.953              1.042              0.458

 Optimization completed.
    -- Stationary point found.
 Normal termination of Gaussian 09 at Fri Jul 23 04:58:42 2021.
