 Gaussian 09, Revision E.01,
 Gaussian 09:  ES64L-G09RevE.01 30-Nov-2015

 ----------------------------
 #P OPT Freq B3LYP/6-31G(d,p)
 ----------------------------

 ---------
 Frag_1074
 ---------
 Symbolic Z-matrix:
 Charge =  0 Multiplicity = 1

 SCF Done:  E(RB3LYP) =  -285.115709363     A.U. after   14 cycles
 SCF Done:  E(RB3LYP) =  -285.115711987     A.U. after   11 cycles
 SCF Done:  E(RB3LYP) =  -285.115661440     A.U. after   10 cycles
 SCF Done:  E(RB3LYP) =  -285.115765762     A.U. after   10 cycles
 SCF Done:  E(RB3LYP) =  -285.115772585     A.U. after    9 cycles
 SCF Done:  E(RB3LYP) =  -285.115773521     A.U. after    7 cycles
 SCF Done:  E(RB3LYP) =  -285.115773817     A.U. after    7 cycles
 SCF Done:  E(RB3LYP) =  -285.115773837     A.U. after    7 cycles
 Optimization completed.
    -- Stationary point found.
 Normal termination of Gaussian 09 at Thu Sep  8 14:51:56 2022.

 ----------------------------------------------------------------------
 #P Geom=AllCheck Guess=TCheck SCRF=Check GenChk RB3LYP/6-31G(d,p) Freq
 ----------------------------------------------------------------------

 Structure from the checkpoint file:  "B3LYP6-31Gdp.Frag_1074.chk"
 ---------
 Frag_1074
 ---------
 Charge =  0 Multiplicity = 1

                         Standard orientation:
 ---------------------------------------------------------------------
 Center     Atomic      Atomic             Coordinates (Angstroms)
 Number     Number       Type             X           Y           Z
 ---------------------------------------------------------------------
      1          6           0        0.545172    1.514315   -0.197770
      2          6           0        0.379357   -0.021693   -0.031729
      3          6           0        1.649670   -0.729836   -0.518553
      4          7           0        0.123771   -0.258759    1.436804
      5          7           0       -0.702543   -0.605814   -0.790150
      6          7           0       -1.917423   -0.084260   -0.154246
      7          1           0        1.409827    1.909652    0.351060
      8          1           0        0.675665    1.747056   -1.257696
      9          1           0       -0.335453    2.059359    0.165724
     10          1           0        1.794593   -0.553862   -1.588600
     11          1           0        2.536582   -0.375257    0.018279
     12          1           0        1.548618   -1.809481   -0.370529
     13          1           0        0.263532   -1.249805    1.625048
     14          1           0        0.768553    0.259934    2.030255
     15          1           0       -2.671466   -0.743950   -0.335900
     16          1           0       -1.717866   -0.026685    0.873594
     17          1           0       -2.244423    0.848159   -0.469778
 ---------------------------------------------------------------------

 SCF Done:  E(RB3LYP) =  -285.115773837     A.U. after    1 cycles

 The electronic state is 1-A.
 Alpha  occ. eigenvalues --  -14.42424 -14.30419 -14.24190 -10.21019 -10.15596
 Alpha  occ. eigenvalues --  -10.14826  -0.97415  -0.86709  -0.75852  -0.68663
 Alpha  occ. eigenvalues --   -0.66514  -0.55322  -0.53262  -0.51805  -0.47315
 Alpha  occ. eigenvalues --   -0.44135  -0.41312  -0.39056  -0.36338  -0.35249
 Alpha  occ. eigenvalues --   -0.33967  -0.31754  -0.23969  -0.22274  -0.13900
 Alpha virt. eigenvalues --    0.04969   0.09371   0.11024   0.13811   0.14631
 Alpha virt. eigenvalues --    0.16374   0.17250   0.17986   0.19555   0.19655
 Alpha virt. eigenvalues --    0.22308   0.22651   0.24277   0.28166   0.28549

 Mulliken charges:
               1
     1  C   -0.304157
     2  C    0.277957
     3  C   -0.295393
     4  N   -0.630210
     5  N   -0.514698
     6  N   -0.394234
     7  H    0.080514
     8  H    0.110274
     9  H    0.063638
    10  H    0.108591
    11  H    0.073571
    12  H    0.095710
    13  H    0.236955
    14  H    0.227127
    15  H    0.307098
    16  H    0.290725
    17  H    0.266533
 Sum of Mulliken charges =  -0.00000

 Dipole moment (field-independent basis, Debye):
    X=             -2.3441    Y=              1.1104    Z=              2.1341  Tot=              3.3589
 Quadrupole moment (field-independent basis, Debye-Ang):
   XX=            -28.1241   YY=            -39.6386   ZZ=            -41.2013
   XY=             -0.8519   XZ=              1.0404   YZ=             -2.7139

  Exact polarizability:  66.917  -1.527  54.924   1.485   0.610  53.266
 Approx polarizability:  88.855  -1.963  76.713   2.772   4.036  78.182

                      1                      2                      3
                      A                      A                      A
 Frequencies --    179.3399               215.9663               247.9581
 Red. masses --      2.2585                 1.1161                 1.0771
 Frc consts  --      0.0428                 0.0307                 0.0390
 IR Inten    --     31.7397                 3.3033                 1.0120

                      4                      5                      6
                      A                      A                      A
 Frequencies --    290.7587               313.8318               350.0716
 Red. masses --      2.3655                 1.1528                 1.9156
 Frc consts  --      0.1178                 0.0669                 0.1383
 IR Inten    --     28.2661                 1.8988                 3.4122

                      7                      8                      9
                      A                      A                      A
 Frequencies --    365.7847               417.9524               440.6495
 Red. masses --      1.6160                 2.1839                 1.8655
 Frc consts  --      0.1274                 0.2248                 0.2134
 IR Inten    --     53.1250                 4.9180                 0.4032

                     10                     11                     12
                      A                      A                      A
 Frequencies --    505.5594               585.3966               720.3719
 Red. masses --      2.5328                 2.9715                 4.8623
 Frc consts  --      0.3814                 0.6000                 1.4866
 IR Inten    --     29.0940                 2.8990                 6.7001

                     13                     14                     15
                      A                      A                      A
 Frequencies --    780.8465               847.7055               900.2332
 Red. masses --      5.2446                 2.4055                 1.4071
 Frc consts  --      1.8840                 1.0184                 0.6719
 IR Inten    --     19.8654                54.4585                58.1561

                     16                     17                     18
                      A                      A                      A
 Frequencies --    920.7644               940.8378              1008.2124
 Red. masses --      1.5209                 1.6978                 1.3730
 Frc consts  --      0.7597                 0.8854                 0.8223
 IR Inten    --     22.5146                25.2579                 8.4595

                     19                     20                     21
                      A                      A                      A
 Frequencies --   1063.4352              1091.3711              1153.6877
 Red. masses --      1.3538                 1.2596                 1.5156
 Frc consts  --      0.9021                 0.8840                 1.1885
 IR Inten    --     16.1308                49.4266                26.4314

                     22                     23                     24
                      A                      A                      A
 Frequencies --   1198.7219              1254.7784              1297.5675
 Red. masses --      2.3691                 3.0657                 2.0059
 Frc consts  --      2.0057                 2.8439                 1.9899
 IR Inten    --     34.8622                46.2055                25.7517

                     25                     26                     27
                      A                      A                      A
 Frequencies --   1396.0919              1411.7017              1416.4613
 Red. masses --      1.2947                 1.1899                 1.2222
 Frc consts  --      1.4868                 1.3972                 1.4448
 IR Inten    --     11.3186                79.4028                10.1217

                     28                     29                     30
                      A                      A                      A
 Frequencies --   1487.2676              1495.7372              1512.7936
 Red. masses --      1.0499                 1.0517                 1.0552
 Frc consts  --      1.3683                 1.3863                 1.4228
 IR Inten    --      0.1647                 0.6157                 1.1779

                     31                     32                     33
                      A                      A                      A
 Frequencies --   1519.6476              1619.4461              1635.5196
 Red. masses --      1.0528                 1.0874                 1.0676
 Frc consts  --      1.4324                 1.6802                 1.6826
 IR Inten    --      3.2540                34.8801                 3.4083

                     34                     35                     36
                      A                      A                      A
 Frequencies --   1689.8697              3020.2672              3040.9068
 Red. masses --      1.0565                 1.0385                 1.0356
 Frc consts  --      1.7775                 5.5814                 5.6420
 IR Inten    --     33.5843                32.7204                20.7920

                     37                     38                     39
                      A                      A                      A
 Frequencies --   3046.9315              3075.0631              3114.6147
 Red. masses --      1.0623                 1.0999                 1.1022
 Frc consts  --      5.8106                 6.1280                 6.2995
 IR Inten    --    166.0356                75.9580                34.1316

                     40                     41                     42
                      A                      A                      A
 Frequencies --   3123.3124              3130.0237              3168.6516
 Red. masses --      1.1018                 1.0988                 1.0711
 Frc consts  --      6.3326                 6.3426                 6.3364
 IR Inten    --     13.0879                40.5810                85.2063

                     43                     44                     45
                      A                      A                      A
 Frequencies --   3470.1652              3522.9915              3565.7675
 Red. masses --      1.0487                 1.0783                 1.0934
 Frc consts  --      7.4407                 7.8850                 8.1913
 IR Inten    --      3.6813                31.3690                 1.1191

 - Thermochemistry -
 -------------------
 Temperature   298.150 Kelvin.  Pressure   1.00000 Atm.
 Atom     1 has atomic number  6 and mass  12.00000

 Molecular mass:    89.09530 amu.
 Principal axes and moments of inertia in atomic units:
                           1         2         3
     Eigenvalues --   398.95330 645.73254 661.72465
           X            0.99959  -0.02648  -0.01112
           Y            0.02206   0.95578  -0.29327
           Z            0.01840   0.29290   0.95597
 This molecule is an asymmetric top.
 Rotational symmetry number  1.
 Rotational temperatures (Kelvin)      0.21710     0.13413     0.13089
 Rotational constants (GHZ):           4.52369     2.79487     2.72733
 Zero-point vibrational energy     404068.8 (Joules/Mol)
                                   96.57477 (Kcal/Mol)
 Warning -- explicit consideration of  11 degrees of freedom as
           vibrations may cause significant error
 Vibrational temperatures:    258.03   310.73   356.76   418.34   451.53
          (Kelvin)            503.67   526.28   601.34   634.00   727.39
                              842.25  1036.45  1123.46  1219.66  1295.23
                             1324.77  1353.65  1450.59  1530.04  1570.24
                             1659.90  1724.69  1805.34  1866.91  2008.66
                             2031.12  2037.97  2139.84  2152.03  2176.57
                             2186.43  2330.02  2353.14  2431.34  4345.49
                             4375.18  4383.85  4424.32  4481.23  4493.74
                             4503.40  4558.98  4992.79  5068.79  5130.34

 Zero-point correction=                           0.153902 (Hartree/Particle)
 Thermal correction to Energy=                    0.161452
 Thermal correction to Enthalpy=                  0.162396
 Thermal correction to Gibbs Free Energy=         0.123643
 Sum of electronic and zero-point Energies=           -284.961872
 Sum of electronic and thermal Energies=              -284.954322
 Sum of electronic and thermal Enthalpies=            -284.953378
 Sum of electronic and thermal Free Energies=         -284.992131

                     E (Thermal)             CV                S
                      KCal/Mol        Cal/Mol-Kelvin    Cal/Mol-Kelvin
 Total                  101.313             28.921             81.563
 Electronic               0.000              0.000              0.000
 Translational            0.889              2.981             39.374
 Rotational               0.889              2.981             26.636
 Vibrational             99.535             22.959             15.553
 Vibration     1          0.629              1.868              2.335
 Vibration     2          0.645              1.817              1.993
 Vibration     3          0.662              1.766              1.745
 Vibration     4          0.687              1.691              1.470
 Vibration     5          0.702              1.647              1.342
 Vibration     6          0.727              1.575              1.166
 Vibration     7          0.739              1.543              1.097
 Vibration     8          0.781              1.431              0.899
 Vibration     9          0.801              1.382              0.825
 Vibration    10          0.861              1.238              0.644
 Vibration    11          0.942              1.063              0.475

 Optimization completed.
    -- Stationary point found.
 Normal termination of Gaussian 09 at Thu Sep  8 14:52:10 2022.
