 Gaussian 09, Revision E.01,
 Gaussian 09:  ES64L-G09RevE.01 30-Nov-2015

 --------------------------------
 #P OPT=calcfc Freq B3LYP/6-31G**
 --------------------------------

 --------
 Frag_345
 --------
 Symbolic Z-matrix:
 Charge =  0 Multiplicity = 1

 SCF Done:  E(RB3LYP) =  -323.287776896     A.U. after   14 cycles
 SCF Done:  E(RB3LYP) =  -323.300235592     A.U. after   13 cycles
 SCF Done:  E(RB3LYP) =  -323.304250844     A.U. after   14 cycles
 SCF Done:  E(RB3LYP) =  -323.239280247     A.U. after   13 cycles
 SCF Done:  E(RB3LYP) =  -323.258174965     A.U. after   11 cycles
 SCF Done:  E(RB3LYP) =  -323.273393043     A.U. after   11 cycles
 SCF Done:  E(RB3LYP) =  -323.285586380     A.U. after   11 cycles
 SCF Done:  E(RB3LYP) =  -323.295518778     A.U. after   11 cycles
 SCF Done:  E(RB3LYP) =  -323.304250949     A.U. after    8 cycles
 SCF Done:  E(RB3LYP) =  -323.304984909     A.U. after   11 cycles
 SCF Done:  E(RB3LYP) =  -323.305093804     A.U. after   11 cycles
 SCF Done:  E(RB3LYP) =  -323.305115369     A.U. after   11 cycles
 SCF Done:  E(RB3LYP) =  -323.305122297     A.U. after   10 cycles
 SCF Done:  E(RB3LYP) =  -323.305124562     A.U. after    8 cycles
 SCF Done:  E(RB3LYP) =  -323.305125866     A.U. after    7 cycles
 SCF Done:  E(RB3LYP) =  -323.305126683     A.U. after    8 cycles
 SCF Done:  E(RB3LYP) =  -323.305127062     A.U. after    8 cycles
 SCF Done:  E(RB3LYP) =  -323.305126989     A.U. after    8 cycles
 Optimization completed.
    -- Stationary point found.
 Normal termination of Gaussian 09 at Fri Sep 10 20:43:47 2021.

 ----------------------------------------------------------------------
 #P Geom=AllCheck Guess=TCheck SCRF=Check GenChk RB3LYP/6-31G(d,p) Freq
 ----------------------------------------------------------------------

 Structure from the checkpoint file:  "/public/home/users/caep010/.cache/gau_scr/Gau-151743.chk"
 --------
 Frag_345
 --------
 Charge =  0 Multiplicity = 1

                         Standard orientation:
 ---------------------------------------------------------------------
 Center     Atomic      Atomic             Coordinates (Angstroms)
 Number     Number       Type             X           Y           Z
 ---------------------------------------------------------------------
      1          6           0        1.817616   -0.991429    0.001382
      2          6           0        0.918549    0.221371   -0.020984
      3          7           0        1.312039    1.434018    0.020373
      4          6           0       -0.606918   -0.029556   -0.051291
      5          6           0       -1.068666   -0.266572    1.404935
      6          7           0       -1.252211    1.133360   -0.667149
      7          7           0       -0.869934   -1.261703   -0.810300
      8          1           0        1.499398   -1.707373    0.764696
      9          1           0        1.759329   -1.525556   -0.951083
     10          1           0        2.854786   -0.699808    0.190567
     11          1           0        2.332848    1.487104    0.078595
     12          1           0       -0.847560    0.610925    2.017490
     13          1           0       -0.588770   -1.142038    1.852226
     14          1           0       -2.152719   -0.436228    1.423071
     15          1           0       -0.699975    1.961622   -0.449080
     16          1           0       -2.185710    1.262826   -0.284666
     17          1           0       -1.836185   -1.540735   -0.648247
     18          1           0       -0.828189   -1.013347   -1.798282
 ---------------------------------------------------------------------

 SCF Done:  E(RB3LYP) =  -323.305126989     A.U. after    1 cycles

 The electronic state is 1-A.
 Alpha  occ. eigenvalues --  -14.31360 -14.30697 -14.29608 -10.24394 -10.23299
 Alpha  occ. eigenvalues --  -10.18439 -10.18015  -0.92879  -0.88363  -0.82635
 Alpha  occ. eigenvalues --   -0.73248  -0.71242  -0.62711  -0.53008  -0.48469
 Alpha  occ. eigenvalues --   -0.47616  -0.46560  -0.43624  -0.42716  -0.41530
 Alpha  occ. eigenvalues --   -0.40011  -0.38649  -0.36721  -0.34023  -0.29692
 Alpha  occ. eigenvalues --   -0.26640  -0.25202  -0.22054
 Alpha virt. eigenvalues --    0.00509   0.07483   0.10287   0.12176   0.13254
 Alpha virt. eigenvalues --    0.14942   0.15520   0.17337   0.17974   0.18365
 Alpha virt. eigenvalues --    0.19729   0.21033   0.23787   0.24961   0.27255

 Mulliken charges:
               1
     1  C   -0.337828
     2  C    0.300392
     3  N   -0.547022
     4  C    0.214987
     5  C   -0.312473
     6  N   -0.605173
     7  N   -0.583744
     8  H    0.129450
     9  H    0.142209
    10  H    0.095520
    11  H    0.222362
    12  H    0.119300
    13  H    0.111602
    14  H    0.094369
    15  H    0.263679
    16  H    0.221330
    17  H    0.229220
    18  H    0.241820
 Sum of Mulliken charges =  -0.00000

 Dipole moment (field-independent basis, Debye):
    X=             -0.1410    Y=             -0.9389    Z=              0.9363  Tot=              1.3335
 Quadrupole moment (field-independent basis, Debye-Ang):
   XX=            -36.3712   YY=            -47.7819   ZZ=            -44.5632
   XY=             -0.0162   XZ=             -0.9552   YZ=              1.5027

  Exact polarizability:  70.171   3.406  66.924  -0.281   0.347  51.110
 Approx polarizability:  91.464   8.503 102.988   0.026   0.322  71.243

                      1                      2                      3
                      A                      A                      A
 Frequencies --     64.4326               142.6222               234.3766
 Red. masses --      3.3852                 1.0581                 1.7680
 Frc consts  --      0.0083                 0.0127                 0.0572
 IR Inten    --      3.6040                 0.2448                15.4659

                      4                      5                      6
                      A                      A                      A
 Frequencies --    254.4630               286.4055               301.5269
 Red. masses --      1.2469                 1.2800                 1.0524
 Frc consts  --      0.0476                 0.0619                 0.0564
 IR Inten    --      1.2083                51.7615                10.8736

                      7                      8                      9
                      A                      A                      A
 Frequencies --    304.1228               364.4597               405.6917
 Red. masses --      2.5786                 2.5371                 3.6157
 Frc consts  --      0.1405                 0.1986                 0.3506
 IR Inten    --     16.0353                 1.8961                 0.8921

                     10                     11                     12
                      A                      A                      A
 Frequencies --    453.1722               504.3039               561.9682
 Red. masses --      2.6307                 2.8795                 3.1580
 Frc consts  --      0.3183                 0.4315                 0.5876
 IR Inten    --     14.4340                14.6457                18.3809

                     13                     14                     15
                      A                      A                      A
 Frequencies --    604.5716               701.8888               854.0637
 Red. masses --      2.6902                 3.0797                 1.8013
 Frc consts  --      0.5793                 0.8939                 0.7741
 IR Inten    --      2.0952                 3.1544                61.2774

                     16                     17                     18
                      A                      A                      A
 Frequencies --    879.9920               893.4133               944.2672
 Red. masses --      1.4538                 1.8317                 1.3717
 Frc consts  --      0.6633                 0.8614                 0.7206
 IR Inten    --     12.9152               156.7167                83.5260

                     19                     20                     21
                      A                      A                      A
 Frequencies --    986.6312               991.3320              1028.1275
 Red. masses --      1.7979                 1.6516                 1.4076
 Frc consts  --      1.0312                 0.9563                 0.8767
 IR Inten    --      4.1214                 9.7698                26.3999

                     22                     23                     24
                      A                      A                      A
 Frequencies --   1078.3593              1096.8449              1136.5318
 Red. masses --      1.5808                 1.5224                 1.6556
 Frc consts  --      1.0830                 1.0791                 1.2600
 IR Inten    --     17.7500                44.7941                24.4110

                     25                     26                     27
                      A                      A                      A
 Frequencies --   1223.7275              1266.8966              1354.9555
 Red. masses --      2.8025                 1.6303                 1.5569
 Frc consts  --      2.4727                 1.5417                 1.6841
 IR Inten    --     66.9811                31.5226                15.5935

                     28                     29                     30
                      A                      A                      A
 Frequencies --   1402.0820              1412.8411              1421.4177
 Red. masses --      1.6799                 1.2899                 1.4448
 Frc consts  --      1.9458                 1.5170                 1.7199
 IR Inten    --     10.7291                 7.7782                20.8421

                     31                     32                     33
                      A                      A                      A
 Frequencies --   1476.3534              1485.3033              1503.0664
 Red. masses --      1.0652                 1.0677                 1.0536
 Frc consts  --      1.3679                 1.3878                 1.4024
 IR Inten    --     13.4396                23.1518                 2.4797

                     34                     35                     36
                      A                      A                      A
 Frequencies --   1514.7312              1639.7435              1679.3288
 Red. masses --      1.0749                 1.1143                 1.0908
 Frc consts  --      1.4530                 1.7652                 1.8125
 IR Inten    --      0.9547                72.5095                27.0238

                     37                     38                     39
                      A                      A                      A
 Frequencies --   1733.3953              3035.3065              3054.6485
 Red. masses --      7.9468                 1.0400                 1.0359
 Frc consts  --     14.0682                 5.6452                 5.6952
 IR Inten    --     48.2769                23.6150                10.6258

                     40                     41                     42
                      A                      A                      A
 Frequencies --   3107.3764              3128.5529              3135.2444
 Red. masses --      1.0964                 1.0989                 1.1041
 Frc consts  --      6.2377                 6.3372                 6.3947
 IR Inten    --     29.6046                 8.8175                17.6188

                     43                     44                     45
                      A                      A                      A
 Frequencies --   3141.1118              3445.5299              3472.9602
 Red. masses --      1.1032                 1.0750                 1.0496
 Frc consts  --      6.4130                 7.5194                 7.4587
 IR Inten    --     21.3806                 8.6708                19.0746

                     46                     47                     48
                      A                      A                      A
 Frequencies --   3474.7115              3552.2616              3569.1933
 Red. masses --      1.0496                 1.0910                 1.0931
 Frc consts  --      7.4662                 8.1115                 8.2048
 IR Inten    --      2.4825                 0.9997                 6.7666

 - Thermochemistry -
 -------------------
 Temperature   298.150 Kelvin.  Pressure   1.00000 Atm.
 Atom     1 has atomic number  6 and mass  12.00000

 Molecular mass:   101.09530 amu.
 Principal axes and moments of inertia in atomic units:
                           1         2         3
     Eigenvalues --   553.73838 761.21051 927.99236
           X            0.99838  -0.05337  -0.01973
           Y            0.05347   0.99856   0.00439
           Z            0.01947  -0.00544   0.99980
 This molecule is an asymmetric top.
 Rotational symmetry number  1.
 Warning -- assumption of classical behavior for rotation
           may cause significant error
 Rotational temperatures (Kelvin)      0.15642     0.11378     0.09333
 Rotational constants (GHZ):           3.25919     2.37088     1.94478
 Zero-point vibrational energy     420513.1 (Joules/Mol)
                                  100.50505 (Kcal/Mol)
 Warning -- explicit consideration of  13 degrees of freedom as
           vibrations may cause significant error
 Vibrational temperatures:     92.70   205.20   337.22   366.12   412.07
          (Kelvin)            433.83   437.56   524.38   583.70   652.01
                              725.58   808.55   869.84  1009.86  1228.81
                             1266.11  1285.42  1358.59  1419.54  1426.30
                             1479.24  1551.52  1578.11  1635.21  1760.67
                             1822.78  1949.48  2017.28  2032.76  2045.10
                             2124.14  2137.02  2162.57  2179.36  2359.22
                             2416.18  2493.97  4367.12  4394.95  4470.82
                             4501.28  4510.91  4519.35  4957.34  4996.81
                             4999.33  5110.91  5135.27

 Zero-point correction=                           0.160165 (Hartree/Particle)
 Thermal correction to Energy=                    0.168794
 Thermal correction to Enthalpy=                  0.169738
 Thermal correction to Gibbs Free Energy=         0.127864
 Sum of electronic and zero-point Energies=           -323.144962
 Sum of electronic and thermal Energies=              -323.136333
 Sum of electronic and thermal Enthalpies=            -323.135389
 Sum of electronic and thermal Free Energies=         -323.177263

                     E (Thermal)             CV                S
                      KCal/Mol        Cal/Mol-Kelvin    Cal/Mol-Kelvin
 Total                  105.920             32.192             88.133
 Electronic               0.000              0.000              0.000
 Translational            0.889              2.981             39.751
 Rotational               0.889              2.981             27.461
 Vibrational            104.142             26.230             20.921
 Vibration     1          0.597              1.971              4.317
 Vibration     2          0.616              1.911              2.768
 Vibration     3          0.654              1.788              1.845
 Vibration     4          0.665              1.755              1.699
 Vibration     5          0.684              1.699              1.495
 Vibration     6          0.694              1.671              1.408
 Vibration     7          0.695              1.666              1.394
 Vibration     8          0.738              1.545              1.103
 Vibration     9          0.771              1.458              0.942
 Vibration    10          0.812              1.354              0.786
 Vibration    11          0.860              1.240              0.647
 Vibration    12          0.918              1.114              0.520
 Vibration    13          0.963              1.022              0.442

 Optimization completed.
    -- Stationary point found.
 Normal termination of Gaussian 09 at Fri Sep 10 20:44:04 2021.
