 Gaussian 09, Revision E.01,
 Gaussian 09:  ES64L-G09RevE.01 30-Nov-2015

 ----------------------------
 #P OPT Freq B3LYP/6-31G(d,p)
 ----------------------------

 ---------
 Frag_1021
 ---------
 Symbolic Z-matrix:
 Charge =  0 Multiplicity = 1

 SCF Done:  E(RB3LYP) =  -209.115497306     A.U. after   13 cycles
 SCF Done:  E(RB3LYP) =  -209.115558406     A.U. after    9 cycles
 SCF Done:  E(RB3LYP) =  -209.115565602     A.U. after    8 cycles
 SCF Done:  E(RB3LYP) =  -209.115567238     A.U. after    8 cycles
 Optimization completed.
    -- Stationary point found.
 Normal termination of Gaussian 09 at Thu Sep  8 14:46:58 2022.

 ----------------------------------------------------------------------
 #P Geom=AllCheck Guess=TCheck SCRF=Check GenChk RB3LYP/6-31G(d,p) Freq
 ----------------------------------------------------------------------

 Structure from the checkpoint file:  "B3LYP6-31Gdp.Frag_1021.chk"
 ---------
 Frag_1021
 ---------
 Charge =  0 Multiplicity = 1

                         Standard orientation:
 ---------------------------------------------------------------------
 Center     Atomic      Atomic             Coordinates (Angstroms)
 Number     Number       Type             X           Y           Z
 ---------------------------------------------------------------------
      1          6           0       -1.474019   -0.541570   -0.005844
      2          6           0       -0.731168    0.566777    0.003121
      3          7           0        0.667652    0.647466    0.136718
      4          8           0        1.317717   -0.593101   -0.137783
      5          1           0       -1.022005   -1.525059    0.009873
      6          1           0       -2.554153   -0.468943   -0.033364
      7          1           0       -1.179673    1.558723   -0.020112
      8          1           0        1.067695    1.321263   -0.514010
      9          1           0        1.703955   -0.824673    0.719191
 ---------------------------------------------------------------------

 SCF Done:  E(RB3LYP) =  -209.115567238     A.U. after    1 cycles

 The electronic state is 1-A.
 Alpha  occ. eigenvalues --  -19.18118 -14.38978 -10.21260 -10.16041  -1.06823
 Alpha  occ. eigenvalues --   -0.85361  -0.72232  -0.57698  -0.52831  -0.48612
 Alpha  occ. eigenvalues --   -0.44644  -0.41495  -0.36375  -0.31782  -0.29583
 Alpha  occ. eigenvalues --   -0.21152
 Alpha virt. eigenvalues --    0.04087   0.07169   0.09227   0.12950   0.16133
 Alpha virt. eigenvalues --    0.16674   0.20213   0.31102   0.36349   0.51242
 Alpha virt. eigenvalues --    0.55621   0.61805   0.63005   0.64725   0.68765

 Mulliken charges:
               1
     1  C   -0.264263
     2  C    0.104833
     3  N   -0.294636
     4  O   -0.439220
     5  H    0.101241
     6  H    0.090807
     7  H    0.095090
     8  H    0.270753
     9  H    0.335394
 Sum of Mulliken charges =   0.00000

 Dipole moment (field-independent basis, Debye):
    X=              0.6631    Y=              0.9106    Z=              0.4109  Tot=              1.1991
 Quadrupole moment (field-independent basis, Debye-Ang):
   XX=            -22.0614   YY=            -21.3890   ZZ=            -25.3261
   XY=             -0.4972   XZ=              1.5648   YZ=             -3.0101

  Exact polarizability:  42.253   4.240  37.744   1.202  -1.713  17.148
 Approx polarizability:  57.486  10.496  58.447   1.995  -1.286  24.138

                      1                      2                      3
                      A                      A                      A
 Frequencies --    252.5976               305.2237               321.7392
 Red. masses --      2.1679                 2.5817                 1.1552
 Frc consts  --      0.0815                 0.1417                 0.0705
 IR Inten    --      0.6773                 3.2393                82.8011

                      4                      5                      6
                      A                      A                      A
 Frequencies --    610.2107               674.3546               788.1629
 Red. masses --      2.0258                 1.5440                 2.2151
 Frc consts  --      0.4444                 0.4137                 0.8107
 IR Inten    --     36.7809                69.2187               130.9949

                      7                      8                      9
                      A                      A                      A
 Frequencies --    852.9191               986.1285              1000.1469
 Red. masses --      1.4000                 1.5909                 1.4052
 Frc consts  --      0.6001                 0.9115                 0.8282
 IR Inten    --     52.1273                36.9761                17.1329

                     10                     11                     12
                      A                      A                      A
 Frequencies --   1019.7916              1168.8308              1326.0839
 Red. masses --      1.9220                 2.3640                 1.2296
 Frc consts  --      1.1777                 1.9028                 1.2740
 IR Inten    --     10.7779                29.0932                 0.5411

                     13                     14                     15
                      A                      A                      A
 Frequencies --   1377.5452              1446.7480              1480.8055
 Red. masses --      1.2153                 1.2253                 1.1195
 Frc consts  --      1.3588                 1.5111                 1.4464
 IR Inten    --     58.5845                 3.4733                 6.3209

                     16                     17                     18
                      A                      A                      A
 Frequencies --   1734.9088              3167.1240              3192.4973
 Red. masses --      4.5337                 1.0834                 1.0662
 Frc consts  --      8.0400                 6.4028                 6.4024
 IR Inten    --     67.2528                11.2366                 1.4663

                     19                     20                     21
                      A                      A                      A
 Frequencies --   3283.3553              3495.2946              3786.9284
 Red. masses --      1.1172                 1.0761                 1.0683
 Frc consts  --      7.0959                 7.7456                 9.0267
 IR Inten    --      7.0126                 2.4458                35.0731

 - Thermochemistry -
 -------------------
 Temperature   298.150 Kelvin.  Pressure   1.00000 Atm.
 Atom     1 has atomic number  6 and mass  12.00000

 Molecular mass:    59.03711 amu.
 Principal axes and moments of inertia in atomic units:
                           1         2         3
     Eigenvalues --    98.78096 288.71256 378.34141
           X            0.99980   0.01780   0.00914
           Y           -0.01731   0.99854  -0.05120
           Z           -0.01004   0.05103   0.99865
 This molecule is an asymmetric top.
 Rotational symmetry number  1.
 Rotational temperatures (Kelvin)      0.87683     0.30000     0.22893
 Rotational constants (GHZ):          18.27013     6.25100     4.77014
 Zero-point vibrational energy     193025.8 (Joules/Mol)
                                   46.13428 (Kcal/Mol)
 Warning -- explicit consideration of   4 degrees of freedom as
           vibrations may cause significant error
 Vibrational temperatures:    363.43   439.15   462.91   877.96   970.24
          (Kelvin)           1133.99  1227.16  1418.82  1438.99  1467.25
                             1681.68  1907.94  1981.98  2081.55  2130.55
                             2496.14  4556.78  4593.29  4724.01  5028.94
                             5448.54

 Zero-point correction=                           0.073520 (Hartree/Particle)
 Thermal correction to Energy=                    0.078227
 Thermal correction to Enthalpy=                  0.079171
 Thermal correction to Gibbs Free Energy=         0.046862
 Sum of electronic and zero-point Energies=           -209.042048
 Sum of electronic and thermal Energies=              -209.037340
 Sum of electronic and thermal Enthalpies=            -209.036396
 Sum of electronic and thermal Free Energies=         -209.068705

                     E (Thermal)             CV                S
                      KCal/Mol        Cal/Mol-Kelvin    Cal/Mol-Kelvin
 Total                   49.088             15.948             68.000
 Electronic               0.000              0.000              0.000
 Translational            0.889              2.981             38.147
 Rotational               0.889              2.981             23.893
 Vibrational             47.311              9.986              5.959
 Vibration     1          0.664              1.758              1.712
 Vibration     2          0.696              1.664              1.388
 Vibration     3          0.707              1.632              1.301
 Vibration     4          0.969              1.010              0.432

 Normal termination of Gaussian 09 at Thu Sep  8 14:47:05 2022.
