 Gaussian 09, Revision E.01,
 Gaussian 09:  ES64L-G09RevE.01 30-Nov-2015

 ----------------------------
 #P OPT Freq B3LYP/6-31G(d,p)
 ----------------------------

 ---------
 Frag_1132
 ---------
 Symbolic Z-matrix:
 Charge =  0 Multiplicity = 1

 SCF Done:  E(RB3LYP) =  -375.622164375     A.U. after   14 cycles
 SCF Done:  E(RB3LYP) =  -375.622328194     A.U. after   11 cycles
 SCF Done:  E(RB3LYP) =  -375.622342198     A.U. after   11 cycles
 SCF Done:  E(RB3LYP) =  -375.622340612     A.U. after   11 cycles
 SCF Done:  E(RB3LYP) =  -375.622359786     A.U. after    9 cycles
 SCF Done:  E(RB3LYP) =  -375.622360617     A.U. after    8 cycles
 SCF Done:  E(RB3LYP) =  -375.622360971     A.U. after    8 cycles
 Optimization completed.
    -- Stationary point found.
 Normal termination of Gaussian 09 at Thu Sep  8 14:46:23 2022.

 ----------------------------------------------------------------------
 #P Geom=AllCheck Guess=TCheck SCRF=Check GenChk RB3LYP/6-31G(d,p) Freq
 ----------------------------------------------------------------------

 Structure from the checkpoint file:  "B3LYP6-31Gdp.Frag_1132.chk"
 ---------
 Frag_1132
 ---------
 Charge =  0 Multiplicity = 1

                         Standard orientation:
 ---------------------------------------------------------------------
 Center     Atomic      Atomic             Coordinates (Angstroms)
 Number     Number       Type             X           Y           Z
 ---------------------------------------------------------------------
      1          7           0       -1.488698   -0.974101   -0.110937
      2          7           0       -0.616000    0.023799    0.318080
      3          8           0       -1.009960    1.315420   -0.198960
      4          6           0        0.767614   -0.188009    0.050686
      5          8           0        1.221768   -1.302803   -0.045215
      6          8           0        1.490174    0.934578   -0.010668
      7          1           0       -1.050246   -1.531690   -0.844200
      8          1           0       -1.674633   -1.582115    0.680598
      9          1           0       -1.621402    1.639481    0.479074
     10          1           0        0.857617    1.676941   -0.030847
 ---------------------------------------------------------------------

 SCF Done:  E(RB3LYP) =  -375.622360971     A.U. after    1 cycles

 The electronic state is 1-A.
 Alpha  occ. eigenvalues --  -19.21601 -19.19854 -19.13775 -14.44578 -14.37468
 Alpha  occ. eigenvalues --  -10.34698  -1.13736  -1.08370  -1.03264  -0.95674
 Alpha  occ. eigenvalues --   -0.78533  -0.61914  -0.59411  -0.56209  -0.52851
 Alpha  occ. eigenvalues --   -0.47109  -0.44450  -0.43776  -0.40921  -0.36457
 Alpha  occ. eigenvalues --   -0.32321  -0.29583  -0.28938  -0.27046
 Alpha virt. eigenvalues --    0.00681   0.05592   0.08881   0.10136   0.11999
 Alpha virt. eigenvalues --    0.14478   0.17193   0.25236   0.35244   0.38371
 Alpha virt. eigenvalues --    0.53080   0.55186   0.56563   0.63863   0.66059

 Mulliken charges:
               1
     1  N   -0.408403
     2  N   -0.192247
     3  O   -0.426568
     4  C    0.757062
     5  O   -0.471431
     6  O   -0.486919
     7  H    0.269882
     8  H    0.280468
     9  H    0.341015
    10  H    0.337140
 Sum of Mulliken charges =  -0.00000

 Dipole moment (field-independent basis, Debye):
    X=             -2.9605    Y=              1.5588    Z=              1.1590  Tot=              3.5409
 Quadrupole moment (field-independent basis, Debye-Ang):
   XX=            -38.1796   YY=            -29.1248   ZZ=            -32.6864
   XY=              2.4851   XZ=             -2.6994   YZ=              1.7269

  Exact polarizability:  37.667  -0.520  44.458  -1.971   1.291  22.047
 Approx polarizability:  52.029  -4.228  69.867  -3.558   1.851  32.246

                      1                      2                      3
                      A                      A                      A
 Frequencies --    127.4914               250.1902               318.9708
 Red. masses --      5.5379                 1.4484                 2.0110
 Frc consts  --      0.0530                 0.0534                 0.1205
 IR Inten    --      2.5023                28.7081                17.0358

                      4                      5                      6
                      A                      A                      A
 Frequencies --    323.6361               407.6485               481.1139
 Red. masses --      4.0012                 1.2703                 5.8879
 Frc consts  --      0.2469                 0.1244                 0.8030
 IR Inten    --     48.6646                62.3579                17.3892

                      7                      8                      9
                      A                      A                      A
 Frequencies --    567.2376               604.2713               678.9333
 Red. masses --      6.8703                 6.0979                 1.1290
 Frc consts  --      1.3024                 1.3119                 0.3066
 IR Inten    --      7.5790                 4.1932               126.0118

                     10                     11                     12
                      A                      A                      A
 Frequencies --    768.3537               790.7553               809.0012
 Red. masses --     10.3187                 5.6293                 2.1694
 Frc consts  --      3.5892                 2.0739                 0.8366
 IR Inten    --     44.3110                45.0503               134.3629

                     13                     14                     15
                      A                      A                      A
 Frequencies --   1059.1743              1197.1909              1233.3403
 Red. masses --      6.6400                 2.6846                 2.4456
 Frc consts  --      4.3889                 2.2670                 2.1918
 IR Inten    --     39.3972                24.6577                30.6203

                     16                     17                     18
                      A                      A                      A
 Frequencies --   1345.5749              1367.2097              1419.4562
 Red. masses --      1.1534                 1.1883                 2.2255
 Frc consts  --      1.2304                 1.3087                 2.6419
 IR Inten    --     10.2570                93.0949               502.1136

                     19                     20                     21
                      A                      A                      A
 Frequencies --   1705.5928              1881.2818              3469.0383
 Red. masses --      1.0775                 9.7600                 1.0508
 Frc consts  --      1.8468                20.3521                 7.4504
 IR Inten    --     24.2042               302.4210                 6.1891

                     22                     23                     24
                      A                      A                      A
 Frequencies --   3580.5970              3678.5238              3788.7989
 Red. masses --      1.0925                 1.0636                 1.0682
 Frc consts  --      8.2526                 8.4792                 9.0348
 IR Inten    --      8.9019               118.5613                52.0317

 - Thermochemistry -
 -------------------
 Temperature   298.150 Kelvin.  Pressure   1.00000 Atm.
 Atom     1 has atomic number  7 and mass  14.00307

 Molecular mass:    92.02219 amu.
 Principal axes and moments of inertia in atomic units:
                           1         2         3
     Eigenvalues --   344.14784 465.27439 783.09935
           X            0.99600   0.08895  -0.00837
           Y           -0.08886   0.99599   0.01027
           Z            0.00925  -0.00948   0.99991
 This molecule is an asymmetric top.
 Rotational symmetry number  1.
 Rotational temperatures (Kelvin)      0.25168     0.18616     0.11060
 Rotational constants (GHZ):           5.24409     3.87888     2.30461
 Zero-point vibrational energy     190525.5 (Joules/Mol)
                                   45.53670 (Kcal/Mol)
 Warning -- explicit consideration of   8 degrees of freedom as
           vibrations may cause significant error
 Vibrational temperatures:    183.43   359.97   458.93   465.64   586.51
          (Kelvin)            692.21   816.13   869.41   976.83  1105.49
                             1137.72  1163.97  1523.91  1722.49  1774.50
                             1935.98  1967.11  2042.28  2453.96  2706.74
                             4991.17  5151.67  5292.57  5451.23

 Zero-point correction=                           0.072567 (Hartree/Particle)
 Thermal correction to Energy=                    0.078690
 Thermal correction to Enthalpy=                  0.079634
 Thermal correction to Gibbs Free Energy=         0.043089
 Sum of electronic and zero-point Energies=           -375.549794
 Sum of electronic and thermal Energies=              -375.543671
 Sum of electronic and thermal Enthalpies=            -375.542727
 Sum of electronic and thermal Free Energies=         -375.579272

                     E (Thermal)             CV                S
                      KCal/Mol        Cal/Mol-Kelvin    Cal/Mol-Kelvin
 Total                   49.379             21.769             76.915
 Electronic               0.000              0.000              0.000
 Translational            0.889              2.981             39.470
 Rotational               0.889              2.981             26.331
 Vibrational             47.601             15.807             11.114
 Vibration     1          0.611              1.926              2.984
 Vibration     2          0.663              1.762              1.729
 Vibration     3          0.705              1.637              1.315
 Vibration     4          0.708              1.628              1.292
 Vibration     5          0.772              1.454              0.935
 Vibration     6          0.837              1.292              0.707
 Vibration     7          0.923              1.102              0.510
 Vibration     8          0.963              1.023              0.442

 Optimization completed.
    -- Stationary point found.
 Normal termination of Gaussian 09 at Thu Sep  8 14:46:32 2022.
