 Gaussian 09, Revision E.01,
 Gaussian 09:  ES64L-G09RevE.01 30-Nov-2015

 ----------------------------
 #P OPT Freq B3LYP/6-31G(d,p)
 ----------------------------

 --------
 Frag_619
 --------
 Symbolic Z-matrix:
 Charge =  0 Multiplicity = 1

 SCF Done:  E(RB3LYP) =  -305.067458965     A.U. after   13 cycles
 SCF Done:  E(RB3LYP) =  -305.067507846     A.U. after   10 cycles
 SCF Done:  E(RB3LYP) =  -305.067517314     A.U. after    9 cycles
 SCF Done:  E(RB3LYP) =  -305.067520175     A.U. after    8 cycles
 SCF Done:  E(RB3LYP) =  -305.067521470     A.U. after    7 cycles
 SCF Done:  E(RB3LYP) =  -305.067523177     A.U. after    8 cycles
 SCF Done:  E(RB3LYP) =  -305.067524230     A.U. after    8 cycles
 SCF Done:  E(RB3LYP) =  -305.067524417     A.U. after    7 cycles
 Optimization completed.
    -- Stationary point found.
 Normal termination of Gaussian 09 at Thu Sep  8 15:04:40 2022.

 ----------------------------------------------------------------------
 #P Geom=AllCheck Guess=TCheck SCRF=Check GenChk RB3LYP/6-31G(d,p) Freq
 ----------------------------------------------------------------------

 Structure from the checkpoint file:  "B3LYP6-31Gdp.Frag_619.chk"
 --------
 Frag_619
 --------
 Charge =  0 Multiplicity = 1

                         Standard orientation:
 ---------------------------------------------------------------------
 Center     Atomic      Atomic             Coordinates (Angstroms)
 Number     Number       Type             X           Y           Z
 ---------------------------------------------------------------------
      1          6           0       -2.016061   -0.129102   -0.085460
      2          8           0       -0.769738   -0.808873   -0.031462
      3          6           0        0.384118    0.021953    0.003096
      4          6           0        1.547612   -0.943943   -0.249309
      5          7           0        0.403465    0.670802    1.322892
      6          7           0        0.353892    1.044553   -1.029108
      7          1           0       -2.786413   -0.903785   -0.070999
      8          1           0       -2.109110    0.453639   -1.009422
      9          1           0       -2.156003    0.535917    0.775579
     10          1           0        1.495417   -1.772145    0.461268
     11          1           0        1.486899   -1.355927   -1.260346
     12          1           0        2.509561   -0.434742   -0.126757
     13          1           0        1.278485    1.174811    1.449963
     14          1           0        0.354802   -0.044017    2.046210
     15          1           0        1.268278    1.194698   -1.439308
     16          1           0        0.020482    1.921601   -0.640938
 ---------------------------------------------------------------------

 SCF Done:  E(RB3LYP) =  -305.067524417     A.U. after    1 cycles

 The electronic state is 1-A.
 Alpha  occ. eigenvalues --  -19.12928 -14.31314 -14.31196 -10.28493 -10.20527
 Alpha  occ. eigenvalues --  -10.17470  -1.02628  -0.89786  -0.83685  -0.72964
 Alpha  occ. eigenvalues --   -0.66396  -0.57402  -0.50423  -0.49614  -0.47306
 Alpha  occ. eigenvalues --   -0.44963  -0.42340  -0.40847  -0.38847  -0.38109
 Alpha  occ. eigenvalues --   -0.36155  -0.30724  -0.25691  -0.24818  -0.23846
 Alpha virt. eigenvalues --    0.06853   0.12007   0.12655   0.14308   0.15564
 Alpha virt. eigenvalues --    0.16055   0.16729   0.18091   0.18341   0.19658
 Alpha virt. eigenvalues --    0.20582   0.23272   0.27542   0.28604   0.30236

 Mulliken charges:
               1
     1  C   -0.067985
     2  O   -0.489188
     3  C    0.479989
     4  C   -0.329226
     5  N   -0.589623
     6  N   -0.594222
     7  H    0.102579
     8  H    0.106779
     9  H    0.101195
    10  H    0.115431
    11  H    0.124725
    12  H    0.084630
    13  H    0.227042
    14  H    0.242123
    15  H    0.240128
    16  H    0.245622
 Sum of Mulliken charges =  -0.00000

 Dipole moment (field-independent basis, Debye):
    X=              1.8909    Y=              1.0998    Z=              0.7679  Tot=              2.3183
 Quadrupole moment (field-independent basis, Debye-Ang):
   XX=            -33.2227   YY=            -37.4229   ZZ=            -38.1762
   XY=              1.3476   XZ=              0.2322   YZ=             -1.5510

  Exact polarizability:  56.395   1.086  48.310  -0.752  -0.986  48.527
 Approx polarizability:  69.323   2.818  67.522  -1.565  -1.794  66.457

                      1                      2                      3
                      A                      A                      A
 Frequencies --    127.6613               164.3782               212.1382
 Red. masses --      1.7623                 1.2824                 1.1557
 Frc consts  --      0.0169                 0.0204                 0.0306
 IR Inten    --      3.3259                32.0415                 8.8740

                      4                      5                      6
                      A                      A                      A
 Frequencies --    262.3641               276.6349               327.1017
 Red. masses --      1.0387                 2.4424                 1.2827
 Frc consts  --      0.0421                 0.1101                 0.0809
 IR Inten    --      0.1925                 1.2325                39.8935

                      7                      8                      9
                      A                      A                      A
 Frequencies --    361.1862               403.6085               486.1237
 Red. masses --      2.3927                 2.3284                 2.4326
 Frc consts  --      0.1839                 0.2235                 0.3387
 IR Inten    --      8.9918                 6.1503                20.0868

                     10                     11                     12
                      A                      A                      A
 Frequencies --    524.5280               583.4074               753.5499
 Red. masses --      3.9868                 2.9700                 1.6914
 Frc consts  --      0.6463                 0.5956                 0.5659
 IR Inten    --      2.4005                 1.0648               118.9785

                     13                     14                     15
                      A                      A                      A
 Frequencies --    781.1002               881.1574               925.7345
 Red. masses --      3.8843                 1.4892                 1.6276
 Frc consts  --      1.3963                 0.6813                 0.8218
 IR Inten    --     14.6263               186.8280                29.8927

                     16                     17                     18
                      A                      A                      A
 Frequencies --    962.3536              1013.6582              1096.1362
 Red. masses --      1.7413                 1.6973                 1.6744
 Frc consts  --      0.9501                 1.0275                 1.1853
 IR Inten    --     10.3797                25.3995                60.1900

                     19                     20                     21
                      A                      A                      A
 Frequencies --   1116.7836              1181.1909              1214.1076
 Red. masses --      3.8286                 1.2876                 2.0371
 Frc consts  --      2.8134                 1.0584                 1.7692
 IR Inten    --     90.4903                 1.7739                97.6431

                     22                     23                     24
                      A                      A                      A
 Frequencies --   1220.3779              1324.5390              1343.4499
 Red. masses --      1.7333                 2.0727                 1.8536
 Frc consts  --      1.5210                 2.1424                 1.9711
 IR Inten    --     52.1308                56.5801                55.5147

                     25                     26                     27
                      A                      A                      A
 Frequencies --   1418.3227              1474.5549              1494.7215
 Red. masses --      1.3849                 1.1667                 1.0500
 Frc consts  --      1.6415                 1.4947                 1.3822
 IR Inten    --     24.0324                 3.5877                 0.4326

                     28                     29                     30
                      A                      A                      A
 Frequencies --   1497.8760              1513.0749              1537.1374
 Red. masses --      1.0519                 1.0608                 1.0490
 Frc consts  --      1.3905                 1.4308                 1.4603
 IR Inten    --      1.4319                 1.1913                 6.4501

                     31                     32                     33
                      A                      A                      A
 Frequencies --   1642.8848              1657.5402              3025.5447
 Red. masses --      1.1148                 1.1089                 1.0322
 Frc consts  --      1.7728                 1.7950                 5.5667
 IR Inten    --     31.8855                44.0292                56.3367

                     34                     35                     36
                      A                      A                      A
 Frequencies --   3049.9358              3089.5510              3126.1733
 Red. masses --      1.0369                 1.1051                 1.1014
 Frc consts  --      5.6827                 6.2148                 6.3416
 IR Inten    --     15.0325                36.9140                21.7189

                     37                     38                     39
                      A                      A                      A
 Frequencies --   3130.1148              3144.6308              3483.2032
 Red. masses --      1.1024                 1.1031                 1.0489
 Frc consts  --      6.3636                 6.4269                 7.4982
 IR Inten    --     36.0105                18.6285                 0.8666

                     40                     41                     42
                      A                      A                      A
 Frequencies --   3525.8614              3576.9546              3625.9026
 Red. masses --      1.0493                 1.0931                 1.0945
 Frc consts  --      7.6860                 8.2398                 8.4778
 IR Inten    --      1.3694                 0.1461                 2.8058

 - Thermochemistry -
 -------------------
 Temperature   298.150 Kelvin.  Pressure   1.00000 Atm.
 Atom     1 has atomic number  6 and mass  12.00000

 Molecular mass:    90.07931 amu.
 Principal axes and moments of inertia in atomic units:
                           1         2         3
     Eigenvalues --   387.23469 630.39241 642.96625
           X            0.99944  -0.03348   0.00184
           Y            0.03349   0.99413  -0.10293
           Z            0.00161   0.10293   0.99469
 This molecule is an asymmetric top.
 Rotational symmetry number  1.
 Rotational temperatures (Kelvin)      0.22367     0.13740     0.13471
 Rotational constants (GHZ):           4.66059     2.86289     2.80690
 Zero-point vibrational energy     374175.5 (Joules/Mol)
                                   89.43009 (Kcal/Mol)
 Warning -- explicit consideration of  11 degrees of freedom as
           vibrations may cause significant error
 Vibrational temperatures:    183.68   236.50   305.22   377.48   398.02
          (Kelvin)            470.63   519.67   580.70   699.42   754.68
                              839.39  1084.19  1123.83  1267.79  1331.92
                             1384.61  1458.43  1577.09  1606.80  1699.47
                             1746.83  1755.85  1905.71  1932.92  2040.65
                             2121.55  2150.57  2155.11  2176.97  2211.60
                             2363.74  2384.83  4353.08  4388.17  4445.17
                             4497.86  4503.53  4524.42  5011.55  5072.92
                             5146.43  5216.86

 Zero-point correction=                           0.142516 (Hartree/Particle)
 Thermal correction to Energy=                    0.150280
 Thermal correction to Enthalpy=                  0.151224
 Thermal correction to Gibbs Free Energy=         0.111739
 Sum of electronic and zero-point Energies=           -304.925009
 Sum of electronic and thermal Energies=              -304.917245
 Sum of electronic and thermal Enthalpies=            -304.916300
 Sum of electronic and thermal Free Energies=         -304.955785

                     E (Thermal)             CV                S
                      KCal/Mol        Cal/Mol-Kelvin    Cal/Mol-Kelvin
 Total                   94.302             28.399             83.103
 Electronic               0.000              0.000              0.000
 Translational            0.889              2.981             39.407
 Rotational               0.889              2.981             26.554
 Vibrational             92.525             22.438             17.142
 Vibration     1          0.611              1.926              2.981
 Vibration     2          0.623              1.886              2.499
 Vibration     3          0.643              1.822              2.025
 Vibration     4          0.670              1.742              1.646
 Vibration     5          0.678              1.717              1.554
 Vibration     6          0.711              1.621              1.274
 Vibration     7          0.735              1.552              1.117
 Vibration     8          0.769              1.462              0.949
 Vibration     9          0.842              1.281              0.694
 Vibration    10          0.879              1.196              0.600
 Vibration    11          0.940              1.067              0.479

 Normal termination of Gaussian 09 at Thu Sep  8 15:04:53 2022.
