 Gaussian 09, Revision E.01,
 Gaussian 09:  ES64L-G09RevE.01 30-Nov-2015

 ----------------------------
 #P OPT Freq B3LYP/6-31G(d,p)
 ----------------------------

 --------
 Frag_486
 --------
 Symbolic Z-matrix:
 Charge =  0 Multiplicity = 1

 SCF Done:  E(RB3LYP) =  -249.654056257     A.U. after   12 cycles
 SCF Done:  E(RB3LYP) =  -249.654097119     A.U. after    8 cycles
 SCF Done:  E(RB3LYP) =  -249.654104407     A.U. after    8 cycles
 SCF Done:  E(RB3LYP) =  -249.654104825     A.U. after    7 cycles
 Optimization completed.
    -- Stationary point found.
 Normal termination of Gaussian 09 at Thu Sep  8 15:09:56 2022.

 ----------------------------------------------------------------------
 #P Geom=AllCheck Guess=TCheck SCRF=Check GenChk RB3LYP/6-31G(d,p) Freq
 ----------------------------------------------------------------------

 Structure from the checkpoint file:  "B3LYP6-31Gdp.Frag_486.chk"
 --------
 Frag_486
 --------
 Charge =  0 Multiplicity = 1

                         Standard orientation:
 ---------------------------------------------------------------------
 Center     Atomic      Atomic             Coordinates (Angstroms)
 Number     Number       Type             X           Y           Z
 ---------------------------------------------------------------------
      1          6           0        1.938706   -0.000000   -0.204340
      2          8           0        0.749207   -0.000001    0.568388
      3          7           0       -0.388040    0.000000   -0.332348
      4          6           0       -1.140550    1.209468   -0.012740
      5          6           0       -1.140551   -1.209467   -0.012741
      6          1           0        2.013564    0.891720   -0.840262
      7          1           0        2.761393   -0.000001    0.516971
      8          1           0        2.013564   -0.891719   -0.840264
      9          1           0       -0.518350    2.083247   -0.219499
     10          1           0       -2.022811    1.250467   -0.659337
     11          1           0       -1.464601    1.244217    1.039741
     12          1           0       -2.022812   -1.250465   -0.659337
     13          1           0       -1.464602   -1.244216    1.039741
     14          1           0       -0.518353   -2.083247   -0.219500
 ---------------------------------------------------------------------

 SCF Done:  E(RB3LYP) =  -249.654104825     A.U. after    1 cycles

 The electronic state is 1-A.
 Alpha  occ. eigenvalues --  -19.16230 -14.36926 -10.21937 -10.20092 -10.20091
 Alpha  occ. eigenvalues --   -1.05194  -0.85945  -0.70615  -0.67338  -0.59658
 Alpha  occ. eigenvalues --   -0.49191  -0.46780  -0.46741  -0.41855  -0.41346
 Alpha  occ. eigenvalues --   -0.39128  -0.38713  -0.36666  -0.34300  -0.25549
 Alpha  occ. eigenvalues --   -0.22517
 Alpha virt. eigenvalues --    0.09079   0.10136   0.12402   0.14558   0.15585
 Alpha virt. eigenvalues --    0.17049   0.17543   0.18092   0.18555   0.19635
 Alpha virt. eigenvalues --    0.20346   0.22074   0.25202   0.50209   0.52740

 Mulliken charges:
               1
     1  C   -0.032945
     2  O   -0.400102
     3  N   -0.217889
     4  C   -0.138291
     5  C   -0.138291
     6  H    0.095408
     7  H    0.105578
     8  H    0.095408
     9  H    0.114913
    10  H    0.106099
    11  H    0.094550
    12  H    0.106099
    13  H    0.094550
    14  H    0.114913
 Sum of Mulliken charges =  -0.00000

 Dipole moment (field-independent basis, Debye):
    X=             -0.3540    Y=              0.0000    Z=             -0.4596  Tot=              0.5801
 Quadrupole moment (field-independent basis, Debye-Ang):
   XX=            -28.0376   YY=            -30.4948   ZZ=            -34.3534
   XY=              0.0000   XZ=             -0.5144   YZ=              0.0000

  Exact polarizability:  55.015  -0.000  45.192   0.399   0.000  38.675
 Approx polarizability:  67.672  -0.000  57.005   2.301  -0.000  56.360

                      1                      2                      3
                      A                      A                      A
 Frequencies --     54.3289               202.2638               252.1638
 Red. masses --      2.6259                 1.0836                 1.0269
 Frc consts  --      0.0046                 0.0261                 0.0385
 IR Inten    --      3.9350                 0.8915                 0.2719

                      4                      5                      6
                      A                      A                      A
 Frequencies --    257.6419               321.6973               399.8577
 Red. masses --      1.1714                 2.1020                 2.2604
 Frc consts  --      0.0458                 0.1282                 0.2129
 IR Inten    --      2.2964                 5.9776                 4.6321

                      7                      8                      9
                      A                      A                      A
 Frequencies --    453.2085               506.7773               793.2340
 Red. masses --      3.4365                 2.8226                 4.1309
 Frc consts  --      0.4159                 0.4271                 1.5314
 IR Inten    --      8.5470                 3.2731                14.8321

                     10                     11                     12
                      A                      A                      A
 Frequencies --    957.2736              1018.0040              1082.0978
 Red. masses --      3.4873                 1.6698                 6.3470
 Frc consts  --      1.8828                 1.0196                 4.3788
 IR Inten    --     18.6356                 8.8071                87.5064

                     13                     14                     15
                      A                      A                      A
 Frequencies --   1115.6790              1181.4061              1185.0097
 Red. masses --      1.2292                 1.2804                 1.4448
 Frc consts  --      0.9015                 1.0530                 1.1953
 IR Inten    --      1.8819                 1.6213                 2.1339

                     16                     17                     18
                      A                      A                      A
 Frequencies --   1229.3910              1246.5876              1252.9438
 Red. masses --      1.7198                 1.7624                 3.2217
 Frc consts  --      1.5315                 1.6136                 2.9799
 IR Inten    --      1.1410                 4.2453                 1.6362

                     19                     20                     21
                      A                      A                      A
 Frequencies --   1440.7626              1463.2165              1475.4293
 Red. masses --      1.1841                 1.1776                 1.1483
 Frc consts  --      1.4481                 1.4854                 1.4728
 IR Inten    --      1.0258                 3.2278                 2.6628

                     22                     23                     24
                      A                      A                      A
 Frequencies --   1485.8774              1487.9411              1501.1321
 Red. masses --      1.0491                 1.0509                 1.0439
 Frc consts  --      1.3647                 1.3709                 1.3860
 IR Inten    --      6.3659                 4.8855                 5.6314

                     25                     26                     27
                      A                      A                      A
 Frequencies --   1505.9609              1521.7632              1526.5336
 Red. masses --      1.0458                 1.0538                 1.0595
 Frc consts  --      1.3974                 1.4378                 1.4547
 IR Inten    --      0.4242                17.4810                 1.5951

                     28                     29                     30
                      A                      A                      A
 Frequencies --   2987.2528              2994.0488              3010.8329
 Red. masses --      1.0499                 1.0503                 1.0320
 Frc consts  --      5.5198                 5.5474                 5.5118
 IR Inten    --     31.7176               100.1963                49.5529

                     31                     32                     33
                      A                      A                      A
 Frequencies --   3070.8989              3089.7485              3095.2702
 Red. masses --      1.1064                 1.0855                 1.0833
 Frc consts  --      6.1472                 6.1054                 6.1151
 IR Inten    --     51.7310                 9.3605                46.5634

                     34                     35                     36
                      A                      A                      A
 Frequencies --   3120.6648              3134.7180              3137.7443
 Red. masses --      1.1016                 1.1025                 1.1037
 Frc consts  --      6.3206                 6.3829                 6.4023
 IR Inten    --     32.2851                20.9077                29.1213

 - Thermochemistry -
 -------------------
 Temperature   298.150 Kelvin.  Pressure   1.00000 Atm.
 Atom     1 has atomic number  6 and mass  12.00000

 Molecular mass:    75.06841 amu.
 Principal axes and moments of inertia in atomic units:
                           1         2         3
     Eigenvalues --   227.63276 458.58024 600.41115
           X            0.99980   0.00000  -0.01988
           Y           -0.00000   1.00000   0.00000
           Z            0.01988  -0.00000   0.99980
 This molecule is an asymmetric top.
 Rotational symmetry number  1.
 Rotational temperatures (Kelvin)      0.38050     0.18887     0.14426
 Rotational constants (GHZ):           7.92830     3.93550     3.00584
 Zero-point vibrational energy     326337.4 (Joules/Mol)
                                   77.99652 (Kcal/Mol)
 Warning -- explicit consideration of   8 degrees of freedom as
           vibrations may cause significant error
 Vibrational temperatures:     78.17   291.01   362.81   370.69   462.85
          (Kelvin)            575.31   652.07   729.14  1141.29  1377.30
                             1464.68  1556.90  1605.21  1699.78  1704.96
                             1768.82  1793.56  1802.70  2072.93  2105.24
                             2122.81  2137.84  2140.81  2159.79  2166.74
                             2189.48  2196.34  4297.99  4307.76  4331.91
                             4418.33  4445.45  4453.40  4489.94  4510.15
                             4514.51

 Zero-point correction=                           0.124295 (Hartree/Particle)
 Thermal correction to Energy=                    0.130987
 Thermal correction to Enthalpy=                  0.131931
 Thermal correction to Gibbs Free Energy=         0.094302
 Sum of electronic and zero-point Energies=           -249.529809
 Sum of electronic and thermal Energies=              -249.523118
 Sum of electronic and thermal Enthalpies=            -249.522174
 Sum of electronic and thermal Free Energies=         -249.559803

                     E (Thermal)             CV                S
                      KCal/Mol        Cal/Mol-Kelvin    Cal/Mol-Kelvin
 Total                   82.195             22.653             79.196
 Electronic               0.000              0.000              0.000
 Translational            0.889              2.981             38.863
 Rotational               0.889              2.981             25.642
 Vibrational             80.418             16.692             14.691
 Vibration     1          0.596              1.976              4.653
 Vibration     2          0.639              1.837              2.112
 Vibration     3          0.664              1.759              1.715
 Vibration     4          0.667              1.750              1.678
 Vibration     5          0.707              1.632              1.301
 Vibration     6          0.766              1.470              0.963
 Vibration     7          0.812              1.354              0.786
 Vibration     8          0.862              1.235              0.641

 Optimization completed.
    -- Stationary point found.
 Normal termination of Gaussian 09 at Thu Sep  8 15:10:06 2022.
