 Gaussian 09, Revision D.01,
 Gaussian 09:  ES64L-G09RevD.01 24-Apr-2013

 -------------------------
 #P OPT Freq B3LYP/6-31G**
 -------------------------

 -------
 Frag_71
 -------
 Symbolic Z-matrix:
 Charge =  0 Multiplicity = 1

 SCF Done:  E(RB3LYP) =  -230.269578619     A.U. after   12 cycles
 Optimization completed.
    -- Stationary point found.

 1\1\GINC-FN13\FOpt\RB3LYP\6-31G(d,p)\C2H6O2\LIUJ201281\23-Jul-2021\0\\
 #P OPT Freq B3LYP/6-31G**\\Frag_71\\0,1\C,1.3823,-0.1889,-0.1075\C,-0.
 0579,-0.0119,0.3722\O,-0.8863,-1.0636,-0.0317\O,-0.6267,1.1898,-0.134\
 H,2.0312,0.6125,0.2655\H,1.4151,-0.1766,-1.2028\H,1.783,-1.1423,0.2462
 \H,-0.0966,-0.0252,1.4718\H,-1.0036,-0.9685,-0.9887\H,0.0286,1.8954,-0
 .0547\\Version=ES64L-G09RevD.01\State=1-A\HF=-230.2695786\RMSD=5.264e-
 09\RMSF=2.504e-05\Dipole=0.8507739,0.3918119,-0.2360377\Quadrupole=-1.
 5517888,0.2349523,1.3168365,1.0217178,1.0750863,1.3659172\PG=C01 [X(C2

 Normal termination of Gaussian 09 at Fri Jul 23 17:21:48 2021.

 ----------------------------------------------------------------------
 #P Geom=AllCheck Guess=TCheck SCRF=Check GenChk RB3LYP/6-31G(d,p) Freq
 ----------------------------------------------------------------------

 Structure from the checkpoint file:  "/vol2/users/liuj201281/HOFBenchmark/IsodesmicSplit/Sample60/Ring26/Running/Gau-261547.chk"
 -------
 Frag_71
 -------
 Charge =  0 Multiplicity = 1

                         Standard orientation:
 ---------------------------------------------------------------------
 Center     Atomic      Atomic             Coordinates (Angstroms)
 Number     Number       Type             X           Y           Z
 ---------------------------------------------------------------------
      1          6           0        1.382309   -0.188814   -0.107497
      2          6           0       -0.057902   -0.011907    0.372203
      3          8           0       -0.886234   -1.063660   -0.031697
      4          8           0       -0.626780    1.189757   -0.133997
      5          1           0        2.031157    0.612628    0.265503
      6          1           0        1.415108   -0.176511   -1.202797
      7          1           0        1.783071   -1.142188    0.246203
      8          1           0       -0.096601   -0.025209    1.471803
      9          1           0       -1.003540   -0.968568   -0.988697
     10          1           0        0.028474    1.895399   -0.054697
 ---------------------------------------------------------------------

 SCF Done:  E(RB3LYP) =  -230.269578619     A.U. after    1 cycles

 The electronic state is 1-A.
 Alpha  occ. eigenvalues --  -19.14831 -19.14553 -10.28359 -10.18415  -1.05721
 Alpha  occ. eigenvalues --   -0.98901  -0.74119  -0.62909  -0.53099  -0.48184
 Alpha  occ. eigenvalues --   -0.46288  -0.41720  -0.38732  -0.35239  -0.34469
 Alpha  occ. eigenvalues --   -0.29724  -0.26473
 Alpha virt. eigenvalues --    0.06850   0.09992   0.13716   0.14360   0.15671
 Alpha virt. eigenvalues --    0.17487   0.21783   0.24241   0.26920   0.52547
 Alpha virt. eigenvalues --    0.54962   0.56271   0.58006   0.62237   0.67698

 Mulliken charges:
               1
     1  C   -0.346833
     2  C    0.381864
     3  O   -0.516526
     4  O   -0.539896
     5  H    0.094655
     6  H    0.106656
     7  H    0.123337
     8  H    0.088433
     9  H    0.304588
    10  H    0.303723
 Sum of Mulliken charges =   0.00000

 Dipole moment (field-independent basis, Debye):
    X=              2.1624    Y=              0.9960    Z=             -0.5999  Tot=              2.4552
 Quadrupole moment (field-independent basis, Debye-Ang):
   XX=            -26.5683   YY=            -24.1647   ZZ=            -22.7097
   XY=              1.3741   XZ=              1.4459   YZ=              1.8373

  Exact polarizability:  29.739   1.602  31.349   1.428   0.239  28.926
 Approx polarizability:  37.689   2.987  42.547   2.696  -0.452  39.414

                      1                      2                      3
                      A                      A                      A
 Frequencies --    194.7365               268.8384               309.5693
 Red. masses --      1.0641                 1.0671                 1.1377
 Frc consts  --      0.0238                 0.0454                 0.0642
 IR Inten    --     74.6709                 1.9766               146.9114

                      4                      5                      6
                      A                      A                      A
 Frequencies --    395.5204               487.2086               556.4488
 Red. masses --      2.6344                 3.2137                 2.8511
 Frc consts  --      0.2428                 0.4495                 0.5201
 IR Inten    --      4.5176                30.5241                12.6617

                      7                      8                      9
                      A                      A                      A
 Frequencies --    856.7970               964.0602              1073.8910
 Red. masses --      2.5511                 1.8867                 1.5322
 Frc consts  --      1.1034                 1.0331                 1.0411
 IR Inten    --      6.2955                28.6987                22.2011

                     10                     11                     12
                      A                      A                      A
 Frequencies --   1077.1584              1134.1622              1250.8096
 Red. masses --      2.3967                 2.4569                 1.2558
 Frc consts  --      1.6384                 1.8620                 1.1576
 IR Inten    --     99.4102               159.6012                74.3612

                     13                     14                     15
                      A                      A                      A
 Frequencies --   1361.6855              1389.3371              1421.3780
 Red. masses --      1.3928                 1.3482                 1.2946
 Frc consts  --      1.5216                 1.5333                 1.5410
 IR Inten    --      7.7759                52.4394                22.6595

                     16                     17                     18
                      A                      A                      A
 Frequencies --   1454.7575              1504.6725              1509.8190
 Red. masses --      1.2960                 1.0742                 1.0597
 Frc consts  --      1.6160                 1.4329                 1.4232
 IR Inten    --     79.4160                 6.5089                 5.5022

                     19                     20                     21
                      A                      A                      A
 Frequencies --   3015.2821              3037.3164              3107.2814
 Red. masses --      1.0860                 1.0375                 1.1017
 Frc consts  --      5.8175                 5.6393                 6.2674
 IR Inten    --     62.2269                12.5006                36.5578

                     22                     23                     24
                      A                      A                      A
 Frequencies --   3137.1473              3783.8837              3820.6152
 Red. masses --      1.1014                 1.0651                 1.0659
 Frc consts  --      6.3866                 8.9846                 9.1668
 IR Inten    --     21.1960                16.3490                13.3923

 - Thermochemistry -
 -------------------
 Temperature   298.150 Kelvin.  Pressure   1.00000 Atm.
 Atom     1 has atomic number  6 and mass  12.00000

 Molecular mass:    62.03678 amu.
 Principal axes and moments of inertia in atomic units:
                           1         2         3
     Eigenvalues --   193.98726 209.95281 355.05583
           X            1.00000  -0.00044   0.00235
           Y            0.00039   0.99975   0.02220
           Z           -0.00236  -0.02220   0.99975
 This molecule is an asymmetric top.
 Rotational symmetry number  1.
 Rotational temperatures (Kelvin)      0.44649     0.41254     0.24394
 Rotational constants (GHZ):           9.30340     8.59594     5.08298
 Zero-point vibrational energy     221981.3 (Joules/Mol)
                                   53.05480 (Kcal/Mol)
 Warning -- explicit consideration of   6 degrees of freedom as
           vibrations may cause significant error
 Vibrational temperatures:    280.18   386.80   445.40   569.06   700.98
          (Kelvin)            800.60  1232.74  1387.07  1545.09  1549.79
                             1631.80  1799.63  1959.16  1998.94  2045.04
                             2093.07  2164.89  2172.29  4338.31  4370.02
                             4470.68  4513.65  5444.16  5497.01

 Zero-point correction=                           0.084548 (Hartree/Particle)
 Thermal correction to Energy=                    0.089787
 Thermal correction to Enthalpy=                  0.090731
 Thermal correction to Gibbs Free Energy=         0.057270
 Sum of electronic and zero-point Energies=           -230.185030
 Sum of electronic and thermal Energies=              -230.179792
 Sum of electronic and thermal Enthalpies=            -230.178848
 Sum of electronic and thermal Free Energies=         -230.212308

                     E (Thermal)             CV                S
                      KCal/Mol        Cal/Mol-Kelvin    Cal/Mol-Kelvin
 Total                   56.342             17.651             70.424
 Electronic               0.000              0.000              0.000
 Translational            0.889              2.981             38.295
 Rotational               0.889              2.981             24.184
 Vibrational             54.565             11.689              7.944
 Vibration     1          0.635              1.847              2.182
 Vibration     2          0.673              1.730              1.604
 Vibration     3          0.699              1.655              1.365
 Vibration     4          0.762              1.480              0.979
 Vibration     5          0.843              1.278              0.691
 Vibration     6          0.912              1.126              0.531

 Optimization completed.
    -- Stationary point found.

 1\1\GINC-FN13\Freq\RB3LYP\6-31G(d,p)\C2H6O2\LIUJ201281\23-Jul-2021\0\\
 #P Geom=AllCheck Guess=TCheck SCRF=Check GenChk RB3LYP/6-31G(d,p) Freq
 \\Frag_71\\0,1\C,1.3823,-0.1889,-0.1075\C,-0.0579,-0.0119,0.3722\O,-0.
 8863,-1.0636,-0.0317\O,-0.6267,1.1898,-0.134\H,2.0312,0.6125,0.2655\H,
 1.4151,-0.1766,-1.2028\H,1.783,-1.1423,0.2462\H,-0.0966,-0.0252,1.4718
 \H,-1.0036,-0.9685,-0.9887\H,0.0286,1.8954,-0.0547\\Version=ES64L-G09R
 evD.01\State=1-A\HF=-230.2695786\RMSD=1.965e-09\RMSF=2.505e-05\ZeroPoi
 nt=0.0845482\Thermal=0.0897867\Dipole=0.8507736,0.3918117,-0.2360379\D

 Normal termination of Gaussian 09 at Fri Jul 23 17:22:08 2021.
