 Gaussian 09, Revision E.01,
 Gaussian 09:  ES64L-G09RevE.01 30-Nov-2015

 --------------------------------
 #P OPT=calcfc Freq B3LYP/6-31G**
 --------------------------------

 --------
 Frag_277
 --------
 Symbolic Z-matrix:
 Charge =  0 Multiplicity = 1

 SCF Done:  E(RB3LYP) =  -189.309009570     A.U. after   14 cycles
 SCF Done:  E(RB3LYP) =  -189.319831355     A.U. after   13 cycles
 SCF Done:  E(RB3LYP) =  -189.317104417     A.U. after   13 cycles
 SCF Done:  E(RB3LYP) =  -189.320200209     A.U. after   10 cycles
 SCF Done:  E(RB3LYP) =  -189.321325096     A.U. after   13 cycles
 SCF Done:  E(RB3LYP) =  -189.322354190     A.U. after   11 cycles
 SCF Done:  E(RB3LYP) =  -189.322645046     A.U. after   11 cycles
 SCF Done:  E(RB3LYP) =  -189.322832896     A.U. after   11 cycles
 SCF Done:  E(RB3LYP) =  -189.322878944     A.U. after   10 cycles
 SCF Done:  E(RB3LYP) =  -189.322889494     A.U. after    9 cycles
 SCF Done:  E(RB3LYP) =  -189.322890808     A.U. after    8 cycles
 SCF Done:  E(RB3LYP) =  -189.322891167     A.U. after    8 cycles
 Optimization completed.
    -- Stationary point found.
 Normal termination of Gaussian 09 at Sat Aug 21 02:20:40 2021.

 ----------------------------------------------------------------------
 #P Geom=AllCheck Guess=TCheck SCRF=Check GenChk RB3LYP/6-31G(d,p) Freq
 ----------------------------------------------------------------------

 Structure from the checkpoint file:  "/public/home/users/caep010/.cache/gau_scr/Gau-53021.chk"
 --------
 Frag_277
 --------
 Charge =  0 Multiplicity = 1

                         Standard orientation:
 ---------------------------------------------------------------------
 Center     Atomic      Atomic             Coordinates (Angstroms)
 Number     Number       Type             X           Y           Z
 ---------------------------------------------------------------------
      1          6           0        1.806113    0.065959   -0.000976
      2          7           0        0.466519   -0.485382    0.022724
      3          6           0       -0.505868    0.334207   -0.000884
      4          7           0       -1.822487   -0.072908   -0.079600
      5          1           0        2.372974   -0.294088    0.866361
      6          1           0        2.340567   -0.283163   -0.893361
      7          1           0        1.839795    1.169273    0.003042
      8          1           0       -0.385854    1.429109   -0.013059
      9          1           0       -1.965861   -1.055335    0.116431
     10          1           0       -2.511316    0.541238    0.329880
 ---------------------------------------------------------------------

 SCF Done:  E(RB3LYP) =  -189.322891167     A.U. after    1 cycles

 The electronic state is 1-A.
 Alpha  occ. eigenvalues --  -14.34322 -14.29774 -10.24553 -10.19447  -0.93719
 Alpha  occ. eigenvalues --   -0.86064  -0.68184  -0.58576  -0.52541  -0.46592
 Alpha  occ. eigenvalues --   -0.43082  -0.41709  -0.37942  -0.34478  -0.24103
 Alpha  occ. eigenvalues --   -0.22525
 Alpha virt. eigenvalues --    0.03955   0.08700   0.11110   0.13877   0.17263
 Alpha virt. eigenvalues --    0.18422   0.18789   0.21617   0.31572   0.39080
 Alpha virt. eigenvalues --    0.50949   0.55479   0.58187   0.58705   0.63559

 Mulliken charges:
               1
     1  C   -0.173710
     2  N   -0.414707
     3  C    0.281999
     4  N   -0.587596
     5  H    0.109266
     6  H    0.111482
     7  H    0.074197
     8  H    0.071235
     9  H    0.267857
    10  H    0.259976
 Sum of Mulliken charges =  -0.00000

 Dipole moment (field-independent basis, Debye):
    X=             -1.3584    Y=              1.3529    Z=              0.9050  Tot=              2.1200
 Quadrupole moment (field-independent basis, Debye-Ang):
   XX=            -19.3626   YY=            -24.5483   ZZ=            -26.2848
   XY=              0.4597   XZ=             -2.4898   YZ=              0.1428

  Exact polarizability:  55.834  -2.729  34.452  -0.443   0.103  22.035
 Approx polarizability:  75.269  -9.522  51.593   0.702  -0.051  30.043

                      1                      2                      3
                      A                      A                      A
 Frequencies --    201.1608               271.9220               322.9614
 Red. masses --      1.3487                 1.9603                 2.4359
 Frc consts  --      0.0322                 0.0854                 0.1497
 IR Inten    --      7.7198                 7.4452                23.8042

                      4                      5                      6
                      A                      A                      A
 Frequencies --    430.1519               573.7116               623.7574
 Red. masses --      1.1966                 3.1581                 1.3961
 Frc consts  --      0.1305                 0.6124                 0.3200
 IR Inten    --    127.0215                26.5189               200.4481

                      7                      8                      9
                      A                      A                      A
 Frequencies --    963.8096              1001.8642              1141.7489
 Red. masses --      1.9678                 1.5699                 1.3567
 Frc consts  --      1.0770                 0.9284                 1.0420
 IR Inten    --     20.3705                 9.4954                 1.0258

                     10                     11                     12
                      A                      A                      A
 Frequencies --   1152.1345              1165.2808              1296.7528
 Red. masses --      1.5427                 1.8603                 2.3995
 Frc consts  --      1.2065                 1.4883                 2.3773
 IR Inten    --      3.5653                 7.2004                65.1255

                     13                     14                     15
                      A                      A                      A
 Frequencies --   1412.5254              1462.9968              1494.1386
 Red. masses --      1.3382                 1.1968                 1.0438
 Frc consts  --      1.5731                 1.5092                 1.3729
 IR Inten    --      4.3503                33.2342                 1.8902

                     16                     17                     18
                      A                      A                      A
 Frequencies --   1520.0310              1633.9690              1781.1227
 Red. masses --      1.0524                 1.1946                 6.1997
 Frc consts  --      1.4327                 1.8792                11.5881
 IR Inten    --      9.2921                42.2122               309.2578

                     19                     20                     21
                      A                      A                      A
 Frequencies --   2964.0113              3015.5932              3055.8558
 Red. masses --      1.0504                 1.0862                 1.0833
 Frc consts  --      5.4368                 5.8199                 5.9605
 IR Inten    --     80.6969                74.8569                54.9475

                     22                     23                     24
                      A                      A                      A
 Frequencies --   3075.0507              3568.8668              3693.3658
 Red. masses --      1.1022                 1.0468                 1.1000
 Frc consts  --      6.1406                 7.8557                 8.8406
 IR Inten    --     37.8349                17.5647                18.7718

 - Thermochemistry -
 -------------------
 Temperature   298.150 Kelvin.  Pressure   1.00000 Atm.
 Atom     1 has atomic number  6 and mass  12.00000

 Molecular mass:    58.05310 amu.
 Principal axes and moments of inertia in atomic units:
                           1         2         3
     Eigenvalues --    41.09503 423.24204 451.71382
           X            0.99991   0.00931  -0.00919
           Y           -0.00926   0.99994   0.00499
           Z            0.00924  -0.00490   0.99995
 This molecule is an asymmetric top.
 Rotational symmetry number  1.
 Rotational temperatures (Kelvin)      2.10765     0.20464     0.19174
 Rotational constants (GHZ):          43.91629     4.26409     3.99532
 Zero-point vibrational energy     226230.5 (Joules/Mol)
                                   54.07038 (Kcal/Mol)
 Warning -- explicit consideration of   5 degrees of freedom as
           vibrations may cause significant error
 Vibrational temperatures:    289.43   391.23   464.67   618.89   825.44
          (Kelvin)            897.45  1386.71  1441.46  1642.72  1657.66
                             1676.58  1865.74  2032.31  2104.92  2149.73
                             2186.98  2350.91  2562.64  4264.55  4338.76
                             4396.69  4424.31  5134.80  5313.92

 Zero-point correction=                           0.086167 (Hartree/Particle)
 Thermal correction to Energy=                    0.091188
 Thermal correction to Enthalpy=                  0.092132
 Thermal correction to Gibbs Free Energy=         0.059402
 Sum of electronic and zero-point Energies=           -189.236725
 Sum of electronic and thermal Energies=              -189.231703
 Sum of electronic and thermal Enthalpies=            -189.230759
 Sum of electronic and thermal Free Energies=         -189.263489

                     E (Thermal)             CV                S
                      KCal/Mol        Cal/Mol-Kelvin    Cal/Mol-Kelvin
 Total                   57.221             16.693             68.886
 Electronic               0.000              0.000              0.000
 Translational            0.889              2.981             38.097
 Rotational               0.889              2.981             23.578
 Vibrational             55.444             10.731              7.211
 Vibration     1          0.638              1.838              2.122
 Vibration     2          0.675              1.725              1.584
 Vibration     3          0.708              1.629              1.295
 Vibration     4          0.791              1.405              0.858
 Vibration     5          0.930              1.088              0.497

 Optimization completed.
    -- Stationary point found.
 Normal termination of Gaussian 09 at Sat Aug 21 02:20:46 2021.
