 Gaussian 09, Revision E.01,
 Gaussian 09:  ES64L-G09RevE.01 30-Nov-2015

 -------------------------
 #P OPT Freq B3LYP/6-31G**
 -------------------------

 --------
 Frag_223
 --------
 Symbolic Z-matrix:
 Charge =  0 Multiplicity = 1

 SCF Done:  E(RB3LYP) =  -271.757836590     A.U. after   12 cycles
 SCF Done:  E(RB3LYP) =  -271.761326361     A.U. after   12 cycles
 SCF Done:  E(RB3LYP) =  -271.761561470     A.U. after   11 cycles
 SCF Done:  E(RB3LYP) =  -271.761591051     A.U. after   10 cycles
 SCF Done:  E(RB3LYP) =  -271.761599543     A.U. after    8 cycles
 SCF Done:  E(RB3LYP) =  -271.761646617     A.U. after   11 cycles
 SCF Done:  E(RB3LYP) =  -271.758619678     A.U. after   14 cycles
 SCF Done:  E(RB3LYP) =  -271.761769260     A.U. after   11 cycles
 SCF Done:  E(RB3LYP) =  -271.761379311     A.U. after   13 cycles
 SCF Done:  E(RB3LYP) =  -271.761820604     A.U. after   10 cycles
 SCF Done:  E(RB3LYP) =  -271.764141530     A.U. after   11 cycles
 SCF Done:  E(RB3LYP) =  -271.764332819     A.U. after   12 cycles
 SCF Done:  E(RB3LYP) =  -271.764552188     A.U. after   11 cycles
 SCF Done:  E(RB3LYP) =  -271.764701578     A.U. after   11 cycles
 SCF Done:  E(RB3LYP) =  -271.764958295     A.U. after   12 cycles
 SCF Done:  E(RB3LYP) =  -271.765053970     A.U. after   12 cycles
 SCF Done:  E(RB3LYP) =  -271.765069547     A.U. after   10 cycles
 SCF Done:  E(RB3LYP) =  -271.765071604     A.U. after    8 cycles
 SCF Done:  E(RB3LYP) =  -271.765071448     A.U. after    8 cycles
 Optimization completed.
    -- Stationary point found.
 Normal termination of Gaussian 09 at Sat Aug 21 01:37:16 2021.

 ----------------------------------------------------------------------
 #P Geom=AllCheck Guess=TCheck SCRF=Check GenChk RB3LYP/6-31G(d,p) Freq
 ----------------------------------------------------------------------

 Structure from the checkpoint file:  "/public/home/users/caep010/.cache/gau_scr/Gau-73961.chk"
 --------
 Frag_223
 --------
 Charge =  0 Multiplicity = 1

                         Standard orientation:
 ---------------------------------------------------------------------
 Center     Atomic      Atomic             Coordinates (Angstroms)
 Number     Number       Type             X           Y           Z
 ---------------------------------------------------------------------
      1          6           0        1.710211   -1.024986   -0.400793
      2          6           0        0.804318   -0.103201   -0.063670
      3          6           0        1.176508    1.202618    0.590073
      4          6           0       -0.671893   -0.347890   -0.321785
      5          6           0       -1.446854   -0.668975    0.963972
      6          8           0       -1.195931    0.826802   -0.950667
      7          1           0        1.427819   -1.950615   -0.895262
      8          1           0        2.767533   -0.887857   -0.192573
      9          1           0        2.258035    1.280288    0.727244
     10          1           0        0.700623    1.314651    1.571893
     11          1           0        0.834899    2.043376   -0.021334
     12          1           0       -0.759731   -1.209722   -1.002040
     13          1           0       -1.046754   -1.565296    1.447167
     14          1           0       -1.394593    0.163697    1.671336
     15          1           0       -2.504389   -0.854207    0.737710
     16          1           0       -2.149737    0.705870   -1.045575
 ---------------------------------------------------------------------

 SCF Done:  E(RB3LYP) =  -271.765071448     A.U. after    1 cycles

 The electronic state is 1-A.
 Alpha  occ. eigenvalues --  -19.14057 -10.23669 -10.18921 -10.17998 -10.17232
 Alpha  occ. eigenvalues --  -10.16979  -1.01391  -0.80060  -0.73053  -0.67915
 Alpha  occ. eigenvalues --   -0.62769  -0.51980  -0.50245  -0.45823  -0.44397
 Alpha  occ. eigenvalues --   -0.41257  -0.40332  -0.38853  -0.37518  -0.35894
 Alpha  occ. eigenvalues --   -0.34969  -0.31507  -0.26751  -0.24306
 Alpha virt. eigenvalues --    0.02392   0.07409   0.11199   0.12753   0.14346
 Alpha virt. eigenvalues --    0.15561   0.16446   0.17335   0.18558   0.20342
 Alpha virt. eigenvalues --    0.22120   0.23028   0.24800   0.26270   0.32189

 Mulliken charges:
               1
     1  C   -0.289085
     2  C    0.177193
     3  C   -0.362951
     4  C    0.121533
     5  C   -0.328816
     6  O   -0.544066
     7  H    0.086872
     8  H    0.089366
     9  H    0.102712
    10  H    0.107812
    11  H    0.140847
    12  H    0.075610
    13  H    0.112357
    14  H    0.116107
    15  H    0.091881
    16  H    0.302631
 Sum of Mulliken charges =  -0.00000

 Dipole moment (field-independent basis, Debye):
    X=             -1.1906    Y=             -0.7927    Z=              0.6266  Tot=              1.5616
 Quadrupole moment (field-independent basis, Debye-Ang):
   XX=            -33.0470   YY=            -38.6035   ZZ=            -39.5516
   XY=              0.6555   XZ=              1.3201   YZ=              1.7432

  Exact polarizability:  67.430  -5.643  58.295  -1.368   5.850  45.142
 Approx polarizability:  89.435 -13.625  85.024  -2.452   8.881  62.556

                      1                      2                      3
                      A                      A                      A
 Frequencies --     60.8402               181.2127               234.0439
 Red. masses --      2.7060                 1.0821                 1.9731
 Frc consts  --      0.0059                 0.0209                 0.0637
 IR Inten    --      1.1766                 0.2141                11.3731

                      4                      5                      6
                      A                      A                      A
 Frequencies --    250.7962               272.8912               287.2845
 Red. masses --      1.3408                 1.2194                 2.0056
 Frc consts  --      0.0497                 0.0535                 0.0975
 IR Inten    --      3.8659                69.4111                33.0098

                      7                      8                      9
                      A                      A                      A
 Frequencies --    367.0599               447.7078               551.7122
 Red. masses --      2.9569                 2.1915                 2.3158
 Frc consts  --      0.2347                 0.2588                 0.4153
 IR Inten    --      6.6817                 3.2406                 6.7285

                     10                     11                     12
                      A                      A                      A
 Frequencies --    568.3568               740.1533               761.8186
 Red. masses --      3.2556                 1.1280                 2.6033
 Frc consts  --      0.6196                 0.3641                 0.8902
 IR Inten    --      3.6822                 1.1155                 1.5596

                     13                     14                     15
                      A                      A                      A
 Frequencies --    907.3269               928.5248               967.2822
 Red. masses --      2.1447                 1.3499                 1.7849
 Frc consts  --      1.0403                 0.6857                 0.9839
 IR Inten    --     14.1212                33.2869                14.6684

                     16                     17                     18
                      A                      A                      A
 Frequencies --   1010.1237              1048.6604              1069.3880
 Red. masses --      1.3004                 1.7179                 1.5880
 Frc consts  --      0.7818                 1.1131                 1.0700
 IR Inten    --      4.3011                11.9041                15.0399

                     19                     20                     21
                      A                      A                      A
 Frequencies --   1107.5599              1135.6906              1229.4138
 Red. masses --      2.1139                 2.3751                 1.2692
 Frc consts  --      1.5278                 1.8049                 1.1303
 IR Inten    --     27.2790                57.5314                55.5893

                     22                     23                     24
                      A                      A                      A
 Frequencies --   1322.6049              1366.5657              1409.8575
 Red. masses --      1.7945                 1.2458                 1.4410
 Frc consts  --      1.8495                 1.3708                 1.6876
 IR Inten    --      2.5854                17.7342                17.0292

                     25                     26                     27
                      A                      A                      A
 Frequencies --   1417.5270              1420.6079              1466.5318
 Red. masses --      1.3008                 1.2961                 1.1924
 Frc consts  --      1.5400                 1.5411                 1.5110
 IR Inten    --      2.0945                 4.2503                 2.1162

                     28                     29                     30
                      A                      A                      A
 Frequencies --   1489.1491              1508.0995              1510.7066
 Red. masses --      1.0474                 1.0488                 1.0509
 Frc consts  --      1.3685                 1.4054                 1.4131
 IR Inten    --      7.2257                 5.8524                10.6226

                     31                     32                     33
                      A                      A                      A
 Frequencies --   1515.3732              1735.9622              2987.4253
 Red. masses --      1.1047                 5.1850                 1.0846
 Frc consts  --      1.4946                 9.2062                 5.7030
 IR Inten    --      3.0056                 8.2122                49.6279

                     34                     35                     36
                      A                      A                      A
 Frequencies --   3036.0317              3040.9983              3101.3495
 Red. masses --      1.0398                 1.0404                 1.0944
 Frc consts  --      5.6468                 5.6685                 6.2021
 IR Inten    --     22.2167                22.5186                21.9410

                     37                     38                     39
                      A                      A                      A
 Frequencies --   3107.5319              3134.1639              3135.6064
 Red. masses --      1.0964                 1.1033                 1.1032
 Frc consts  --      6.2380                 6.3855                 6.3904
 IR Inten    --     29.0230                15.8038                24.0121

                     40                     41                     42
                      A                      A                      A
 Frequencies --   3149.5648              3231.5878              3813.4070
 Red. masses --      1.0608                 1.1157                 1.0663
 Frc consts  --      6.1996                 6.8648                 9.1358
 IR Inten    --      9.5887                19.3589                 9.9592

 - Thermochemistry -
 -------------------
 Temperature   298.150 Kelvin.  Pressure   1.00000 Atm.
 Atom     1 has atomic number  6 and mass  12.00000

 Molecular mass:    86.07317 amu.
 Principal axes and moments of inertia in atomic units:
                           1         2         3
     Eigenvalues --   390.92414 670.61105 747.24049
           X            0.99897   0.04326  -0.01347
           Y           -0.04129   0.99163   0.12234
           Z            0.01865  -0.12166   0.99240
 This molecule is an asymmetric top.
 Rotational symmetry number  1.
 Rotational temperatures (Kelvin)      0.22156     0.12916     0.11591
 Rotational constants (GHZ):           4.61660     2.69119     2.41521
 Zero-point vibrational energy     371012.8 (Joules/Mol)
                                   88.67419 (Kcal/Mol)
 Warning -- explicit consideration of  10 degrees of freedom as
           vibrations may cause significant error
 Vibrational temperatures:     87.54   260.72   336.74   360.84   392.63
          (Kelvin)            413.34   528.12   644.15   793.79   817.74
                             1064.91  1096.09  1305.44  1335.94  1391.70
                             1453.34  1508.79  1538.61  1593.53  1634.00
                             1768.85  1902.93  1966.18  2028.47  2039.50
                             2043.94  2110.01  2142.55  2169.82  2173.57
                             2180.28  2497.66  4298.23  4368.17  4375.31
                             4462.14  4471.04  4509.36  4511.43  4531.52
                             4649.53  5486.64

 Zero-point correction=                           0.141311 (Hartree/Particle)
 Thermal correction to Energy=                    0.148960
 Thermal correction to Enthalpy=                  0.149904
 Thermal correction to Gibbs Free Energy=         0.110092
 Sum of electronic and zero-point Energies=           -271.623760
 Sum of electronic and thermal Energies=              -271.616111
 Sum of electronic and thermal Enthalpies=            -271.615167
 Sum of electronic and thermal Free Energies=         -271.654979

                     E (Thermal)             CV                S
                      KCal/Mol        Cal/Mol-Kelvin    Cal/Mol-Kelvin
 Total                   93.474             27.428             83.791
 Electronic               0.000              0.000              0.000
 Translational            0.889              2.981             39.271
 Rotational               0.889              2.981             26.774
 Vibrational             91.696             21.467             17.747
 Vibration     1          0.597              1.973              4.430
 Vibration     2          0.630              1.865              2.316
 Vibration     3          0.654              1.789              1.848
 Vibration     4          0.663              1.761              1.725
 Vibration     5          0.676              1.723              1.578
 Vibration     6          0.684              1.697              1.490
 Vibration     7          0.740              1.540              1.092
 Vibration     8          0.807              1.366              0.803
 Vibration     9          0.907              1.136              0.541
 Vibration    10          0.924              1.100              0.507

 Normal termination of Gaussian 09 at Sat Aug 21 01:37:28 2021.
