 Gaussian 09, Revision E.01,
 Gaussian 09:  ES64L-G09RevE.01 30-Nov-2015

 ----------------------------
 #P OPT Freq B3LYP/6-31G(d,p)
 ----------------------------

 ---------
 Frag_1124
 ---------
 Symbolic Z-matrix:
 Charge =  0 Multiplicity = 1

 SCF Done:  E(RB3LYP) =  -284.395711858     A.U. after   13 cycles
 SCF Done:  E(RB3LYP) =  -284.395779794     A.U. after   10 cycles
 SCF Done:  E(RB3LYP) =  -284.395787863     A.U. after    9 cycles
 SCF Done:  E(RB3LYP) =  -284.395791459     A.U. after    8 cycles
 SCF Done:  E(RB3LYP) =  -284.395794036     A.U. after    9 cycles
 SCF Done:  E(RB3LYP) =  -284.395795060     A.U. after    8 cycles
 Optimization completed.
    -- Stationary point found.
 Normal termination of Gaussian 09 at Thu Sep  8 14:49:18 2022.

 ----------------------------------------------------------------------
 #P Geom=AllCheck Guess=TCheck SCRF=Check GenChk RB3LYP/6-31G(d,p) Freq
 ----------------------------------------------------------------------

 Structure from the checkpoint file:  "B3LYP6-31Gdp.Frag_1124.chk"
 ---------
 Frag_1124
 ---------
 Charge =  0 Multiplicity = 1

                         Standard orientation:
 ---------------------------------------------------------------------
 Center     Atomic      Atomic             Coordinates (Angstroms)
 Number     Number       Type             X           Y           Z
 ---------------------------------------------------------------------
      1          7           0        1.781685    0.096894   -0.248447
      2          6           0        0.856724   -0.616670    0.246395
      3          6           0       -0.522057    0.002836    0.404849
      4          8           0       -1.374183   -0.826387   -0.369939
      5          8           0       -0.535375    1.333970    0.005750
      6          1           0        2.656587   -0.421815   -0.349027
      7          1           0        0.949336   -1.667886    0.540680
      8          1           0       -0.830502   -0.026506    1.463248
      9          1           0       -2.242152   -0.399741   -0.369840
     10          1           0        0.263389    1.460036   -0.539890
 ---------------------------------------------------------------------

 SCF Done:  E(RB3LYP) =  -284.395795060     A.U. after    1 cycles

 The electronic state is 1-A.
 Alpha  occ. eigenvalues --  -19.14977 -19.14351 -14.34673 -10.28789 -10.24954
 Alpha  occ. eigenvalues --   -1.05988  -0.99279  -0.91909  -0.70617  -0.59337
 Alpha  occ. eigenvalues --   -0.53561  -0.52753  -0.48297  -0.44138  -0.39405
 Alpha  occ. eigenvalues --   -0.34128  -0.33811  -0.29542  -0.28441  -0.28208
 Alpha virt. eigenvalues --   -0.02313   0.08158   0.10075   0.12526   0.15120
 Alpha virt. eigenvalues --    0.16905   0.21602   0.25182   0.27260   0.38975
 Alpha virt. eigenvalues --    0.53687   0.54083   0.57357   0.59624   0.64761

 Mulliken charges:
               1
     1  N   -0.498047
     2  C    0.135206
     3  C    0.350813
     4  O   -0.533087
     5  O   -0.540469
     6  H    0.248034
     7  H    0.109500
     8  H    0.090583
     9  H    0.313361
    10  H    0.324106
 Sum of Mulliken charges =  -0.00000

 Dipole moment (field-independent basis, Debye):
    X=              0.7433    Y=             -1.4691    Z=              0.6916  Tot=              1.7858
 Quadrupole moment (field-independent basis, Debye-Ang):
   XX=            -23.0014   YY=            -31.8885   ZZ=            -29.1392
   XY=             -2.5925   XZ=             -0.5504   YZ=             -1.9745

  Exact polarizability:  43.734   1.229  33.530  -4.186  -3.382  25.125
 Approx polarizability:  58.963   6.120  49.952  -8.114  -6.093  36.187

                      1                      2                      3
                      A                      A                      A
 Frequencies --    134.6163               249.9534               311.6171
 Red. masses --      3.8258                 1.1833                 2.5142
 Frc consts  --      0.0408                 0.0436                 0.1438
 IR Inten    --      3.5858                98.3761                60.3302

                      4                      5                      6
                      A                      A                      A
 Frequencies --    375.3212               465.7797               542.3545
 Red. masses --      2.2713                 1.3097                 5.0095
 Frc consts  --      0.1885                 0.1674                 0.8682
 IR Inten    --      8.4729               116.1556                12.6731

                      7                      8                      9
                      A                      A                      A
 Frequencies --    691.8704               803.7908               910.6184
 Red. masses --      2.6697                 2.4834                 2.2360
 Frc consts  --      0.7529                 0.9453                 1.0924
 IR Inten    --     15.1993                27.0491                22.9645

                     10                     11                     12
                      A                      A                      A
 Frequencies --   1068.6179              1111.6007              1113.5582
 Red. masses --      5.6486                 1.4966                 1.7449
 Frc consts  --      3.8005                 1.0896                 1.2748
 IR Inten    --    176.7215                77.3509                80.9337

                     13                     14                     15
                      A                      A                      A
 Frequencies --   1195.0679              1225.5687              1350.7520
 Red. masses --      1.2647                 1.0828                 1.3828
 Frc consts  --      1.0642                 0.9582                 1.4865
 IR Inten    --     48.6552                75.1669                23.5747

                     16                     17                     18
                      A                      A                      A
 Frequencies --   1394.1246              1419.1380              1502.9410
 Red. masses --      1.2218                 1.3324                 1.5546
 Frc consts  --      1.3991                 1.5810                 2.0690
 IR Inten    --      4.8102                67.9936                96.6980

                     19                     20                     21
                      A                      A                      A
 Frequencies --   1747.8832              2985.1862              3088.8831
 Red. masses --      7.2883                 1.0825                 1.0911
 Frc consts  --     13.1190                 5.6835                 6.1337
 IR Inten    --     31.4909                69.1912                35.6325

                     22                     23                     24
                      A                      A                      A
 Frequencies --   3482.5485              3664.0995              3812.3550
 Red. masses --      1.0770                 1.0648                 1.0659
 Frc consts  --      7.6961                 8.4228                 9.1274
 IR Inten    --      0.0374                84.6636                30.1135

 - Thermochemistry -
 -------------------
 Temperature   298.150 Kelvin.  Pressure   1.00000 Atm.
 Atom     1 has atomic number  7 and mass  14.00307

 Molecular mass:    75.03203 amu.
 Principal axes and moments of inertia in atomic units:
                           1         2         3
     Eigenvalues --   207.34809 406.73847 552.01770
           X            0.99963  -0.02563  -0.00906
           Y            0.02530   0.99907  -0.03486
           Z            0.00994   0.03461   0.99935
 This molecule is an asymmetric top.
 Rotational symmetry number  1.
 Rotational temperatures (Kelvin)      0.41772     0.21295     0.15690
 Rotational constants (GHZ):           8.70392     4.43710     3.26935
 Zero-point vibrational energy     207242.5 (Joules/Mol)
                                   49.53215 (Kcal/Mol)
 Warning -- explicit consideration of   6 degrees of freedom as
           vibrations may cause significant error
 Vibrational temperatures:    193.68   359.63   448.35   540.00   670.15
          (Kelvin)            780.33   995.45  1156.47  1310.18  1537.50
                             1599.34  1602.16  1719.43  1763.32  1943.43
                             2005.83  2041.82  2162.39  2514.81  4295.01
                             4444.21  5010.60  5271.82  5485.12

 Zero-point correction=                           0.078935 (Hartree/Particle)
 Thermal correction to Energy=                    0.084493
 Thermal correction to Enthalpy=                  0.085437
 Thermal correction to Gibbs Free Energy=         0.050498
 Sum of electronic and zero-point Energies=           -284.316861
 Sum of electronic and thermal Energies=              -284.311302
 Sum of electronic and thermal Enthalpies=            -284.310358
 Sum of electronic and thermal Free Energies=         -284.345297

                     E (Thermal)             CV                S
                      KCal/Mol        Cal/Mol-Kelvin    Cal/Mol-Kelvin
 Total                   53.020             18.956             73.535
 Electronic               0.000              0.000              0.000
 Translational            0.889              2.981             38.862
 Rotational               0.889              2.981             25.346
 Vibrational             51.242             12.994              9.327
 Vibration     1          0.613              1.919              2.879
 Vibration     2          0.663              1.763              1.731
 Vibration     3          0.700              1.652              1.354
 Vibration     4          0.746              1.523              1.058
 Vibration     5          0.823              1.326              0.749
 Vibration     6          0.897              1.156              0.560

 Optimization completed.
    -- Stationary point found.
 Normal termination of Gaussian 09 at Thu Sep  8 14:49:25 2022.
