 Gaussian 09, Revision E.01,
 Gaussian 09:  ES64L-G09RevE.01 30-Nov-2015

 ----------------------------
 #P OPT Freq B3LYP/6-31G(d,p)
 ----------------------------

 --------
 Frag_908
 --------
 Symbolic Z-matrix:
 Charge =  0 Multiplicity = 1

 SCF Done:  E(RB3LYP) =  -231.184890260     A.U. after   13 cycles
 SCF Done:  E(RB3LYP) =  -231.184998803     A.U. after   11 cycles
 SCF Done:  E(RB3LYP) =  -231.184838928     A.U. after   11 cycles
 SCF Done:  E(RB3LYP) =  -231.184995253     A.U. after   11 cycles
 SCF Done:  E(RB3LYP) =  -231.185012020     A.U. after    9 cycles
 SCF Done:  E(RB3LYP) =  -231.185010725     A.U. after    8 cycles
 SCF Done:  E(RB3LYP) =  -231.185012857     A.U. after    8 cycles
 SCF Done:  E(RB3LYP) =  -231.185013303     A.U. after    8 cycles
 SCF Done:  E(RB3LYP) =  -231.185013413     A.U. after    8 cycles
 Optimization completed.
    -- Stationary point found.
 Normal termination of Gaussian 09 at Thu Sep  8 15:05:42 2022.

 ----------------------------------------------------------------------
 #P Geom=AllCheck Guess=TCheck SCRF=Check GenChk RB3LYP/6-31G(d,p) Freq
 ----------------------------------------------------------------------

 Structure from the checkpoint file:  "B3LYP6-31Gdp.Frag_908.chk"
 --------
 Frag_908
 --------
 Charge =  0 Multiplicity = 1

                         Standard orientation:
 ---------------------------------------------------------------------
 Center     Atomic      Atomic             Coordinates (Angstroms)
 Number     Number       Type             X           Y           Z
 ---------------------------------------------------------------------
      1          6           0        2.206037    0.110036   -0.114027
      2          6           0        1.026865    0.031118    0.137055
      3          6           0       -0.419628   -0.067606    0.396436
      4          6           0       -1.175783    1.146506   -0.160437
      5          8           0       -0.959481   -1.294610   -0.096954
      6          1           0        3.249091    0.173437   -0.322694
      7          1           0       -0.577248   -0.116039    1.480630
      8          1           0       -0.815439    2.075384    0.291446
      9          1           0       -1.036254    1.220437   -1.243982
     10          1           0       -2.242674    1.036149    0.050257
     11          1           0       -0.726566   -1.352806   -1.034190
 ---------------------------------------------------------------------

 SCF Done:  E(RB3LYP) =  -231.185013413     A.U. after    1 cycles

 The electronic state is 1-A.
 Alpha  occ. eigenvalues --  -19.14991 -10.26266 -10.18885 -10.18584 -10.18565
 Alpha  occ. eigenvalues --   -1.02438  -0.78285  -0.72752  -0.64340  -0.55211
 Alpha  occ. eigenvalues --   -0.50406  -0.46857  -0.43963  -0.40019  -0.38084
 Alpha  occ. eigenvalues --   -0.34772  -0.29028  -0.27110  -0.26616
 Alpha virt. eigenvalues --    0.03243   0.04987   0.09485   0.12249   0.12876
 Alpha virt. eigenvalues --    0.14844   0.16702   0.17600   0.23327   0.25308
 Alpha virt. eigenvalues --    0.26672   0.43328   0.47703   0.51806   0.53171

 Mulliken charges:
               1
     1  C   -0.423511
     2  C    0.274780
     3  C    0.048815
     4  C   -0.313962
     5  O   -0.524648
     6  H    0.157258
     7  H    0.133882
     8  H    0.115066
     9  H    0.106760
    10  H    0.120712
    11  H    0.304849
 Sum of Mulliken charges =  -0.00000

 Dipole moment (field-independent basis, Debye):
    X=              0.4280    Y=              1.1147    Z=             -0.9051  Tot=              1.4983
 Quadrupole moment (field-independent basis, Debye-Ang):
   XX=            -27.3314   YY=            -32.2811   ZZ=            -27.9060
   XY=             -1.4810   XZ=             -0.4480   YZ=              2.0101

  Exact polarizability:  58.942   1.071  33.874  -3.725   1.132  32.989
 Approx polarizability:  89.754   5.707  44.933  -9.611   1.386  46.742

                      1                      2                      3
                      A                      A                      A
 Frequencies --    181.3523               211.5624               269.0266
 Red. masses --      3.3443                 2.0168                 1.1648
 Frc consts  --      0.0648                 0.0532                 0.0497
 IR Inten    --      1.1266                 6.9627                 8.2829

                      4                      5                      6
                      A                      A                      A
 Frequencies --    308.0486               396.1403               544.5678
 Red. masses --      1.2507                 3.3593                 4.5906
 Frc consts  --      0.0699                 0.3106                 0.8021
 IR Inten    --    100.2923                15.0610                12.6216

                      7                      8                      9
                      A                      A                      A
 Frequencies --    572.7417               619.8516               656.1079
 Red. masses --      4.4495                 1.2076                 1.2277
 Frc consts  --      0.8600                 0.2734                 0.3114
 IR Inten    --      7.1193                49.8796                39.8775

                     10                     11                     12
                      A                      A                      A
 Frequencies --    803.8729               934.4454              1041.6638
 Red. masses --      2.8612                 2.1071                 1.7500
 Frc consts  --      1.0894                 1.0841                 1.1188
 IR Inten    --      8.1411                11.0427                70.1377

                     13                     14                     15
                      A                      A                      A
 Frequencies --   1095.3878              1131.2018              1285.6773
 Red. masses --      2.8221                 1.8357                 1.3803
 Frc consts  --      1.9951                 1.3840                 1.3443
 IR Inten    --     17.9157                75.9481                 7.9678

                     16                     17                     18
                      A                      A                      A
 Frequencies --   1344.8399              1415.3413              1419.4708
 Red. masses --      1.3459                 1.2454                 1.1895
 Frc consts  --      1.4342                 1.4699                 1.4121
 IR Inten    --     15.4459                 4.7781                63.6268

                     19                     20                     21
                      A                      A                      A
 Frequencies --   1503.7725              1505.7929              2231.2676
 Red. masses --      1.0497                 1.0522                 5.9427
 Frc consts  --      1.3985                 1.4056                17.4317
 IR Inten    --      6.9971                 0.1518                 1.1132

                     22                     23                     24
                      A                      A                      A
 Frequencies --   3049.2160              3058.1412              3125.7835
 Red. masses --      1.0375                 1.0817                 1.1023
 Frc consts  --      5.6834                 5.9603                 6.3453
 IR Inten    --     11.7854                16.3448                27.5563

                     25                     26                     27
                      A                      A                      A
 Frequencies --   3140.6816              3488.2624              3799.5840
 Red. masses --      1.1040                 1.1606                 1.0662
 Frc consts  --      6.4160                 8.3204                 9.0691
 IR Inten    --     20.5568                56.5586                15.7435

 - Thermochemistry -
 -------------------
 Temperature   298.150 Kelvin.  Pressure   1.00000 Atm.
 Atom     1 has atomic number  6 and mass  12.00000

 Molecular mass:    70.04186 amu.
 Principal axes and moments of inertia in atomic units:
                           1         2         3
     Eigenvalues --   210.83669 466.71577 622.15816
           X            0.99864  -0.05203  -0.00184
           Y            0.05204   0.99862   0.00645
           Z            0.00150  -0.00653   0.99998
 This molecule is an asymmetric top.
 Rotational symmetry number  1.
 Rotational temperatures (Kelvin)      0.41081     0.18558     0.13922
 Rotational constants (GHZ):           8.55990     3.86690     2.90078
 Zero-point vibrational energy     234072.1 (Joules/Mol)
                                   55.94458 (Kcal/Mol)
 Warning -- explicit consideration of   8 degrees of freedom as
           vibrations may cause significant error
 Vibrational temperatures:    260.93   304.39   387.07   443.21   569.96
          (Kelvin)            783.51   824.05   891.83   943.99  1156.59
                             1344.46  1498.72  1576.02  1627.55  1849.80
                             1934.92  2036.36  2042.30  2163.59  2166.50
                             3210.29  4387.14  4399.98  4497.30  4518.73
                             5018.83  5466.75

 Zero-point correction=                           0.089153 (Hartree/Particle)
 Thermal correction to Energy=                    0.095201
 Thermal correction to Enthalpy=                  0.096145
 Thermal correction to Gibbs Free Energy=         0.060492
 Sum of electronic and zero-point Energies=           -231.095860
 Sum of electronic and thermal Energies=              -231.089812
 Sum of electronic and thermal Enthalpies=            -231.088868
 Sum of electronic and thermal Free Energies=         -231.124521

                     E (Thermal)             CV                S
                      KCal/Mol        Cal/Mol-Kelvin    Cal/Mol-Kelvin
 Total                   59.740             21.270             75.037
 Electronic               0.000              0.000              0.000
 Translational            0.889              2.981             38.657
 Rotational               0.889              2.981             25.618
 Vibrational             57.962             15.309             10.763
 Vibration     1          0.630              1.865              2.314
 Vibration     2          0.643              1.823              2.030
 Vibration     3          0.673              1.730              1.602
 Vibration     4          0.698              1.658              1.373
 Vibration     5          0.763              1.478              0.977
 Vibration     6          0.900              1.152              0.556
 Vibration     7          0.929              1.090              0.499
 Vibration     8          0.980              0.990              0.417

 Optimization completed.
    -- Stationary point found.
 Normal termination of Gaussian 09 at Thu Sep  8 15:05:50 2022.
