 Gaussian 09, Revision E.01,
 Gaussian 09:  ES64L-G09RevE.01 30-Nov-2015

 ----------------------------
 #P OPT Freq B3LYP/6-31G(d,p)
 ----------------------------

 --------
 Frag_618
 --------
 Symbolic Z-matrix:
 Charge =  0 Multiplicity = 1

 SCF Done:  E(RB3LYP) =  -344.376846418     A.U. after   13 cycles
 SCF Done:  E(RB3LYP) =  -344.376895670     A.U. after    9 cycles
 SCF Done:  E(RB3LYP) =  -344.376900889     A.U. after    8 cycles
 SCF Done:  E(RB3LYP) =  -344.376902518     A.U. after    7 cycles
 SCF Done:  E(RB3LYP) =  -344.376903251     A.U. after    7 cycles
 SCF Done:  E(RB3LYP) =  -344.376903674     A.U. after    7 cycles
 SCF Done:  E(RB3LYP) =  -344.376903961     A.U. after    7 cycles
 SCF Done:  E(RB3LYP) =  -344.376904107     A.U. after    7 cycles
 Optimization completed.
    -- Stationary point found.
 Normal termination of Gaussian 09 at Thu Sep  8 15:10:32 2022.

 ----------------------------------------------------------------------
 #P Geom=AllCheck Guess=TCheck SCRF=Check GenChk RB3LYP/6-31G(d,p) Freq
 ----------------------------------------------------------------------

 Structure from the checkpoint file:  "B3LYP6-31Gdp.Frag_618.chk"
 --------
 Frag_618
 --------
 Charge =  0 Multiplicity = 1

                         Standard orientation:
 ---------------------------------------------------------------------
 Center     Atomic      Atomic             Coordinates (Angstroms)
 Number     Number       Type             X           Y           Z
 ---------------------------------------------------------------------
      1          6           0        1.492662    1.271252    0.060816
      2          7           0        0.803858    0.074485   -0.402372
      3          6           0        1.597030   -1.124008   -0.143370
      4          6           0       -0.611839   -0.040982   -0.017634
      5          6           0       -1.427586    1.120439   -0.603251
      6          7           0       -0.748663   -0.196780    1.441746
      7          8           0       -1.167154   -1.210345   -0.588758
      8          1           0        0.952374    2.173934   -0.231099
      9          1           0        1.663501    1.308985    1.155223
     10          1           0        2.478587    1.316177   -0.412896
     11          1           0        1.747043   -1.338602    0.928344
     12          1           0        1.121596   -1.987049   -0.611955
     13          1           0        2.580944   -0.998287   -0.606322
     14          1           0       -1.263601    1.187572   -1.681283
     15          1           0       -1.174341    2.078510   -0.144013
     16          1           0       -2.487755    0.923706   -0.423980
     17          1           0       -1.729766   -0.114091    1.700940
     18          1           0       -0.251256    0.542954    1.931601
     19          1           0       -0.988055   -1.915194    0.050519
 ---------------------------------------------------------------------

 SCF Done:  E(RB3LYP) =  -344.376904107     A.U. after    1 cycles

 The electronic state is 1-A.
 Alpha  occ. eigenvalues --  -19.13715 -14.31848 -14.31807 -10.28741 -10.20395
 Alpha  occ. eigenvalues --  -10.19274 -10.17097  -1.03294  -0.91075  -0.85760
 Alpha  occ. eigenvalues --   -0.73067  -0.69783  -0.64742  -0.56267  -0.51992
 Alpha  occ. eigenvalues --   -0.49772  -0.46559  -0.45670  -0.42678  -0.40580
 Alpha  occ. eigenvalues --   -0.39630  -0.38844  -0.38001  -0.36070  -0.35504
 Alpha  occ. eigenvalues --   -0.33988  -0.28107  -0.25033  -0.20953
 Alpha virt. eigenvalues --    0.06633   0.10484   0.12132   0.12803   0.13790
 Alpha virt. eigenvalues --    0.15550   0.15948   0.17069   0.18218   0.18380
 Alpha virt. eigenvalues --    0.20391   0.20636   0.22981   0.23526   0.25679

 Mulliken charges:
               1
     1  C   -0.168088
     2  N   -0.398857
     3  C   -0.166847
     4  C    0.493147
     5  C   -0.313245
     6  N   -0.611635
     7  O   -0.544972
     8  H    0.109650
     9  H    0.072242
    10  H    0.111257
    11  H    0.090321
    12  H    0.110965
    13  H    0.100806
    14  H    0.128421
    15  H    0.092131
    16  H    0.105638
    17  H    0.242173
    18  H    0.239747
    19  H    0.307145
 Sum of Mulliken charges =  -0.00000

 Dipole moment (field-independent basis, Debye):
    X=              0.1888    Y=              1.1637    Z=              1.7717  Tot=              2.1281
 Quadrupole moment (field-independent basis, Debye-Ang):
   XX=            -42.7387   YY=            -41.9576   ZZ=            -46.6659
   XY=             -0.8947   XZ=             -2.5481   YZ=              0.4462

  Exact polarizability:  66.566   0.060  62.287  -0.277   0.202  55.906
 Approx polarizability:  85.684   3.020  84.213   0.539   1.689  81.416

                      1                      2                      3
                      A                      A                      A
 Frequencies --     56.6580               201.4436               222.7369
 Red. masses --      2.4644                 1.1361                 1.1837
 Frc consts  --      0.0047                 0.0272                 0.0346
 IR Inten    --      0.5994                 3.5051                 1.9425

                      4                      5                      6
                      A                      A                      A
 Frequencies --    235.1393               246.7505               268.2644
 Red. masses --      1.1884                 1.3101                 1.7845
 Frc consts  --      0.0387                 0.0470                 0.0757
 IR Inten    --      2.3306                 9.6998                 5.6505

                      7                      8                      9
                      A                      A                      A
 Frequencies --    316.2208               369.1273               389.6626
 Red. masses --      2.2629                 2.3256                 2.3410
 Frc consts  --      0.1333                 0.1867                 0.2094
 IR Inten    --      7.6883                 1.2174                30.7149

                     10                     11                     12
                      A                      A                      A
 Frequencies --    420.4286               481.1264               523.1926
 Red. masses --      2.4127                 1.5885                 3.4473
 Frc consts  --      0.2513                 0.2167                 0.5560
 IR Inten    --      7.9438                36.2162                 7.7829

                     13                     14                     15
                      A                      A                      A
 Frequencies --    543.4255               558.2302               722.9588
 Red. masses --      1.7279                 3.1711                 3.8484
 Frc consts  --      0.3006                 0.5822                 1.1851
 IR Inten    --     61.9024                 0.9050                 4.1303

                     16                     17                     18
                      A                      A                      A
 Frequencies --    869.0900               896.0662               952.9828
 Red. masses --      2.1266                 1.6061                 1.9454
 Frc consts  --      0.9464                 0.7598                 1.0409
 IR Inten    --    147.0412                40.8546                23.4013

                     19                     20                     21
                      A                      A                      A
 Frequencies --    988.2504              1054.3698              1070.6940
 Red. masses --      2.3172                 1.6246                 1.5005
 Frc consts  --      1.3334                 1.0641                 1.0135
 IR Inten    --     72.8239                42.9037                 3.9142

                     22                     23                     24
                      A                      A                      A
 Frequencies --   1084.2383              1122.2655              1183.3049
 Red. masses --      1.7000                 1.2521                 1.5117
 Frc consts  --      1.1775                 0.9291                 1.2471
 IR Inten    --     53.9297                 5.0301                 6.9019

                     25                     26                     27
                      A                      A                      A
 Frequencies --   1192.7970              1262.0010              1294.3920
 Red. masses --      2.7321                 2.4896                 2.3631
 Frc consts  --      2.2902                 2.3361                 2.3328
 IR Inten    --     28.4344                65.7605                65.6014

                     28                     29                     30
                      A                      A                      A
 Frequencies --   1326.5977              1374.5414              1425.5837
 Red. masses --      2.2857                 1.4532                 1.4615
 Frc consts  --      2.3700                 1.6177                 1.7499
 IR Inten    --    109.6284                40.7463                34.7735

                     31                     32                     33
                      A                      A                      A
 Frequencies --   1448.1456              1479.5891              1497.3785
 Red. masses --      1.1618                 1.1477                 1.0635
 Frc consts  --      1.4356                 1.4804                 1.4049
 IR Inten    --      2.0913                 5.0272                 7.1325

                     34                     35                     36
                      A                      A                      A
 Frequencies --   1505.7967              1509.8298              1514.9136
 Red. masses --      1.0500                 1.0584                 1.0737
 Frc consts  --      1.4027                 1.4215                 1.4517
 IR Inten    --      3.2633                 6.0334                 0.6614

                     37                     38                     39
                      A                      A                      A
 Frequencies --   1523.7217              1533.0184              1651.6278
 Red. masses --      1.0461                 1.0523                 1.1121
 Frc consts  --      1.4309                 1.4571                 1.7875
 IR Inten    --      6.1276                 9.9235                46.3371

                     40                     41                     42
                      A                      A                      A
 Frequencies --   2916.5996              2974.5736              3064.3399
 Red. masses --      1.0638                 1.0569                 1.0361
 Frc consts  --      5.3318                 5.5096                 5.7321
 IR Inten    --     88.3307                76.9269                 9.9575

                     43                     44                     45
                      A                      A                      A
 Frequencies --   3077.0187              3083.4113              3132.2933
 Red. masses --      1.0721                 1.0801                 1.1004
 Frc consts  --      5.9809                 6.0505                 6.3607
 IR Inten    --     26.1457                48.2577                27.8458

                     46                     47                     48
                      A                      A                      A
 Frequencies --   3141.3939              3143.1219              3152.0269
 Red. masses --      1.0983                 1.1014                 1.1024
 Frc consts  --      6.3859                 6.4107                 6.4532
 IR Inten    --     15.8441                26.2317                21.7977

                     49                     50                     51
                      A                      A                      A
 Frequencies --   3490.8981              3578.2408              3789.5165
 Red. masses --      1.0494                 1.0924                 1.0651
 Frc consts  --      7.5348                 8.2405                 9.0114
 IR Inten    --      0.4190                 0.1554                23.4054

 - Thermochemistry -
 -------------------
 Temperature   298.150 Kelvin.  Pressure   1.00000 Atm.
 Atom     1 has atomic number  6 and mass  12.00000

 Molecular mass:   104.09496 amu.
 Principal axes and moments of inertia in atomic units:
                           1         2         3
     Eigenvalues --   548.13343 763.70461 922.90382
           X            0.99801  -0.06313   0.00038
           Y            0.06312   0.99784  -0.01841
           Z            0.00079   0.01840   0.99983
 This molecule is an asymmetric top.
 Rotational symmetry number  1.
 Warning -- assumption of classical behavior for rotation
           may cause significant error
 Rotational temperatures (Kelvin)      0.15802     0.11341     0.09385
 Rotational constants (GHZ):           3.29252     2.36314     1.95550
 Zero-point vibrational energy     447762.2 (Joules/Mol)
                                  107.01774 (Kcal/Mol)
 Warning -- explicit consideration of  14 degrees of freedom as
           vibrations may cause significant error
 Vibrational temperatures:     81.52   289.83   320.47   338.31   355.02
          (Kelvin)            385.97   454.97   531.09   560.64   604.90
                              692.23   752.76   781.87   803.17  1040.18
                             1250.43  1289.24  1371.13  1421.87  1517.00
                             1540.49  1559.98  1614.69  1702.51  1716.17
                             1815.74  1862.34  1908.68  1977.66  2051.09
                             2083.56  2128.80  2154.39  2166.50  2172.31
                             2179.62  2192.29  2205.67  2376.32  4196.33
                             4279.74  4408.90  4427.14  4436.34  4506.67
                             4519.76  4522.25  4535.06  5022.62  5148.28
                             5452.26

 Zero-point correction=                           0.170544 (Hartree/Particle)
 Thermal correction to Energy=                    0.179452
 Thermal correction to Enthalpy=                  0.180396
 Thermal correction to Gibbs Free Energy=         0.138024
 Sum of electronic and zero-point Energies=           -344.206360
 Sum of electronic and thermal Energies=              -344.197452
 Sum of electronic and thermal Enthalpies=            -344.196508
 Sum of electronic and thermal Free Energies=         -344.238881

                     E (Thermal)             CV                S
                      KCal/Mol        Cal/Mol-Kelvin    Cal/Mol-Kelvin
 Total                  112.608             33.305             89.181
 Electronic               0.000              0.000              0.000
 Translational            0.889              2.981             39.838
 Rotational               0.889              2.981             27.449
 Vibrational            110.830             27.344             21.895
 Vibration     1          0.596              1.975              4.570
 Vibration     2          0.638              1.838              2.120
 Vibration     3          0.648              1.806              1.937
 Vibration     4          0.655              1.787              1.839
 Vibration     5          0.661              1.768              1.754
 Vibration     6          0.673              1.731              1.607
 Vibration     7          0.703              1.643              1.330
 Vibration     8          0.741              1.536              1.083
 Vibration     9          0.758              1.492              1.001
 Vibration    10          0.783              1.426              0.891
 Vibration    11          0.837              1.292              0.707
 Vibration    12          0.878              1.199              0.603
 Vibration    13          0.899              1.154              0.558
 Vibration    14          0.914              1.122              0.527

 Optimization completed.
    -- Stationary point found.
 Normal termination of Gaussian 09 at Thu Sep  8 15:10:52 2022.
