 Gaussian 09, Revision E.01,
 Gaussian 09:  ES64L-G09RevE.01 30-Nov-2015

 ----------------------------
 #P OPT Freq B3LYP/6-31G(d,p)
 ----------------------------

 --------
 Frag_741
 --------
 Symbolic Z-matrix:
 Charge =  0 Multiplicity = 1

 SCF Done:  E(RB3LYP) =  -228.526106976     A.U. after   16 cycles
 SCF Done:  E(RB3LYP) =  -228.526198262     A.U. after   11 cycles
 SCF Done:  E(RB3LYP) =  -228.526214420     A.U. after   10 cycles
 SCF Done:  E(RB3LYP) =  -228.526224968     A.U. after    9 cycles
 SCF Done:  E(RB3LYP) =  -228.526228132     A.U. after    9 cycles
 SCF Done:  E(RB3LYP) =  -228.526228582     A.U. after    8 cycles
 SCF Done:  E(RB3LYP) =  -228.526228712     A.U. after    7 cycles
 Optimization completed.
    -- Stationary point found.
 Normal termination of Gaussian 09 at Thu Sep  8 15:12:20 2022.

 ----------------------------------------------------------------------
 #P Geom=AllCheck Guess=TCheck SCRF=Check GenChk RB3LYP/6-31G(d,p) Freq
 ----------------------------------------------------------------------

 Structure from the checkpoint file:  "B3LYP6-31Gdp.Frag_741.chk"
 --------
 Frag_741
 --------
 Charge =  0 Multiplicity = 1

                         Standard orientation:
 ---------------------------------------------------------------------
 Center     Atomic      Atomic             Coordinates (Angstroms)
 Number     Number       Type             X           Y           Z
 ---------------------------------------------------------------------
      1          6           0       -1.749802   -0.742983    0.124237
      2          6           0       -0.555241   -0.123066   -0.031902
      3          6           0       -0.507660    1.400350   -0.048364
      4          7           0        0.588221   -0.867410   -0.278945
      5          7           0        1.774956   -0.106722    0.128211
      6          1           0       -2.678393   -0.183637    0.121790
      7          1           0       -1.806798   -1.825345    0.161156
      8          1           0       -0.033297    1.784654   -0.964781
      9          1           0        0.038026    1.827255    0.806909
     10          1           0       -1.516393    1.814231   -0.005773
     11          1           0        2.566969   -0.654530   -0.205914
     12          1           0        1.901931    0.008263    1.152465
     13          1           0        1.861934    0.842218   -0.274543
 ---------------------------------------------------------------------

 SCF Done:  E(RB3LYP) =  -228.526228712     A.U. after    1 cycles

 The electronic state is 1-A.
 Alpha  occ. eigenvalues --  -14.46870 -14.27961 -10.17683 -10.17513 -10.11111
 Alpha  occ. eigenvalues --   -1.00971  -0.81099  -0.70987  -0.64815  -0.58441
 Alpha  occ. eigenvalues --   -0.56923  -0.50433  -0.44863  -0.40678  -0.39651
 Alpha  occ. eigenvalues --   -0.36133  -0.32874  -0.26516  -0.23284  -0.13801
 Alpha virt. eigenvalues --    0.01567   0.07150   0.08485   0.09488   0.12727
 Alpha virt. eigenvalues --    0.14907   0.16771   0.19988   0.21210   0.23346
 Alpha virt. eigenvalues --    0.27013   0.37276   0.39835   0.53342   0.55393

 Mulliken charges:
               1
     1  C   -0.329290
     2  C    0.324601
     3  C   -0.402425
     4  N   -0.520888
     5  N   -0.395210
     6  H    0.052377
     7  H    0.067324
     8  H    0.096634
     9  H    0.079296
    10  H    0.124037
    11  H    0.328931
    12  H    0.288727
    13  H    0.285888
 Sum of Mulliken charges =  -0.00000

 Dipole moment (field-independent basis, Debye):
    X=              5.4247    Y=              3.0049    Z=              1.1139  Tot=              6.3006
 Quadrupole moment (field-independent basis, Debye-Ang):
   XX=            -21.3735   YY=            -34.2240   ZZ=            -33.0365
   XY=             -0.1658   XZ=              1.6846   YZ=             -0.9184

  Exact polarizability:  74.414   8.084  49.570   0.282   0.241  31.687
 Approx polarizability: 112.672  15.030  69.189  -2.178   1.673  46.041

                      1                      2                      3
                      A                      A                      A
 Frequencies --    125.8476               196.2752               239.2646
 Red. masses --      2.6032                 1.1110                 1.1097
 Frc consts  --      0.0243                 0.0252                 0.0374
 IR Inten    --     32.9631                 8.2607                 2.5740

                      4                      5                      6
                      A                      A                      A
 Frequencies --    315.9658               434.4744               483.1701
 Red. masses --      2.4906                 2.2112                 2.5663
 Frc consts  --      0.1465                 0.2459                 0.3530
 IR Inten    --     18.9157                 2.5903                 7.1943

                      7                      8                      9
                      A                      A                      A
 Frequencies --    536.6985               664.3487               727.7848
 Red. masses --      2.2743                 1.3496                 3.5652
 Frc consts  --      0.3860                 0.3509                 1.1126
 IR Inten    --     10.9568                 8.1872                24.6241

                     10                     11                     12
                      A                      A                      A
 Frequencies --    775.7060               846.0878               988.6562
 Red. masses --      1.4074                 3.3173                 1.7280
 Frc consts  --      0.4990                 1.3992                 0.9952
 IR Inten    --     53.8230                 1.2055                24.8910

                     13                     14                     15
                      A                      A                      A
 Frequencies --   1001.1711              1037.4738              1058.8374
 Red. masses --      1.3653                 1.2404                 1.5163
 Frc consts  --      0.8063                 0.7866                 1.0016
 IR Inten    --      4.0985                40.5040                 7.4364

                     16                     17                     18
                      A                      A                      A
 Frequencies --   1127.1208              1338.3244              1406.9965
 Red. masses --      1.5390                 2.9218                 1.3582
 Frc consts  --      1.1519                 3.0833                 1.5842
 IR Inten    --     27.6754                78.8445                24.1338

                     19                     20                     21
                      A                      A                      A
 Frequencies --   1432.7877              1476.1087              1501.7088
 Red. masses --      1.2415                 1.1622                 1.0482
 Frc consts  --      1.5016                 1.4920                 1.3927
 IR Inten    --      5.8706                19.2418                 6.5319

                     22                     23                     24
                      A                      A                      A
 Frequencies --   1511.0989              1635.6848              1660.5264
 Red. masses --      1.0758                 1.0652                 1.6984
 Frc consts  --      1.4473                 1.6791                 2.7591
 IR Inten    --      4.3979                48.1534               149.7350

                     25                     26                     27
                      A                      A                      A
 Frequencies --   1673.8389              2989.8403              3030.6729
 Red. masses --      1.6916                 1.0436                 1.0995
 Frc consts  --      2.7924                 5.4964                 5.9499
 IR Inten    --     21.5808                47.7267                44.8062

                     28                     29                     30
                      A                      A                      A
 Frequencies --   3139.8141              3153.5601              3166.2703
 Red. masses --      1.0919                 1.0638                 1.0576
 Frc consts  --      6.3419                 6.2333                 6.2472
 IR Inten    --      5.1403               186.2390                 4.5290

                     31                     32                     33
                      A                      A                      A
 Frequencies --   3242.7233              3254.7307              3531.1224
 Red. masses --      1.0649                 1.1165                 1.0799
 Frc consts  --      6.5974                 6.9683                 7.9333
 IR Inten    --     31.5066                21.9534                60.7681

 - Thermochemistry -
 -------------------
 Temperature   298.150 Kelvin.  Pressure   1.00000 Atm.
 Atom     1 has atomic number  6 and mass  12.00000

 Molecular mass:    72.06875 amu.
 Principal axes and moments of inertia in atomic units:
                           1         2         3
     Eigenvalues --   213.89568 441.92221 622.82977
           X            0.99987   0.01520   0.00518
           Y           -0.01514   0.99981  -0.01209
           Z           -0.00536   0.01201   0.99991
 This molecule is an asymmetric top.
 Rotational symmetry number  1.
 Rotational temperatures (Kelvin)      0.40493     0.19599     0.13906
 Rotational constants (GHZ):           8.43748     4.08384     2.89765
 Zero-point vibrational energy     297300.1 (Joules/Mol)
                                   71.05642 (Kcal/Mol)
 Warning -- explicit consideration of   7 degrees of freedom as
           vibrations may cause significant error
 Vibrational temperatures:    181.07   282.40   344.25   454.60   625.11
          (Kelvin)            695.17   772.19   955.85  1047.12  1116.07
                             1217.33  1422.45  1440.46  1492.69  1523.43
                             1621.67  1925.55  2024.35  2061.46  2123.79
                             2160.62  2174.13  2353.38  2389.12  2408.28
                             4301.71  4360.46  4517.49  4537.26  4555.55
                             4665.55  4682.83  5080.49

 Zero-point correction=                           0.113236 (Hartree/Particle)
 Thermal correction to Energy=                    0.119522
 Thermal correction to Enthalpy=                  0.120466
 Thermal correction to Gibbs Free Energy=         0.084217
 Sum of electronic and zero-point Energies=           -228.412993
 Sum of electronic and thermal Energies=              -228.406706
 Sum of electronic and thermal Enthalpies=            -228.405762
 Sum of electronic and thermal Free Energies=         -228.442012

                     E (Thermal)             CV                S
                      KCal/Mol        Cal/Mol-Kelvin    Cal/Mol-Kelvin
 Total                   75.001             22.318             76.293
 Electronic               0.000              0.000              0.000
 Translational            0.889              2.981             38.742
 Rotational               0.889              2.981             25.579
 Vibrational             73.224             16.357             11.972
 Vibration     1          0.611              1.927              3.009
 Vibration     2          0.636              1.845              2.168
 Vibration     3          0.657              1.780              1.808
 Vibration     4          0.703              1.643              1.331
 Vibration     5          0.795              1.395              0.844
 Vibration     6          0.839              1.287              0.702
 Vibration     7          0.892              1.169              0.572

 Optimization completed.
    -- Stationary point found.
 Normal termination of Gaussian 09 at Thu Sep  8 15:12:30 2022.
