 Gaussian 09, Revision E.01,
 Gaussian 09:  ES64L-G09RevE.01 30-Nov-2015

 ----------------------------
 #P OPT Freq B3LYP/6-31G(d,p)
 ----------------------------

 --------
 Frag_666
 --------
 Symbolic Z-matrix:
 Charge =  0 Multiplicity = 1

 SCF Done:  E(RB3LYP) =  -299.949711045     A.U. after   14 cycles
 SCF Done:  E(RB3LYP) =  -299.949773455     A.U. after    9 cycles
 SCF Done:  E(RB3LYP) =  -299.949780200     A.U. after    8 cycles
 SCF Done:  E(RB3LYP) =  -299.949782750     A.U. after    8 cycles
 SCF Done:  E(RB3LYP) =  -299.949783560     A.U. after    8 cycles
 SCF Done:  E(RB3LYP) =  -299.949784030     A.U. after    7 cycles
 SCF Done:  E(RB3LYP) =  -299.949784629     A.U. after    8 cycles
 SCF Done:  E(RB3LYP) =  -299.949784964     A.U. after    8 cycles
 SCF Done:  E(RB3LYP) =  -299.949785053     A.U. after    7 cycles
 Optimization completed.
    -- Stationary point found.
 Normal termination of Gaussian 09 at Thu Sep  8 15:21:44 2022.

 ----------------------------------------------------------------------
 #P Geom=AllCheck Guess=TCheck SCRF=Check GenChk RB3LYP/6-31G(d,p) Freq
 ----------------------------------------------------------------------

 Structure from the checkpoint file:  "B3LYP6-31Gdp.Frag_666.chk"
 --------
 Frag_666
 --------
 Charge =  0 Multiplicity = 1

                         Standard orientation:
 ---------------------------------------------------------------------
 Center     Atomic      Atomic             Coordinates (Angstroms)
 Number     Number       Type             X           Y           Z
 ---------------------------------------------------------------------
      1          6           0        1.313189    1.329169    0.161299
      2          6           0        0.736011    0.133471   -0.054582
      3          7           0        1.465985   -1.066860   -0.177959
      4          7           0       -0.650764   -0.040207   -0.323186
      5          7           0       -1.409000    1.121426   -0.071678
      6          7           0       -1.269749   -1.214407    0.205498
      7          1           0        2.388002    1.393674    0.291235
      8          1           0        0.740798    2.242118    0.112891
      9          1           0        2.441233   -0.927361    0.054056
     10          1           0        1.092166   -1.835115    0.366559
     11          1           0       -2.289780    0.993995   -0.561886
     12          1           0       -1.628017    1.184141    0.927928
     13          1           0       -1.058121   -1.994671   -0.410124
     14          1           0       -0.936786   -1.432284    1.150315
 ---------------------------------------------------------------------

 SCF Done:  E(RB3LYP) =  -299.949785053     A.U. after    1 cycles

 The electronic state is 1-A.
 Alpha  occ. eigenvalues --  -14.38791 -14.35568 -14.34322 -14.33492 -10.23813
 Alpha  occ. eigenvalues --  -10.14132  -1.01803  -0.90354  -0.86388  -0.75573
 Alpha  occ. eigenvalues --   -0.68224  -0.56805  -0.53321  -0.51335  -0.50402
 Alpha  occ. eigenvalues --   -0.47653  -0.43945  -0.42120  -0.37833  -0.33768
 Alpha  occ. eigenvalues --   -0.28350  -0.26306  -0.23957  -0.18668
 Alpha virt. eigenvalues --    0.04720   0.06411   0.09738   0.10960   0.14128
 Alpha virt. eigenvalues --    0.15351   0.15978   0.18273   0.18636   0.20872
 Alpha virt. eigenvalues --    0.24616   0.29171   0.35360   0.39593   0.56623

 Mulliken charges:
               1
     1  C   -0.327468
     2  C    0.464727
     3  N   -0.631535
     4  N   -0.277383
     5  N   -0.413773
     6  N   -0.466532
     7  H    0.063725
     8  H    0.112974
     9  H    0.257668
    10  H    0.228454
    11  H    0.260811
    12  H    0.230362
    13  H    0.269949
    14  H    0.228020
 Sum of Mulliken charges =  -0.00000

 Dipole moment (field-independent basis, Debye):
    X=             -0.1149    Y=             -2.2475    Z=              2.1727  Tot=              3.1281
 Quadrupole moment (field-independent basis, Debye-Ang):
   XX=            -32.9214   YY=            -34.6356   ZZ=            -37.8815
   XY=             -2.8892   XZ=              1.3017   YZ=             -1.2050

  Exact polarizability:  57.881   4.189  63.753   1.261   1.246  31.967
 Approx polarizability:  75.815  10.051  96.512   3.470   4.540  47.850

                      1                      2                      3
                      A                      A                      A
 Frequencies --     77.5153               218.9316               233.9929
 Red. masses --      3.2666                 1.3628                 1.1933
 Frc consts  --      0.0116                 0.0385                 0.0385
 IR Inten    --      2.6717                21.2713               109.9735

                      4                      5                      6
                      A                      A                      A
 Frequencies --    337.6413               357.8236               408.2771
 Red. masses --      3.0995                 1.8023                 1.2447
 Frc consts  --      0.2082                 0.1360                 0.1222
 IR Inten    --      0.0052                12.0831                29.5920

                      7                      8                      9
                      A                      A                      A
 Frequencies --    449.8616               510.9937               546.5988
 Red. masses --      2.2830                 2.4703                 3.0218
 Frc consts  --      0.2722                 0.3800                 0.5319
 IR Inten    --      4.3787                20.3036                24.7021

                     10                     11                     12
                      A                      A                      A
 Frequencies --    604.6026               697.9972               743.9584
 Red. masses --      1.8555                 1.3332                 3.5362
 Frc consts  --      0.3996                 0.3827                 1.1531
 IR Inten    --     63.7756                17.4464                72.2058

                     13                     14                     15
                      A                      A                      A
 Frequencies --    775.4664               793.5578               878.2574
 Red. masses --      1.6032                 1.3855                 1.8615
 Frc consts  --      0.5680                 0.5141                 0.8460
 IR Inten    --    124.6808                83.9189               103.8949

                     16                     17                     18
                      A                      A                      A
 Frequencies --    940.2819               971.3761              1107.3370
 Red. masses --      1.8815                 1.6625                 2.1183
 Frc consts  --      0.9801                 0.9242                 1.5304
 IR Inten    --     97.9509                 2.3921                14.9091

                     19                     20                     21
                      A                      A                      A
 Frequencies --   1141.3971              1231.7898              1293.7443
 Red. masses --      1.7346                 1.8353                 1.3626
 Frc consts  --      1.3315                 1.6407                 1.3437
 IR Inten    --     36.6534                 5.5341                18.6819

                     22                     23                     24
                      A                      A                      A
 Frequencies --   1350.9252              1390.7389              1441.5441
 Red. masses --      1.2360                 3.2314                 1.2469
 Frc consts  --      1.3290                 3.6824                 1.5266
 IR Inten    --     18.9799                53.4605                 5.7280

                     25                     26                     27
                      A                      A                      A
 Frequencies --   1641.2004              1663.1614              1676.8461
 Red. masses --      1.2001                 1.1009                 1.2155
 Frc consts  --      1.9046                 1.7941                 2.0136
 IR Inten    --     78.9587                 0.8086                33.3434

                     28                     29                     30
                      A                      A                      A
 Frequencies --   1727.0518              3182.7983              3304.0335
 Red. masses --      2.8794                 1.0646                 1.1106
 Frc consts  --      5.0602                 6.3543                 7.1430
 IR Inten    --    121.1344                 9.7076                 3.9948

                     31                     32                     33
                      A                      A                      A
 Frequencies --   3374.4474              3387.0024              3544.7095
 Red. masses --      1.0548                 1.0577                 1.0494
 Frc consts  --      7.0769                 7.1490                 7.7688
 IR Inten    --     30.8599                13.3723                 1.0287

                     34                     35                     36
                      A                      A                      A
 Frequencies --   3562.1870              3564.5319              3647.2226
 Red. masses --      1.0855                 1.0851                 1.0940
 Frc consts  --      8.1152                 8.1231                 8.5745
 IR Inten    --      3.7925                 1.8416                 8.3604

 - Thermochemistry -
 -------------------
 Temperature   298.150 Kelvin.  Pressure   1.00000 Atm.
 Atom     1 has atomic number  6 and mass  12.00000

 Molecular mass:    88.07490 amu.
 Principal axes and moments of inertia in atomic units:
                           1         2         3
     Eigenvalues --   361.41212 510.18212 830.18179
           X            0.99999  -0.00064   0.00348
           Y            0.00066   0.99999  -0.00400
           Z           -0.00348   0.00400   0.99999
 This molecule is an asymmetric top.
 Rotational symmetry number  1.
 Rotational temperatures (Kelvin)      0.23965     0.16977     0.10433
 Rotational constants (GHZ):           4.99358     3.53745     2.17391
 Zero-point vibrational energy     315693.3 (Joules/Mol)
                                   75.45251 (Kcal/Mol)
 Warning -- explicit consideration of  10 degrees of freedom as
           vibrations may cause significant error
 Vibrational temperatures:    111.53   314.99   336.66   485.79   514.83
          (Kelvin)            587.42   647.25   735.21   786.43   869.89
                             1004.26  1070.39  1115.72  1141.75  1263.61
                             1352.85  1397.59  1593.21  1642.21  1772.27
                             1861.41  1943.68  2000.96  2074.06  2361.32
                             2392.92  2412.60  2484.84  4579.33  4753.76
                             4855.07  4873.13  5100.04  5125.19  5128.56
                             5247.53

 Zero-point correction=                           0.120241 (Hartree/Particle)
 Thermal correction to Energy=                    0.127378
 Thermal correction to Enthalpy=                  0.128322
 Thermal correction to Gibbs Free Energy=         0.089844
 Sum of electronic and zero-point Energies=           -299.829544
 Sum of electronic and thermal Energies=              -299.822407
 Sum of electronic and thermal Enthalpies=            -299.821463
 Sum of electronic and thermal Free Energies=         -299.859941

                     E (Thermal)             CV                S
                      KCal/Mol        Cal/Mol-Kelvin    Cal/Mol-Kelvin
 Total                   79.931             26.559             80.984
 Electronic               0.000              0.000              0.000
 Translational            0.889              2.981             39.340
 Rotational               0.889              2.981             26.529
 Vibrational             78.153             20.597             15.116
 Vibration     1          0.599              1.964              3.953
 Vibration     2          0.647              1.812              1.968
 Vibration     3          0.654              1.789              1.848
 Vibration     4          0.718              1.600              1.223
 Vibration     5          0.733              1.559              1.132
 Vibration     6          0.773              1.452              0.933
 Vibration     7          0.809              1.361              0.796
 Vibration     8          0.866              1.226              0.631
 Vibration     9          0.902              1.147              0.551
 Vibration    10          0.963              1.022              0.442

 Optimization completed.
    -- Stationary point found.
 Normal termination of Gaussian 09 at Thu Sep  8 15:21:56 2022.
