 Gaussian 09, Revision E.01,
 Gaussian 09:  ES64L-G09RevE.01 30-Nov-2015

 ----------------------------
 #P OPT Freq B3LYP/6-31G(d,p)
 ----------------------------

 --------
 Frag_541
 --------
 Symbolic Z-matrix:
 Charge =  0 Multiplicity = 1

 SCF Done:  E(RB3LYP) =  -248.433245690     A.U. after   14 cycles
 SCF Done:  E(RB3LYP) =  -248.433309944     A.U. after   11 cycles
 SCF Done:  E(RB3LYP) =  -248.433321665     A.U. after    9 cycles
 SCF Done:  E(RB3LYP) =  -248.433328721     A.U. after   10 cycles
 SCF Done:  E(RB3LYP) =  -248.433332479     A.U. after   10 cycles
 SCF Done:  E(RB3LYP) =  -248.433335797     A.U. after   10 cycles
 SCF Done:  E(RB3LYP) =  -248.433336268     A.U. after    8 cycles
 Optimization completed.
    -- Stationary point found.
 Normal termination of Gaussian 09 at Thu Sep  8 14:56:57 2022.

 ----------------------------------------------------------------------
 #P Geom=AllCheck Guess=TCheck SCRF=Check GenChk RB3LYP/6-31G(d,p) Freq
 ----------------------------------------------------------------------

 Structure from the checkpoint file:  "B3LYP6-31Gdp.Frag_541.chk"
 --------
 Frag_541
 --------
 Charge =  0 Multiplicity = 1

                         Standard orientation:
 ---------------------------------------------------------------------
 Center     Atomic      Atomic             Coordinates (Angstroms)
 Number     Number       Type             X           Y           Z
 ---------------------------------------------------------------------
      1          6           0        1.621301   -0.859122    0.118929
      2          6           0        0.552899   -0.071566   -0.033292
      3          6           0        0.572506    1.428386   -0.022205
      4          8           0       -0.650010   -0.700618   -0.311248
      5          7           0       -1.789039    0.025654    0.213555
      6          1           0        1.523131   -1.938443    0.109182
      7          1           0        2.611309   -0.432027    0.218377
      8          1           0        1.599778    1.785430    0.075067
      9          1           0        0.144310    1.827565   -0.948706
     10          1           0       -0.024727    1.829139    0.800404
     11          1           0       -2.450958   -0.020978   -0.561933
     12          1           0       -2.159726   -0.611502    0.922117
 ---------------------------------------------------------------------

 SCF Done:  E(RB3LYP) =  -248.433336268     A.U. after    1 cycles

 The electronic state is 1-A.
 Alpha  occ. eigenvalues --  -19.18574 -14.37846 -10.23377 -10.17693 -10.15752
 Alpha  occ. eigenvalues --   -1.07085  -0.84212  -0.74698  -0.68115  -0.54249
 Alpha  occ. eigenvalues --   -0.50990  -0.48381  -0.45772  -0.41840  -0.39653
 Alpha  occ. eigenvalues --   -0.37522  -0.36099  -0.32466  -0.26218  -0.21778
 Alpha virt. eigenvalues --    0.03834   0.07677   0.09185   0.13473   0.14240
 Alpha virt. eigenvalues --    0.15473   0.17021   0.19013   0.20446   0.24112
 Alpha virt. eigenvalues --    0.31077   0.36938   0.51926   0.53290   0.56907

 Mulliken charges:
               1
     1  C   -0.310775
     2  C    0.394461
     3  C   -0.352769
     4  O   -0.447117
     5  N   -0.362154
     6  H    0.094120
     7  H    0.090651
     8  H    0.107779
     9  H    0.115770
    10  H    0.138328
    11  H    0.266152
    12  H    0.265553
 Sum of Mulliken charges =  -0.00000

 Dipole moment (field-independent basis, Debye):
    X=             -1.4542    Y=              0.2758    Z=              0.2004  Tot=              1.4936
 Quadrupole moment (field-independent basis, Debye-Ang):
   XX=            -24.5038   YY=            -31.0005   ZZ=            -31.1982
   XY=              2.2133   XZ=              0.1696   YZ=             -1.4028

  Exact polarizability:  60.155  -6.908  44.427   1.305  -1.783  28.510
 Approx polarizability:  82.938 -14.117  59.930   2.985  -2.015  40.696

                      1                      2                      3
                      A                      A                      A
 Frequencies --     75.8833               182.1623               199.4282
 Red. masses --      3.6246                 1.1201                 1.0647
 Frc consts  --      0.0123                 0.0219                 0.0249
 IR Inten    --      3.3620                41.5330                 8.9417

                      4                      5                      6
                      A                      A                      A
 Frequencies --    321.8862               419.5725               480.5827
 Red. masses --      3.0414                 2.1786                 2.6316
 Frc consts  --      0.1857                 0.2260                 0.3581
 IR Inten    --      4.9707                 0.9751                 5.0340

                      7                      8                      9
                      A                      A                      A
 Frequencies --    557.0441               739.2296               819.4630
 Red. masses --      3.0616                 1.2076                 3.7815
 Frc consts  --      0.5597                 0.3888                 1.4961
 IR Inten    --      4.5910                 2.9403                 8.2561

                     10                     11                     12
                      A                      A                      A
 Frequencies --    851.7027               916.0613               978.0073
 Red. masses --      1.3769                 2.5012                 2.3665
 Frc consts  --      0.5885                 1.2367                 1.3337
 IR Inten    --     56.3764                 0.5849                33.4946

                     13                     14                     15
                      A                      A                      A
 Frequencies --   1026.6677              1074.9175              1208.4769
 Red. masses --      1.5350                 1.5079                 1.4758
 Frc consts  --      0.9533                 1.0265                 1.2699
 IR Inten    --      4.1667                 2.5279                57.1284

                     16                     17                     18
                      A                      A                      A
 Frequencies --   1312.8789              1332.5228              1412.4467
 Red. masses --      1.4546                 1.7366                 1.2187
 Frc consts  --      1.4772                 1.8168                 1.4325
 IR Inten    --     27.6573                87.5365                15.6359

                     19                     20                     21
                      A                      A                      A
 Frequencies --   1441.3865              1481.2008              1501.1572
 Red. masses --      1.2790                 1.0472                 1.0518
 Frc consts  --      1.5656                 1.3537                 1.3965
 IR Inten    --      5.3145                 6.3150                 7.5209

                     22                     23                     24
                      A                      A                      A
 Frequencies --   1660.4021              1735.6763              3052.5425
 Red. masses --      1.0710                 5.5797                 1.0402
 Frc consts  --      1.7397                 9.9038                 5.7106
 IR Inten    --     19.4527                82.2789                17.9938

                     25                     26                     27
                      A                      A                      A
 Frequencies --   3118.8087              3149.7651              3183.1347
 Red. masses --      1.0951                 1.1034                 1.0602
 Frc consts  --      6.2757                 6.4495                 6.3293
 IR Inten    --     14.1820                15.9130                 0.5543

                     28                     29                     30
                      A                      A                      A
 Frequencies --   3275.3695              3428.2865              3523.6843
 Red. masses --      1.1175                 1.0493                 1.0942
 Frc consts  --      7.0635                 7.2662                 8.0049
 IR Inten    --      8.6312                 1.7813                 0.3192

 - Thermochemistry -
 -------------------
 Temperature   298.150 Kelvin.  Pressure   1.00000 Atm.
 Atom     1 has atomic number  6 and mass  12.00000

 Molecular mass:    73.05276 amu.
 Principal axes and moments of inertia in atomic units:
                           1         2         3
     Eigenvalues --   216.57974 422.87735 602.69551
           X            0.99997   0.00707   0.00083
           Y           -0.00705   0.99979  -0.01916
           Z           -0.00096   0.01915   0.99982
 This molecule is an asymmetric top.
 Rotational symmetry number  1.
 Rotational temperatures (Kelvin)      0.39992     0.20482     0.14371
 Rotational constants (GHZ):           8.33292     4.26777     2.99445
 Zero-point vibrational energy     265931.9 (Joules/Mol)
                                   63.55926 (Kcal/Mol)
 Warning -- explicit consideration of   7 degrees of freedom as
           vibrations may cause significant error
 Vibrational temperatures:    109.18   262.09   286.93   463.12   603.67
          (Kelvin)            691.45   801.46  1063.59  1179.02  1225.41
                             1318.01  1407.13  1477.14  1546.56  1738.73
                             1888.94  1917.20  2032.19  2073.83  2131.11
                             2159.83  2388.95  2497.25  4391.92  4487.26
                             4531.80  4579.82  4712.52  4932.53  5069.79

 Zero-point correction=                           0.101288 (Hartree/Particle)
 Thermal correction to Energy=                    0.107613
 Thermal correction to Enthalpy=                  0.108558
 Thermal correction to Gibbs Free Energy=         0.071813
 Sum of electronic and zero-point Energies=           -248.332048
 Sum of electronic and thermal Energies=              -248.325723
 Sum of electronic and thermal Enthalpies=            -248.324779
 Sum of electronic and thermal Free Energies=         -248.361523

                     E (Thermal)             CV                S
                      KCal/Mol        Cal/Mol-Kelvin    Cal/Mol-Kelvin
 Total                   67.528             21.481             77.336
 Electronic               0.000              0.000              0.000
 Translational            0.889              2.981             38.782
 Rotational               0.889              2.981             25.515
 Vibrational             65.751             15.520             13.038
 Vibration     1          0.599              1.965              3.995
 Vibration     2          0.630              1.864              2.306
 Vibration     3          0.638              1.841              2.138
 Vibration     4          0.707              1.632              1.301
 Vibration     5          0.782              1.428              0.893
 Vibration     6          0.837              1.293              0.708
 Vibration     7          0.913              1.124              0.530

 Normal termination of Gaussian 09 at Thu Sep  8 14:57:05 2022.
