 Gaussian 09, Revision E.01,
 Gaussian 09:  ES64L-G09RevE.01 30-Nov-2015

 ----------------------------
 #P OPT Freq B3LYP/6-31G(d,p)
 ----------------------------

 ---------
 Frag_1064
 ---------
 Symbolic Z-matrix:
 Charge =  0 Multiplicity = 1

 SCF Done:  E(RB3LYP) =  -226.337547121     A.U. after   14 cycles
 SCF Done:  E(RB3LYP) =  -226.337591897     A.U. after   11 cycles
 SCF Done:  E(RB3LYP) =  -226.337604979     A.U. after   11 cycles
 SCF Done:  E(RB3LYP) =  -226.337615567     A.U. after   10 cycles
 Optimization completed.
    -- Stationary point found.
 Normal termination of Gaussian 09 at Thu Sep  8 14:48:50 2022.

 ----------------------------------------------------------------------
 #P Geom=AllCheck Guess=TCheck SCRF=Check GenChk RB3LYP/6-31G(d,p) Freq
 ----------------------------------------------------------------------

 Structure from the checkpoint file:  "B3LYP6-31Gdp.Frag_1064.chk"
 ---------
 Frag_1064
 ---------
 Charge =  0 Multiplicity = 1

                         Standard orientation:
 ---------------------------------------------------------------------
 Center     Atomic      Atomic             Coordinates (Angstroms)
 Number     Number       Type             X           Y           Z
 ---------------------------------------------------------------------
      1          7           0       -1.318174   -0.442934    0.093049
      2          7           0       -0.623887    0.779400   -0.330562
      3          6           0        0.652041    0.630060    0.221932
      4          8           0        1.281300   -0.632196   -0.235404
      5          1           0       -2.175256   -0.515875   -0.451571
      6          1           0       -0.708476   -1.255190   -0.101037
      7          1           0       -1.575931   -0.492487    1.102165
      8          1           0        1.245648    1.491969   -0.107257
      9          1           0        0.705695    0.582774    1.345883
     10          1           0        1.940100   -0.889246    0.426047
 ---------------------------------------------------------------------

 SCF Done:  E(RB3LYP) =  -226.337615567     A.U. after    1 cycles

 The electronic state is 1-A.
 Alpha  occ. eigenvalues --  -19.11974 -14.44565 -14.26097 -10.21992  -1.00403
 Alpha  occ. eigenvalues --   -0.96692  -0.77653  -0.59854  -0.56214  -0.55089
 Alpha  occ. eigenvalues --   -0.46956  -0.45186  -0.38815  -0.32663  -0.25596
 Alpha  occ. eigenvalues --   -0.24100  -0.15823
 Alpha virt. eigenvalues --    0.03861   0.08968   0.10070   0.13013   0.15401
 Alpha virt. eigenvalues --    0.17877   0.21026   0.23504   0.30457   0.56489
 Alpha virt. eigenvalues --    0.58979   0.60518   0.64093   0.66660   0.74378

 Mulliken charges:
               1
     1  N   -0.396548
     2  N   -0.476154
     3  C    0.180899
     4  O   -0.575531
     5  H    0.319831
     6  H    0.306328
     7  H    0.261645
     8  H    0.095596
     9  H    0.003589
    10  H    0.280345
 Sum of Mulliken charges =  -0.00000

 Dipole moment (field-independent basis, Debye):
    X=             -1.9446    Y=             -3.2691    Z=              2.5883  Tot=              4.6008
 Quadrupole moment (field-independent basis, Debye-Ang):
   XX=            -17.4980   YY=            -25.8022   ZZ=            -25.8086
   XY=              4.9024   XZ=              1.2667   YZ=             -0.3272

  Exact polarizability:  41.241   2.896  32.065   1.722  -2.930  29.232
 Approx polarizability:  54.047   2.082  46.117   3.079  -6.342  42.343

                      1                      2                      3
                      A                      A                      A
 Frequencies --    218.2881               274.0297               378.0702
 Red. masses --      1.7028                 1.3335                 1.2317
 Frc consts  --      0.0478                 0.0590                 0.1037
 IR Inten    --     31.7074                 5.7608                97.5395

                      4                      5                      6
                      A                      A                      A
 Frequencies --    388.5672               588.8303               733.7325
 Red. masses --      2.1742                 3.7197                 8.2681
 Frc consts  --      0.1934                 0.7599                 2.6226
 IR Inten    --     22.8592                 9.7513                10.8236

                      7                      8                      9
                      A                      A                      A
 Frequencies --    853.2900              1013.0519              1071.5591
 Red. masses --      5.0531                 1.4290                 1.2108
 Frc consts  --      2.1677                 0.8640                 0.8191
 IR Inten    --    121.2400               118.6118                55.3507

                     10                     11                     12
                      A                      A                      A
 Frequencies --   1102.9507              1150.3484              1230.9933
 Red. masses --      2.0915                 1.4940                 1.3027
 Frc consts  --      1.4991                 1.1649                 1.1631
 IR Inten    --     47.9078                 4.9123                50.6720

                     13                     14                     15
                      A                      A                      A
 Frequencies --   1292.0452              1388.3255              1459.9736
 Red. masses --      1.3991                 1.1523                 1.1890
 Frc consts  --      1.3761                 1.3086                 1.4932
 IR Inten    --      2.5088                26.6828                68.5716

                     16                     17                     18
                      A                      A                      A
 Frequencies --   1507.8068              1620.4819              1679.2094
 Red. masses --      1.1684                 1.0559                 1.0552
 Frc consts  --      1.5651                 1.6336                 1.7531
 IR Inten    --     17.6134                20.7755                42.0708

                     19                     20                     21
                      A                      A                      A
 Frequencies --   2698.7515              3058.3828              3108.1940
 Red. masses --      1.0710                 1.0861                 1.0577
 Frc consts  --      4.5956                 5.9857                 6.0206
 IR Inten    --    273.2452                57.7558               138.9480

                     22                     23                     24
                      A                      A                      A
 Frequencies --   3279.2365              3548.0300              3770.7024
 Red. masses --      1.0694                 1.0814                 1.0659
 Frc consts  --      6.7753                 8.0206                 8.9291
 IR Inten    --     43.4550                50.3801                 1.2892

 - Thermochemistry -
 -------------------
 Temperature   298.150 Kelvin.  Pressure   1.00000 Atm.
 Atom     1 has atomic number  7 and mass  14.00307

 Molecular mass:    62.04801 amu.
 Principal axes and moments of inertia in atomic units:
                           1         2         3
     Eigenvalues --   121.91843 291.10773 366.61462
           X            0.99745   0.06999   0.01379
           Y           -0.07005   0.99754   0.00333
           Z           -0.01353  -0.00429   0.99990
 This molecule is an asymmetric top.
 Rotational symmetry number  1.
 Rotational temperatures (Kelvin)      0.71042     0.29753     0.23625
 Rotational constants (GHZ):          14.80286     6.19956     4.92272
 Zero-point vibrational energy     223790.5 (Joules/Mol)
                                   53.48721 (Kcal/Mol)
 Warning -- explicit consideration of   5 degrees of freedom as
           vibrations may cause significant error
 Vibrational temperatures:    314.07   394.27   543.96   559.06   847.19
          (Kelvin)           1055.68  1227.69  1457.55  1541.73  1586.90
                             1655.09  1771.12  1858.96  1997.49  2100.57
                             2169.39  2331.51  2416.00  3882.90  4400.33
                             4471.99  4718.08  5104.82  5425.19

 Zero-point correction=                           0.085237 (Hartree/Particle)
 Thermal correction to Energy=                    0.090196
 Thermal correction to Enthalpy=                  0.091141
 Thermal correction to Gibbs Free Energy=         0.058228
 Sum of electronic and zero-point Energies=           -226.252378
 Sum of electronic and thermal Energies=              -226.247419
 Sum of electronic and thermal Enthalpies=            -226.246475
 Sum of electronic and thermal Free Energies=         -226.279387

                     E (Thermal)             CV                S
                      KCal/Mol        Cal/Mol-Kelvin    Cal/Mol-Kelvin
 Total                   56.599             16.778             69.270
 Electronic               0.000              0.000              0.000
 Translational            0.889              2.981             38.295
 Rotational               0.889              2.981             24.079
 Vibrational             54.822             10.816              6.895
 Vibration     1          0.646              1.813              1.973
 Vibration     2          0.676              1.721              1.571
 Vibration     3          0.748              1.517              1.047
 Vibration     4          0.757              1.495              1.006
 Vibration     5          0.946              1.056              0.469

 Normal termination of Gaussian 09 at Thu Sep  8 14:48:57 2022.
