 Gaussian 09, Revision E.01,
 Gaussian 09:  ES64L-G09RevE.01 30-Nov-2015

 ----------------------------
 #P OPT Freq B3LYP/6-31G(d,p)
 ----------------------------

 --------
 Frag_782
 --------
 Symbolic Z-matrix:
 Charge =  0 Multiplicity = 1

 SCF Done:  E(RB3LYP) =  -264.512384603     A.U. after   13 cycles
 SCF Done:  E(RB3LYP) =  -264.512444673     A.U. after   11 cycles
 SCF Done:  E(RB3LYP) =  -264.512452796     A.U. after    9 cycles
 SCF Done:  E(RB3LYP) =  -264.512459970     A.U. after    8 cycles
 SCF Done:  E(RB3LYP) =  -264.512464035     A.U. after    8 cycles
 SCF Done:  E(RB3LYP) =  -264.512465696     A.U. after    9 cycles
 SCF Done:  E(RB3LYP) =  -264.512466191     A.U. after    7 cycles
 SCF Done:  E(RB3LYP) =  -264.512466449     A.U. after    7 cycles
 SCF Done:  E(RB3LYP) =  -264.512466620     A.U. after    7 cycles
 SCF Done:  E(RB3LYP) =  -264.512466731     A.U. after    7 cycles
 Optimization completed.
    -- Stationary point found.
 Normal termination of Gaussian 09 at Thu Sep  8 15:18:20 2022.

 ----------------------------------------------------------------------
 #P Geom=AllCheck Guess=TCheck SCRF=Check GenChk RB3LYP/6-31G(d,p) Freq
 ----------------------------------------------------------------------

 Structure from the checkpoint file:  "B3LYP6-31Gdp.Frag_782.chk"
 --------
 Frag_782
 --------
 Charge =  0 Multiplicity = 1

                         Standard orientation:
 ---------------------------------------------------------------------
 Center     Atomic      Atomic             Coordinates (Angstroms)
 Number     Number       Type             X           Y           Z
 ---------------------------------------------------------------------
      1          6           0        0.568589    1.371891   -0.025552
      2          6           0        0.409139   -0.126045   -0.013738
      3          8           0        1.551151   -0.877799    0.047815
      4          7           0       -0.684490   -0.779712   -0.033594
      5          7           0       -1.863867    0.014168   -0.072318
      6          1           0        1.455747    1.667529   -0.596881
      7          1           0       -0.311456    1.827340   -0.485672
      8          1           0        0.678027    1.775464    0.988773
      9          1           0        2.312344   -0.293306   -0.051490
     10          1           0       -1.939881    0.578530    0.775427
     11          1           0       -2.631862   -0.649429   -0.035555
 ---------------------------------------------------------------------

 SCF Done:  E(RB3LYP) =  -264.512466731     A.U. after    1 cycles

 The electronic state is 1-A.
 Alpha  occ. eigenvalues --  -19.17374 -14.34648 -14.32900 -10.26758 -10.20097
 Alpha  occ. eigenvalues --   -1.06125  -0.95776  -0.79543  -0.73288  -0.58783
 Alpha  occ. eigenvalues --   -0.51209  -0.49214  -0.45296  -0.44417  -0.42814
 Alpha  occ. eigenvalues --   -0.37534  -0.36128  -0.33097  -0.25983  -0.20515
 Alpha virt. eigenvalues --    0.03032   0.06348   0.08462   0.13655   0.14556
 Alpha virt. eigenvalues --    0.16365   0.18198   0.20777   0.22623   0.33310
 Alpha virt. eigenvalues --    0.39616   0.53160   0.55309   0.57453   0.60420

 Mulliken charges:
               1
     1  C   -0.415729
     2  C    0.489774
     3  O   -0.499036
     4  N   -0.337145
     5  N   -0.466353
     6  H    0.110854
     7  H    0.159360
     8  H    0.135652
     9  H    0.313836
    10  H    0.242726
    11  H    0.266062
 Sum of Mulliken charges =  -0.00000

 Dipole moment (field-independent basis, Debye):
    X=              0.7727    Y=              2.8887    Z=              1.1266  Tot=              3.1954
 Quadrupole moment (field-independent basis, Debye-Ang):
   XX=            -22.0491   YY=            -32.9616   ZZ=            -30.3932
   XY=              2.9014   XZ=             -3.0737   YZ=              1.0111

  Exact polarizability:  56.603   4.132  36.836  -1.203   1.451  25.254
 Approx polarizability:  83.513   7.213  51.714  -0.298   2.438  35.472

                      1                      2                      3
                      A                      A                      A
 Frequencies --    125.1133               190.5207               218.1312
 Red. masses --      1.0482                 1.3230                 1.7702
 Frc consts  --      0.0097                 0.0283                 0.0496
 IR Inten    --      5.5654                16.4616                60.0952

                      4                      5                      6
                      A                      A                      A
 Frequencies --    331.9578               339.2341               456.5352
 Red. masses --      1.9034                 2.0519                 3.0726
 Frc consts  --      0.1236                 0.1391                 0.3773
 IR Inten    --     17.4994                49.4080                 1.9279

                      7                      8                      9
                      A                      A                      A
 Frequencies --    525.6918               612.3284               824.3754
 Red. masses --      2.9870                 5.4707                 4.8570
 Frc consts  --      0.4863                 1.2085                 1.9448
 IR Inten    --      4.8748                 7.1747                 5.8631

                     10                     11                     12
                      A                      A                      A
 Frequencies --    912.0447              1017.4385              1058.7770
 Red. masses --      1.9604                 1.4461                 1.5842
 Frc consts  --      0.9608                 0.8820                 1.0463
 IR Inten    --    199.8525                 1.5569                 3.1471

                     13                     14                     15
                      A                      A                      A
 Frequencies --   1107.8832              1254.8194              1319.5938
 Red. masses --      1.8566                 1.5063                 1.4927
 Frc consts  --      1.3426                 1.3974                 1.5314
 IR Inten    --     39.7440                 5.5244               214.6025

                     16                     17                     18
                      A                      A                      A
 Frequencies --   1366.9158              1415.7351              1487.5141
 Red. masses --      2.0467                 1.4184                 1.0618
 Frc consts  --      2.2532                 1.6750                 1.3842
 IR Inten    --     73.3705                47.7754                 4.8068

                     19                     20                     21
                      A                      A                      A
 Frequencies --   1512.3538              1673.5710              1778.6540
 Red. masses --      1.0575                 1.1396                 5.2609
 Frc consts  --      1.4250                 1.8805                 9.8060
 IR Inten    --      8.9609                16.4123                85.3489

                     22                     23                     24
                      A                      A                      A
 Frequencies --   3035.6500              3094.6457              3139.9496
 Red. masses --      1.0382                 1.1009                 1.0999
 Frc consts  --      5.6367                 6.2118                 6.3894
 IR Inten    --     19.6787                18.4354                 2.3587

                     25                     26                     27
                      A                      A                      A
 Frequencies --   3442.7054              3567.3708              3843.3869
 Red. masses --      1.0547                 1.0882                 1.0662
 Frc consts  --      7.3648                 8.1596                 9.2791
 IR Inten    --      5.2693                 3.1061                41.1738

 - Thermochemistry -
 -------------------
 Temperature   298.150 Kelvin.  Pressure   1.00000 Atm.
 Atom     1 has atomic number  6 and mass  12.00000

 Molecular mass:    74.04801 amu.
 Principal axes and moments of inertia in atomic units:
                           1         2         3
     Eigenvalues --   198.77054 431.70112 614.04916
           X            0.99890   0.04485  -0.01333
           Y           -0.04476   0.99897   0.00696
           Z            0.01362  -0.00636   0.99989
 This molecule is an asymmetric top.
 Rotational symmetry number  1.
 Rotational temperatures (Kelvin)      0.43575     0.20063     0.14105
 Rotational constants (GHZ):           9.07952     4.18053     2.93908
 Zero-point vibrational energy     237177.0 (Joules/Mol)
                                   56.68666 (Kcal/Mol)
 Warning -- explicit consideration of   8 degrees of freedom as
           vibrations may cause significant error
 Vibrational temperatures:    180.01   274.12   313.84   477.61   488.08
          (Kelvin)            656.85   756.35   881.00  1186.09  1312.23
                             1463.87  1523.34  1593.99  1805.40  1898.60
                             1966.68  2036.92  2140.20  2175.94  2407.89
                             2559.08  4367.62  4452.50  4517.68  4953.28
                             5132.64  5529.77

 Zero-point correction=                           0.090336 (Hartree/Particle)
 Thermal correction to Energy=                    0.096601
 Thermal correction to Enthalpy=                  0.097546
 Thermal correction to Gibbs Free Energy=         0.061223
 Sum of electronic and zero-point Energies=           -264.422131
 Sum of electronic and thermal Energies=              -264.415865
 Sum of electronic and thermal Enthalpies=            -264.414921
 Sum of electronic and thermal Free Energies=         -264.451244

                     E (Thermal)             CV                S
                      KCal/Mol        Cal/Mol-Kelvin    Cal/Mol-Kelvin
 Total                   60.618             21.102             76.448
 Electronic               0.000              0.000              0.000
 Translational            0.889              2.981             38.822
 Rotational               0.889              2.981             25.469
 Vibrational             58.841             15.140             12.157
 Vibration     1          0.610              1.928              3.020
 Vibration     2          0.634              1.853              2.223
 Vibration     3          0.646              1.813              1.975
 Vibration     4          0.714              1.612              1.251
 Vibration     5          0.719              1.597              1.216
 Vibration     6          0.815              1.346              0.776
 Vibration     7          0.881              1.193              0.597
 Vibration     8          0.972              1.006              0.429

 Optimization completed.
    -- Stationary point found.
 Normal termination of Gaussian 09 at Thu Sep  8 15:18:28 2022.
