 Gaussian 09, Revision E.01,
 Gaussian 09:  ES64L-G09RevE.01 30-Nov-2015

 ----------------------------
 #P OPT Freq B3LYP/6-31G(d,p)
 ----------------------------

 ---------
 Frag_1152
 ---------
 Symbolic Z-matrix:
 Charge =  0 Multiplicity = 1

 SCF Done:  E(RB3LYP) =  -226.148073682     A.U. after   15 cycles
 SCF Done:  E(RB3LYP) =  -226.148202600     A.U. after   11 cycles
 SCF Done:  E(RB3LYP) =  -226.147812859     A.U. after   12 cycles
 SCF Done:  E(RB3LYP) =  -226.148208729     A.U. after    9 cycles
 SCF Done:  E(RB3LYP) =  -226.148209856     A.U. after    9 cycles
 SCF Done:  E(RB3LYP) =  -226.148209580     A.U. after    9 cycles
 SCF Done:  E(RB3LYP) =  -226.148212468     A.U. after    9 cycles
 SCF Done:  E(RB3LYP) =  -226.148212582     A.U. after    8 cycles
 Optimization completed.
    -- Stationary point found.
 Normal termination of Gaussian 09 at Thu Sep  8 14:53:01 2022.

 ----------------------------------------------------------------------
 #P Geom=AllCheck Guess=TCheck SCRF=Check GenChk RB3LYP/6-31G(d,p) Freq
 ----------------------------------------------------------------------

 Structure from the checkpoint file:  "B3LYP6-31Gdp.Frag_1152.chk"
 ---------
 Frag_1152
 ---------
 Charge =  0 Multiplicity = 1

                         Standard orientation:
 ---------------------------------------------------------------------
 Center     Atomic      Atomic             Coordinates (Angstroms)
 Number     Number       Type             X           Y           Z
 ---------------------------------------------------------------------
      1          6           0       -2.183277    0.006488    0.005256
      2          6           0       -0.978386   -0.075765   -0.005598
      3          6           0        0.468793   -0.120406   -0.002353
      4          7           0        1.055290   -1.261819    0.010823
      5          7           0        1.058859    1.136402   -0.070040
      6          1           0       -3.248438    0.043149    0.008985
      7          1           0        2.073222   -1.141729    0.008568
      8          1           0        2.034547    1.191952    0.186973
      9          1           0        0.498846    1.922648    0.226161
 ---------------------------------------------------------------------

 SCF Done:  E(RB3LYP) =  -226.148212582     A.U. after    1 cycles

 The electronic state is 1-A.
 Alpha  occ. eigenvalues --  -14.35947 -14.30393 -10.28127 -10.19941 -10.19704
 Alpha  occ. eigenvalues --   -0.95406  -0.85545  -0.75923  -0.65105  -0.54632
 Alpha  occ. eigenvalues --   -0.52600  -0.51672  -0.44097  -0.39419  -0.28979
 Alpha  occ. eigenvalues --   -0.28401  -0.26799  -0.24487
 Alpha virt. eigenvalues --   -0.01740   0.03936   0.07300   0.10992   0.12261
 Alpha virt. eigenvalues --    0.13661   0.16251   0.24799   0.30744   0.43182
 Alpha virt. eigenvalues --    0.45250   0.51070   0.51986   0.53992   0.58391

 Mulliken charges:
               1
     1  C   -0.421951
     2  C    0.348861
     3  C    0.287655
     4  N   -0.530717
     5  N   -0.599064
     6  H    0.169271
     7  H    0.212869
     8  H    0.262551
     9  H    0.270526
 Sum of Mulliken charges =  -0.00000

 Dipole moment (field-independent basis, Debye):
    X=              0.5448    Y=              3.1862    Z=              0.8568  Tot=              3.3441
 Quadrupole moment (field-independent basis, Debye-Ang):
   XX=            -18.0559   YY=            -30.7178   ZZ=            -30.9194
   XY=              1.6688   XZ=              1.1001   YZ=              1.5940

  Exact polarizability:  65.686  -5.063  39.894   0.174   0.248  17.283
 Approx polarizability: 104.495 -14.415  66.365  -0.125  -0.677  24.113

                      1                      2                      3
                      A                      A                      A
 Frequencies --    196.7364               279.2025               391.0901
 Red. masses --      3.9223                 3.0481                 1.0920
 Frc consts  --      0.0894                 0.1400                 0.0984
 IR Inten    --      6.7735                12.0692                34.7995

                      4                      5                      6
                      A                      A                      A
 Frequencies --    452.3569               490.1127               605.1904
 Red. masses --      1.4310                 2.5330                 5.4957
 Frc consts  --      0.1725                 0.3585                 1.1859
 IR Inten    --    191.4732                59.5805                14.9192

                      7                      8                      9
                      A                      A                      A
 Frequencies --    645.1490               662.9993               713.0532
 Red. masses --      1.3681                 1.2629                 4.6565
 Frc consts  --      0.3355                 0.3271                 1.3949
 IR Inten    --     38.2322                42.6148                 8.7188

                     10                     11                     12
                      A                      A                      A
 Frequencies --    817.2125               854.4211              1104.4477
 Red. masses --      3.6018                 1.2962                 1.7474
 Frc consts  --      1.4172                 0.5575                 1.2558
 IR Inten    --     20.2131                77.7718                 9.9552

                     13                     14                     15
                      A                      A                      A
 Frequencies --   1141.4432              1410.6981              1640.4536
 Red. masses --      1.4001                 2.6225                 1.2092
 Frc consts  --      1.0748                 3.0749                 1.9172
 IR Inten    --     68.2253               168.5766                68.4338

                     16                     17                     18
                      A                      A                      A
 Frequencies --   1703.2459              2240.7012              3441.5888
 Red. masses --      6.0804                 5.9944                 1.0746
 Frc consts  --     10.3929                17.7322                 7.4989
 IR Inten    --    208.0606                17.3796                 8.9482

                     19                     20                     21
                      A                      A                      A
 Frequencies --   3488.2410              3576.8010              3699.6207
 Red. masses --      1.1609                 1.0468                 1.1014
 Frc consts  --      8.3228                 7.8901                 8.8823
 IR Inten    --     57.0324                23.8761                18.8094

 - Thermochemistry -
 -------------------
 Temperature   298.150 Kelvin.  Pressure   1.00000 Atm.
 Atom     1 has atomic number  6 and mass  12.00000

 Molecular mass:    68.03745 amu.
 Principal axes and moments of inertia in atomic units:
                           1         2         3
     Eigenvalues --   168.47988 436.16563 603.61611
           X            0.99992   0.01205   0.00410
           Y           -0.01210   0.99983   0.01407
           Z           -0.00393  -0.01412   0.99989
 This molecule is an asymmetric top.
 Rotational symmetry number  1.
 Rotational temperatures (Kelvin)      0.51409     0.19858     0.14349
 Rotational constants (GHZ):          10.71191     4.13774     2.98988
 Zero-point vibrational energy     176776.8 (Joules/Mol)
                                   42.25066 (Kcal/Mol)
 Warning -- explicit consideration of   6 degrees of freedom as
           vibrations may cause significant error
 Vibrational temperatures:    283.06   401.71   562.69   650.84   705.16
          (Kelvin)            870.73   928.22   953.91  1025.92  1175.79
                             1229.32  1589.05  1642.28  2029.68  2360.24
                             2450.59  3223.87  4951.67  5018.79  5146.21
                             5322.92

 Zero-point correction=                           0.067331 (Hartree/Particle)
 Thermal correction to Energy=                    0.072713
 Thermal correction to Enthalpy=                  0.073657
 Thermal correction to Gibbs Free Energy=         0.039445
 Sum of electronic and zero-point Energies=           -226.080882
 Sum of electronic and thermal Energies=              -226.075500
 Sum of electronic and thermal Enthalpies=            -226.074556
 Sum of electronic and thermal Free Energies=         -226.108768

                     E (Thermal)             CV                S
                      KCal/Mol        Cal/Mol-Kelvin    Cal/Mol-Kelvin
 Total                   45.628             19.199             72.005
 Electronic               0.000              0.000              0.000
 Translational            0.889              2.981             38.570
 Rotational               0.889              2.981             25.298
 Vibrational             43.850             13.237              8.137
 Vibration     1          0.636              1.844              2.163
 Vibration     2          0.680              1.712              1.539
 Vibration     3          0.759              1.489              0.996
 Vibration     4          0.811              1.356              0.789
 Vibration     5          0.846              1.272              0.683
 Vibration     6          0.964              1.021              0.441

 Optimization completed.
    -- Stationary point found.
 Normal termination of Gaussian 09 at Thu Sep  8 14:53:08 2022.
