 Gaussian 09, Revision E.01,
 Gaussian 09:  ES64L-G09RevE.01 30-Nov-2015

 -------------------------
 #P OPT Freq B3LYP/6-31G**
 -------------------------

 --------
 Frag_177
 --------
 Symbolic Z-matrix:
 Charge =  0 Multiplicity = 1

 SCF Done:  E(RB3LYP) =  -133.920441633     A.U. after   11 cycles
 SCF Done:  E(RB3LYP) =  -133.927689010     A.U. after   10 cycles
 SCF Done:  E(RB3LYP) =  -133.928317447     A.U. after    9 cycles
 SCF Done:  E(RB3LYP) =  -133.928420542     A.U. after   10 cycles
 SCF Done:  E(RB3LYP) =  -133.928432134     A.U. after    8 cycles
 SCF Done:  E(RB3LYP) =  -133.928433843     A.U. after    7 cycles
 Optimization completed.
    -- Stationary point found.
 Normal termination of Gaussian 09 at Sat Aug 21 01:39:27 2021.

 ----------------------------------------------------------------------
 #P Geom=AllCheck Guess=TCheck SCRF=Check GenChk RB3LYP/6-31G(d,p) Freq
 ----------------------------------------------------------------------

 Structure from the checkpoint file:  "/public/home/users/caep010/.cache/gau_scr/Gau-105647.chk"
 --------
 Frag_177
 --------
 Charge =  0 Multiplicity = 1

                         Standard orientation:
 ---------------------------------------------------------------------
 Center     Atomic      Atomic             Coordinates (Angstroms)
 Number     Number       Type             X           Y           Z
 ---------------------------------------------------------------------
      1          6           0        0.742222   -0.397853    0.022708
      2          6           0       -0.742221   -0.397855    0.022708
      3          7           0       -0.000001    0.859372   -0.171449
      4          1           0        1.254455   -0.570394    0.967474
      5          1           0        1.285726   -0.747458   -0.851618
      6          1           0       -1.285724   -0.747461   -0.851617
      7          1           0       -1.254453   -0.570397    0.967474
      8          1           0       -0.000002    1.394351    0.695930
 ---------------------------------------------------------------------

 SCF Done:  E(RB3LYP) =  -133.928433843     A.U. after    1 cycles

 The electronic state is 1-A.
 Alpha  occ. eigenvalues --  -14.32593 -10.21167 -10.21139  -0.94849  -0.65348
 Alpha  occ. eigenvalues --   -0.61160  -0.51511  -0.46336  -0.37216  -0.33844
 Alpha  occ. eigenvalues --   -0.33040  -0.24425
 Alpha virt. eigenvalues --    0.08081   0.12413   0.13099   0.14685   0.15561
 Alpha virt. eigenvalues --    0.22283   0.23255   0.27540   0.46878   0.55828
 Alpha virt. eigenvalues --    0.57021   0.57970   0.63594   0.67901   0.73023

 Mulliken charges:
               1
     1  C   -0.113407
     2  C   -0.113407
     3  N   -0.472399
     4  H    0.105818
     5  H    0.120320
     6  H    0.120320
     7  H    0.105818
     8  H    0.246937
 Sum of Mulliken charges =  -0.00000

 Dipole moment (field-independent basis, Debye):
    X=              0.0000    Y=             -0.8770    Z=              1.5216  Tot=              1.7562
 Quadrupole moment (field-independent basis, Debye-Ang):
   XX=            -18.3401   YY=            -20.1443   ZZ=            -18.1943
   XY=              0.0000   XZ=             -0.0000   YZ=              2.5267

  Exact polarizability:  29.865   0.000  24.696  -0.000   1.662  25.294
 Approx polarizability:  39.791  -0.000  34.879  -0.000   1.442  33.876

                      1                      2                      3
                      A                      A                      A
 Frequencies --    770.4948               870.9118               878.7455
 Red. masses --      1.1948                 8.3734                 2.6383
 Frc consts  --      0.4179                 3.7420                 1.2003
 IR Inten    --     30.4575                 0.0165                46.9937

                      4                      5                      6
                      A                      A                      A
 Frequencies --    916.7320              1009.4504              1111.3014
 Red. masses --      1.0523                 1.0497                 1.3125
 Frc consts  --      0.5211                 0.6302                 0.9550
 IR Inten    --     12.3394                 9.5715                 2.0490

                      7                      8                      9
                      A                      A                      A
 Frequencies --   1122.7011              1155.3705              1249.4435
 Red. masses --      1.3088                 1.1111                 2.4207
 Frc consts  --      0.9720                 0.8739                 2.2265
 IR Inten    --      4.9802                 2.8888                18.4184

                     10                     11                     12
                      A                      A                      A
 Frequencies --   1276.7695              1303.8113              1512.9037
 Red. masses --      1.3093                 1.5299                 1.0774
 Frc consts  --      1.2575                 1.5323                 1.4529
 IR Inten    --      8.4938                 3.8504                 0.0833

                     13                     14                     15
                      A                      A                      A
 Frequencies --   1544.3669              3113.3735              3118.9598
 Red. masses --      1.2538                 1.0476                 1.0582
 Frc consts  --      1.7619                 5.9829                 6.0649
 IR Inten    --      1.6459                33.8354                16.9025

                     16                     17                     18
                      A                      A                      A
 Frequencies --   3193.1024              3206.2656              3497.8436
 Red. masses --      1.1201                 1.1190                 1.0769
 Frc consts  --      6.7286                 6.7777                 7.7629
 IR Inten    --      0.6128                40.1050                 0.4767

 - Thermochemistry -
 -------------------
 Temperature   298.150 Kelvin.  Pressure   1.00000 Atm.
 Atom     1 has atomic number  6 and mass  12.00000

 Molecular mass:    43.04220 amu.
 Principal axes and moments of inertia in atomic units:
                           1         2         3
     Eigenvalues --    78.87531  85.26691 134.48977
           X            1.00000   0.00000  -0.00000
           Y           -0.00000   0.99676   0.08042
           Z            0.00000  -0.08042   0.99676
 This molecule is an asymmetric top.
 Rotational symmetry number  1.
 Rotational temperatures (Kelvin)      1.09811     1.01580     0.64402
 Rotational constants (GHZ):          22.88094    21.16579    13.41917
 Zero-point vibrational energy     184539.2 (Joules/Mol)
                                   44.10593 (Kcal/Mol)
 Vibrational temperatures:   1108.57  1253.05  1264.32  1318.97  1452.37
          (Kelvin)           1598.91  1615.31  1662.32  1797.67  1836.98
                             1875.89  2176.73  2222.00  4479.44  4487.48
                             4594.16  4613.10  5032.61

 Zero-point correction=                           0.070287 (Hartree/Particle)
 Thermal correction to Energy=                    0.073525
 Thermal correction to Enthalpy=                  0.074469
 Thermal correction to Gibbs Free Energy=         0.046115
 Sum of electronic and zero-point Energies=           -133.858147
 Sum of electronic and thermal Energies=              -133.854909
 Sum of electronic and thermal Enthalpies=            -133.853965
 Sum of electronic and thermal Free Energies=         -133.882319

                     E (Thermal)             CV                S
                      KCal/Mol        Cal/Mol-Kelvin    Cal/Mol-Kelvin
 Total                   46.137              9.962             59.675
 Electronic               0.000              0.000              0.000
 Translational            0.889              2.981             37.205
 Rotational               0.889              2.981             21.430
 Vibrational             44.360              4.000              1.040

 Optimization completed.
    -- Stationary point found.
 Normal termination of Gaussian 09 at Sat Aug 21 01:39:33 2021.
