 Gaussian 09, Revision E.01,
 Gaussian 09:  ES64L-G09RevE.01 30-Nov-2015

 ----------------------------
 #P OPT Freq B3LYP/6-31G(d,p)
 ----------------------------

 --------
 Frag_937
 --------
 Symbolic Z-matrix:
 Charge =  0 Multiplicity = 1

 SCF Done:  E(RB3LYP) =  -359.229155641     A.U. after   14 cycles
 SCF Done:  E(RB3LYP) =  -359.229216851     A.U. after   11 cycles
 SCF Done:  E(RB3LYP) =  -359.229195855     A.U. after   12 cycles
 SCF Done:  E(RB3LYP) =  -359.229235624     A.U. after   11 cycles
 SCF Done:  E(RB3LYP) =  -359.229236947     A.U. after    8 cycles
 SCF Done:  E(RB3LYP) =  -359.229237394     A.U. after    7 cycles
 SCF Done:  E(RB3LYP) =  -359.229237574     A.U. after    7 cycles
 Optimization completed.
    -- Stationary point found.
 Normal termination of Gaussian 09 at Thu Sep  8 15:03:41 2022.

 ----------------------------------------------------------------------
 #P Geom=AllCheck Guess=TCheck SCRF=Check GenChk RB3LYP/6-31G(d,p) Freq
 ----------------------------------------------------------------------

 Structure from the checkpoint file:  "B3LYP6-31Gdp.Frag_937.chk"
 --------
 Frag_937
 --------
 Charge =  0 Multiplicity = 1

                         Standard orientation:
 ---------------------------------------------------------------------
 Center     Atomic      Atomic             Coordinates (Angstroms)
 Number     Number       Type             X           Y           Z
 ---------------------------------------------------------------------
      1          6           0        1.128011   -0.174169    1.390377
      2          6           0        0.591467   -0.001805   -0.036825
      3          7           0        1.130627    1.133493   -0.752377
      4          8           0        0.941390   -1.207443   -0.740423
      5          6           0       -0.949758    0.142126    0.004388
      6          7           0       -1.445593    1.321974    0.088257
      7          7           0       -1.597513   -1.065483    0.030757
      8          1           0        0.718417   -1.075210    1.854509
      9          1           0        0.856130    0.691484    1.999428
     10          1           0        2.217858   -0.272058    1.356101
     11          1           0        0.481100    1.912542   -0.655118
     12          1           0        2.035338    1.403445   -0.378258
     13          1           0        1.059313   -0.910346   -1.655506
     14          1           0       -2.467226    1.303514    0.141412
     15          1           0       -1.066496   -1.840389   -0.344849
     16          1           0       -2.596527   -1.080233   -0.108432
 ---------------------------------------------------------------------

 SCF Done:  E(RB3LYP) =  -359.229237574     A.U. after    1 cycles

 The electronic state is 1-A.
 Alpha  occ. eigenvalues --  -19.14128 -14.34667 -14.31023 -14.29369 -10.26821
 Alpha  occ. eigenvalues --  -10.25275 -10.17422  -1.02668  -0.93904  -0.87662
 Alpha  occ. eigenvalues --   -0.83798  -0.73120  -0.64180  -0.55643  -0.53071
 Alpha  occ. eigenvalues --   -0.52666  -0.48591  -0.46594  -0.43938  -0.40775
 Alpha  occ. eigenvalues --   -0.38788  -0.37217  -0.35465  -0.34061  -0.29128
 Alpha  occ. eigenvalues --   -0.26219  -0.23972  -0.23817
 Alpha virt. eigenvalues --    0.03439   0.07400   0.10150   0.11627   0.14224
 Alpha virt. eigenvalues --    0.15639   0.16089   0.17268   0.17594   0.19648
 Alpha virt. eigenvalues --    0.23453   0.24683   0.27417   0.30619   0.32492

 Mulliken charges:
               1
     1  C   -0.298378
     2  C    0.351834
     3  N   -0.624170
     4  O   -0.563794
     5  C    0.445833
     6  N   -0.604113
     7  N   -0.614528
     8  H    0.116415
     9  H    0.117752
    10  H    0.106836
    11  H    0.275425
    12  H    0.238585
    13  H    0.307039
    14  H    0.206068
    15  H    0.283005
    16  H    0.256192
 Sum of Mulliken charges =  -0.00000

 Dipole moment (field-independent basis, Debye):
    X=             -1.0029    Y=             -1.0142    Z=             -0.2234  Tot=              1.4437
 Quadrupole moment (field-independent basis, Debye-Ang):
   XX=            -34.6793   YY=            -44.3864   ZZ=            -42.7763
   XY=              5.4209   XZ=              1.9560   YZ=              1.9675

  Exact polarizability:  61.627  -0.442  61.262  -0.608   0.226  42.688
 Approx polarizability:  79.728  -3.481  99.247  -2.859   0.502  57.985

                      1                      2                      3
                      A                      A                      A
 Frequencies --     77.5871               244.0902               258.8679
 Red. masses --      5.1568                 2.6981                 1.0681
 Frc consts  --      0.0183                 0.0947                 0.0422
 IR Inten    --      3.9884                 2.6731                 1.6165

                      4                      5                      6
                      A                      A                      A
 Frequencies --    299.7161               320.3857               363.1960
 Red. masses --      1.5508                 2.3648                 2.0375
 Frc consts  --      0.0821                 0.1430                 0.1584
 IR Inten    --     12.1615                19.2357                 4.5168

                      7                      8                      9
                      A                      A                      A
 Frequencies --    398.1262               413.9127               463.1953
 Red. masses --      3.6227                 1.5025                 1.2543
 Frc consts  --      0.3383                 0.1517                 0.1586
 IR Inten    --      7.6316               150.9787                62.9278

                     10                     11                     12
                      A                      A                      A
 Frequencies --    505.2088               533.9311               564.5843
 Red. masses --      1.7814                 2.8147                 2.5022
 Frc consts  --      0.2679                 0.4728                 0.4699
 IR Inten    --     33.4293                 6.0563                23.3814

                     13                     14                     15
                      A                      A                      A
 Frequencies --    617.3903               713.9061               728.4727
 Red. masses --      1.2306                 3.3743                 3.3889
 Frc consts  --      0.2764                 1.0132                 1.0596
 IR Inten    --    127.9994                 1.7256                 5.2348

                     16                     17                     18
                      A                      A                      A
 Frequencies --    849.3659               872.0750               913.8412
 Red. masses --      1.4393                 1.4931                 2.3921
 Frc consts  --      0.6118                 0.6690                 1.1770
 IR Inten    --     90.3794               135.2554                16.4323

                     19                     20                     21
                      A                      A                      A
 Frequencies --    987.0232              1051.9596              1101.7248
 Red. masses --      1.5065                 1.8903                 1.5283
 Frc consts  --      0.8647                 1.2325                 1.0929
 IR Inten    --     46.3707                70.8792                 6.8828

                     22                     23                     24
                      A                      A                      A
 Frequencies --   1118.8205              1140.4705              1224.0151
 Red. masses --      1.5808                 1.8477                 2.8881
 Frc consts  --      1.1659                 1.4160                 2.5494
 IR Inten    --     70.1877                53.1957                49.5217

                     25                     26                     27
                      A                      A                      A
 Frequencies --   1339.9767              1361.1564              1412.0863
 Red. masses --      1.5706                 1.5784                 1.3993
 Frc consts  --      1.6616                 1.7230                 1.6439
 IR Inten    --     32.2664                84.4639                22.0005

                     28                     29                     30
                      A                      A                      A
 Frequencies --   1439.0933              1495.8884              1513.6518
 Red. masses --      2.2747                 1.0546                 1.0791
 Frc consts  --      2.7756                 1.3904                 1.4567
 IR Inten    --     51.6307                 1.0926                 0.7623

                     31                     32                     33
                      A                      A                      A
 Frequencies --   1617.1541              1648.6485              1738.1637
 Red. masses --      1.2430                 1.1373                 6.0870
 Frc consts  --      1.9152                 1.8212                10.8351
 IR Inten    --     68.2512               140.8506               161.2900

                     34                     35                     36
                      A                      A                      A
 Frequencies --   3052.9071              3130.7199              3145.8974
 Red. masses --      1.0350                 1.1021                 1.1040
 Frc consts  --      5.6837                 6.3643                 6.4374
 IR Inten    --     14.5503                21.4803                15.1344

                     37                     38                     39
                      A                      A                      A
 Frequencies --   3454.1222              3484.8676              3568.3548
 Red. masses --      1.0749                 1.0506                 1.0460
 Frc consts  --      7.5563                 7.5174                 7.8476
 IR Inten    --     15.8468                29.4047                41.6885

                     40                     41                     42
                      A                      A                      A
 Frequencies --   3586.5793              3700.9296              3778.8869
 Red. masses --      1.0925                 1.1015                 1.0650
 Frc consts  --      8.2800                 8.8890                 8.9606
 IR Inten    --     13.0931                40.6325                35.0723

 - Thermochemistry -
 -------------------
 Temperature   298.150 Kelvin.  Pressure   1.00000 Atm.
 Atom     1 has atomic number  6 and mass  12.00000

 Molecular mass:   103.07456 amu.
 Principal axes and moments of inertia in atomic units:
                           1         2         3
     Eigenvalues --   533.14487 736.45761 893.20247
           X            0.99743   0.06264   0.03478
           Y           -0.06253   0.99803  -0.00420
           Z           -0.03498   0.00202   0.99939
 This molecule is an asymmetric top.
 Rotational symmetry number  1.
 Warning -- assumption of classical behavior for rotation
           may cause significant error
 Rotational temperatures (Kelvin)      0.16246     0.11761     0.09697
 Rotational constants (GHZ):           3.38509     2.45057     2.02053
 Zero-point vibrational energy     360261.1 (Joules/Mol)
                                   86.10447 (Kcal/Mol)
 Warning -- explicit consideration of  13 degrees of freedom as
           vibrations may cause significant error
 Vibrational temperatures:    111.63   351.19   372.45   431.22   460.96
          (Kelvin)            522.56   572.81   595.53   666.43   726.88
                              768.21   812.31   888.29  1027.15  1048.11
                             1222.05  1254.72  1314.81  1420.10  1513.53
                             1585.13  1609.73  1640.88  1761.08  1927.93
                             1958.40  2031.67  2070.53  2152.25  2177.80
                             2326.72  2372.03  2500.83  4392.45  4504.40
                             4526.24  4969.71  5013.94  5134.06  5160.28
                             5324.81  5436.97

 Zero-point correction=                           0.137216 (Hartree/Particle)
 Thermal correction to Energy=                    0.145158
 Thermal correction to Enthalpy=                  0.146102
 Thermal correction to Gibbs Free Energy=         0.105853
 Sum of electronic and zero-point Energies=           -359.092021
 Sum of electronic and thermal Energies=              -359.084080
 Sum of electronic and thermal Enthalpies=            -359.083135
 Sum of electronic and thermal Free Energies=         -359.123385

                     E (Thermal)             CV                S
                      KCal/Mol        Cal/Mol-Kelvin    Cal/Mol-Kelvin
 Total                   91.088             30.650             84.712
 Electronic               0.000              0.000              0.000
 Translational            0.889              2.981             39.808
 Rotational               0.889              2.981             27.353
 Vibrational             89.311             24.688             17.551
 Vibration     1          0.599              1.964              3.951
 Vibration     2          0.659              1.773              1.773
 Vibration     3          0.668              1.748              1.669
 Vibration     4          0.692              1.674              1.418
 Vibration     5          0.706              1.635              1.308
 Vibration     6          0.737              1.548              1.108
 Vibration     7          0.764              1.474              0.970
 Vibration     8          0.778              1.440              0.913
 Vibration     9          0.821              1.332              0.757
 Vibration    10          0.860              1.238              0.645
 Vibration    11          0.889              1.175              0.578
 Vibration    12          0.920              1.108              0.515
 Vibration    13          0.977              0.995              0.421

 Normal termination of Gaussian 09 at Thu Sep  8 15:03:55 2022.
