 Gaussian 09, Revision E.01,
 Gaussian 09:  ES64L-G09RevE.01 30-Nov-2015

 -------------------------
 #P OPT Freq B3LYP/6-31G**
 -------------------------

 --------
 Frag_232
 --------
 Symbolic Z-matrix:
 Charge =  0 Multiplicity = 1

 SCF Done:  E(RB3LYP) =  -259.428288290     A.U. after   16 cycles
 SCF Done:  E(RB3LYP) =  -259.453602242     A.U. after   14 cycles
 SCF Done:  E(RB3LYP) =  -259.456999092     A.U. after   14 cycles
 SCF Done:  E(RB3LYP) =  -259.457384441     A.U. after   13 cycles
 SCF Done:  E(RB3LYP) =  -259.457546672     A.U. after   12 cycles
 SCF Done:  E(RB3LYP) =  -259.457574966     A.U. after   13 cycles
 SCF Done:  E(RB3LYP) =  -259.457607775     A.U. after   10 cycles
 SCF Done:  E(RB3LYP) =  -259.457622158     A.U. after   13 cycles
 SCF Done:  E(RB3LYP) =  -259.457640127     A.U. after   13 cycles
 SCF Done:  E(RB3LYP) =  -259.457654423     A.U. after   13 cycles
 SCF Done:  E(RB3LYP) =  -259.457666486     A.U. after   10 cycles
 SCF Done:  E(RB3LYP) =  -259.457681511     A.U. after   12 cycles
 SCF Done:  E(RB3LYP) =  -259.457686613     A.U. after   10 cycles
 SCF Done:  E(RB3LYP) =  -259.457698574     A.U. after   13 cycles
 SCF Done:  E(RB3LYP) =  -259.457707882     A.U. after   13 cycles
 SCF Done:  E(RB3LYP) =  -259.457712219     A.U. after   12 cycles
 SCF Done:  E(RB3LYP) =  -259.457713392     A.U. after   10 cycles
 SCF Done:  E(RB3LYP) =  -259.457713771     A.U. after   10 cycles
 Optimization completed.
    -- Stationary point found.
 Normal termination of Gaussian 09 at Sat Aug 21 01:38:12 2021.

 ----------------------------------------------------------------------
 #P Geom=AllCheck Guess=TCheck SCRF=Check GenChk RB3LYP/6-31G(d,p) Freq
 ----------------------------------------------------------------------

 Structure from the checkpoint file:  "/public/home/users/caep010/.cache/gau_scr/Gau-165581.chk"
 --------
 Frag_232
 --------
 Charge =  0 Multiplicity = 1

                         Standard orientation:
 ---------------------------------------------------------------------
 Center     Atomic      Atomic             Coordinates (Angstroms)
 Number     Number       Type             X           Y           Z
 ---------------------------------------------------------------------
      1          7           0        1.872099   -0.232121    0.090484
      2          7           0        0.768299   -0.720639   -0.166949
      3          6           0       -0.441927    0.139469   -0.028379
      4          7           0       -0.509176    1.411477   -0.037253
      5          7           0       -1.518187   -0.678312    0.110072
      6          1           0        1.789579    0.772693    0.399237
      7          1           0        0.408706    1.849465   -0.145296
      8          1           0       -1.400287   -1.652096   -0.118537
      9          1           0       -2.437684   -0.269704    0.060395
 ---------------------------------------------------------------------

 SCF Done:  E(RB3LYP) =  -259.457713771     A.U. after    1 cycles

 The electronic state is 1-A.
 Alpha  occ. eigenvalues --  -14.41195 -14.40622 -14.36652 -14.31755 -10.29530
 Alpha  occ. eigenvalues --   -1.05997  -0.95792  -0.87094  -0.71777  -0.60709
 Alpha  occ. eigenvalues --   -0.58429  -0.51479  -0.47930  -0.44101  -0.39288
 Alpha  occ. eigenvalues --   -0.36196  -0.30606  -0.25656  -0.24828
 Alpha virt. eigenvalues --   -0.08128   0.05747   0.06448   0.08510   0.12245
 Alpha virt. eigenvalues --    0.17853   0.22990   0.31007   0.34260   0.44230
 Alpha virt. eigenvalues --    0.54430   0.54879   0.57844   0.60782   0.65086

 Mulliken charges:
               1
     1  N   -0.201510
     2  N   -0.206539
     3  C    0.542402
     4  N   -0.549057
     5  N   -0.585249
     6  H    0.206124
     7  H    0.218303
     8  H    0.289191
     9  H    0.286333
 Sum of Mulliken charges =   0.00000

 Dipole moment (field-independent basis, Debye):
    X=             -1.3524    Y=             -0.4053    Z=             -0.0581  Tot=              1.4131
 Quadrupole moment (field-independent basis, Debye-Ang):
   XX=            -27.6370   YY=            -29.9718   ZZ=            -30.0483
   XY=              8.0112   XZ=              1.2427   YZ=              0.1662

  Exact polarizability:  48.310   5.159  44.158   1.162   1.153  17.771
 Approx polarizability:  73.401   9.732  77.767   2.567   1.913  26.412

                      1                      2                      3
                      A                      A                      A
 Frequencies --     78.1990               295.5776               365.7402
 Red. masses --      3.4742                 1.2156                 3.9240
 Frc consts  --      0.0125                 0.0626                 0.3093
 IR Inten    --      3.6967               199.5810                14.7258

                      4                      5                      6
                      A                      A                      A
 Frequencies --    471.3456               480.0396               568.8358
 Red. masses --      1.8313                 1.6472                 2.8384
 Frc consts  --      0.2397                 0.2236                 0.5411
 IR Inten    --     27.0239                 8.4981               130.4036

                      7                      8                      9
                      A                      A                      A
 Frequencies --    682.5598               760.7162               773.2643
 Red. masses --      3.8451                 1.6738                 1.9922
 Frc consts  --      1.0554                 0.5707                 0.7019
 IR Inten    --      9.4736                28.8700                51.9974

                     10                     11                     12
                      A                      A                      A
 Frequencies --   1013.2682              1102.2191              1127.2454
 Red. masses --      1.6012                 1.4734                 1.5922
 Frc consts  --      0.9686                 1.0547                 1.1920
 IR Inten    --     30.7239               119.4960                18.2071

                     13                     14                     15
                      A                      A                      A
 Frequencies --   1370.8116              1475.8141              1607.0729
 Red. masses --      2.8068                 1.2350                 1.2818
 Frc consts  --      3.1076                 1.5848                 1.9504
 IR Inten    --     71.9986                72.8565                59.3234

                     16                     17                     18
                      A                      A                      A
 Frequencies --   1686.7830              1773.1588              3001.7487
 Red. masses --      9.3252                 7.4859                 1.0682
 Frc consts  --     15.6325                13.8673                 5.6709
 IR Inten    --     21.8687               271.3829                79.3143

                     19                     20                     21
                      A                      A                      A
 Frequencies --   3463.6820              3618.1761              3753.0705
 Red. masses --      1.0745                 1.0449                 1.1050
 Frc consts  --      7.5954                 8.0592                 9.1701
 IR Inten    --      0.7058                61.9193                59.7187

 - Thermochemistry -
 -------------------
 Temperature   298.150 Kelvin.  Pressure   1.00000 Atm.
 Atom     1 has atomic number  7 and mass  14.00307

 Molecular mass:    72.04360 amu.
 Principal axes and moments of inertia in atomic units:
                           1         2         3
     Eigenvalues --   178.28421 386.60259 558.47707
           X            0.99619   0.08694   0.00652
           Y           -0.08697   0.99620   0.00520
           Z           -0.00604  -0.00575   0.99997
 This molecule is an asymmetric top.
 Rotational symmetry number  1.
 Rotational temperatures (Kelvin)      0.48582     0.22404     0.15509
 Rotational constants (GHZ):          10.12283     4.66821     3.23154
 Zero-point vibrational energy     176265.7 (Joules/Mol)
                                   42.12852 (Kcal/Mol)
 Warning -- explicit consideration of   6 degrees of freedom as
           vibrations may cause significant error
 Vibrational temperatures:    112.51   425.27   526.22   678.16   690.67
          (Kelvin)            818.43   982.05  1094.50  1112.55  1457.87
                             1585.85  1621.85  1972.29  2123.36  2312.22
                             2426.90  2551.18  4318.84  4983.46  5205.74
                             5399.82

 Zero-point correction=                           0.067136 (Hartree/Particle)
 Thermal correction to Energy=                    0.072579
 Thermal correction to Enthalpy=                  0.073523
 Thermal correction to Gibbs Free Energy=         0.038659
 Sum of electronic and zero-point Energies=           -259.390578
 Sum of electronic and thermal Energies=              -259.385135
 Sum of electronic and thermal Enthalpies=            -259.384191
 Sum of electronic and thermal Free Energies=         -259.419055

                     E (Thermal)             CV                S
                      KCal/Mol        Cal/Mol-Kelvin    Cal/Mol-Kelvin
 Total                   45.544             18.348             73.378
 Electronic               0.000              0.000              0.000
 Translational            0.889              2.981             38.741
 Rotational               0.889              2.981             25.157
 Vibrational             43.767             12.386              9.481
 Vibration     1          0.599              1.964              3.936
 Vibration     2          0.690              1.682              1.442
 Vibration     3          0.739              1.543              1.098
 Vibration     4          0.828              1.314              0.734
 Vibration     5          0.836              1.294              0.710
 Vibration     6          0.925              1.099              0.506

 Optimization completed.
    -- Stationary point found.
 Normal termination of Gaussian 09 at Sat Aug 21 01:38:19 2021.
