 Gaussian 09, Revision E.01,
 Gaussian 09:  ES64L-G09RevE.01 30-Nov-2015

 ----------------------------
 #P OPT Freq B3LYP/6-31G(d,p)
 ----------------------------

 --------
 Frag_630
 --------
 Symbolic Z-matrix:
 Charge =  0 Multiplicity = 1

 SCF Done:  E(RB3LYP) =  -323.718058400     A.U. after   13 cycles
 SCF Done:  E(RB3LYP) =  -323.718126197     A.U. after    9 cycles
 SCF Done:  E(RB3LYP) =  -323.718129170     A.U. after   10 cycles
 SCF Done:  E(RB3LYP) =  -323.718131590     A.U. after    8 cycles
 SCF Done:  E(RB3LYP) =  -323.718132217     A.U. after    8 cycles
 SCF Done:  E(RB3LYP) =  -323.718132348     A.U. after    8 cycles
 SCF Done:  E(RB3LYP) =  -323.718132356     A.U. after    7 cycles
 Optimization completed.
    -- Stationary point found.
 Normal termination of Gaussian 09 at Thu Sep  8 14:55:41 2022.

 ----------------------------------------------------------------------
 #P Geom=AllCheck Guess=TCheck SCRF=Check GenChk RB3LYP/6-31G(d,p) Freq
 ----------------------------------------------------------------------

 Structure from the checkpoint file:  "B3LYP6-31Gdp.Frag_630.chk"
 --------
 Frag_630
 --------
 Charge =  0 Multiplicity = 1

                         Standard orientation:
 ---------------------------------------------------------------------
 Center     Atomic      Atomic             Coordinates (Angstroms)
 Number     Number       Type             X           Y           Z
 ---------------------------------------------------------------------
      1          6           0        2.004154    0.131179   -0.019934
      2          7           0        0.940791    0.104419   -0.709655
      3          6           0       -0.344309   -0.033574   -0.003622
      4          6           0       -1.066047    1.310401   -0.014944
      5          8           0       -1.064970   -1.028657   -0.705615
      6          8           0       -0.250572   -0.456839    1.331144
      7          1           0        2.962252    0.231091   -0.532494
      8          1           0        2.009830    0.058480    1.072988
      9          1           0       -2.081053    1.165480    0.360670
     10          1           0       -0.544556    2.028394    0.623310
     11          1           0       -1.107420    1.703797   -1.032791
     12          1           0       -0.676014   -1.059461   -1.591709
     13          1           0       -0.187029   -1.422784    1.294380
 ---------------------------------------------------------------------

 SCF Done:  E(RB3LYP) =  -323.718132356     A.U. after    1 cycles

 The electronic state is 1-A.
 Alpha  occ. eigenvalues --  -19.15497 -19.15224 -14.33948 -10.31456 -10.23462
 Alpha  occ. eigenvalues --  -10.17513  -1.07631  -0.99737  -0.91281  -0.74445
 Alpha  occ. eigenvalues --   -0.64619  -0.58681  -0.53843  -0.51973  -0.46761
 Alpha  occ. eigenvalues --   -0.43756  -0.40704  -0.39027  -0.37229  -0.35849
 Alpha  occ. eigenvalues --   -0.32150  -0.31653  -0.28752  -0.26012
 Alpha virt. eigenvalues --   -0.01858   0.08554   0.10961   0.13515   0.14427
 Alpha virt. eigenvalues --    0.16408   0.17067   0.18257   0.23227   0.24350
 Alpha virt. eigenvalues --    0.25222   0.27879   0.31975   0.51211   0.57229

 Mulliken charges:
               1
     1  C   -0.024778
     2  N   -0.371594
     3  C    0.566405
     4  C   -0.296275
     5  O   -0.552550
     6  O   -0.526364
     7  H    0.109638
     8  H    0.116850
     9  H    0.126327
    10  H    0.112984
    11  H    0.111692
    12  H    0.316848
    13  H    0.310818
 Sum of Mulliken charges =  -0.00000

 Dipole moment (field-independent basis, Debye):
    X=              1.4505    Y=             -0.2710    Z=             -0.2274  Tot=              1.4931
 Quadrupole moment (field-independent basis, Debye-Ang):
   XX=            -34.2697   YY=            -33.7529   ZZ=            -36.2448
   XY=             -1.6645   XZ=              1.7710   YZ=             -0.3979

  Exact polarizability:  55.890   0.545  37.605   2.798  -0.205  43.224
 Approx polarizability:  75.890   3.467  50.497   7.992   0.432  65.310

                      1                      2                      3
                      A                      A                      A
 Frequencies --    125.5222               240.2608               304.6545
 Red. masses --      3.3263                 1.0350                 1.5183
 Frc consts  --      0.0309                 0.0352                 0.0830
 IR Inten    --      5.2475                 0.8423                51.5043

                      4                      5                      6
                      A                      A                      A
 Frequencies --    327.8204               338.2381               366.7254
 Red. masses --      2.0135                 1.8070                 2.5935
 Frc consts  --      0.1275                 0.1218                 0.2055
 IR Inten    --      4.2143                57.5033                 4.7131

                      7                      8                      9
                      A                      A                      A
 Frequencies --    416.8512               496.8153               528.2223
 Red. masses --      1.5388                 2.7399                 2.8728
 Frc consts  --      0.1575                 0.3985                 0.4723
 IR Inten    --     76.9086                34.0776                15.5826

                     10                     11                     12
                      A                      A                      A
 Frequencies --    608.4164               761.1107               774.0507
 Red. masses --      3.9641                 3.1167                 1.6028
 Frc consts  --      0.8646                 1.0638                 0.5658
 IR Inten    --      6.3692                 9.5373                 3.5218

                     13                     14                     15
                      A                      A                      A
 Frequencies --    915.5522               975.2721              1075.5289
 Red. masses --      2.4851                 1.9256                 1.8804
 Frc consts  --      1.2273                 1.0791                 1.2816
 IR Inten    --     39.7595                48.9392               103.8033

                     16                     17                     18
                      A                      A                      A
 Frequencies --   1091.8155              1122.8692              1201.2449
 Red. masses --      1.3540                 1.6752                 2.4125
 Frc consts  --      0.9510                 1.2444                 2.0511
 IR Inten    --      8.4966                75.9966                86.6691

                     19                     20                     21
                      A                      A                      A
 Frequencies --   1239.9436              1359.1321              1380.2302
 Red. masses --      1.8096                 1.6434                 1.4601
 Frc consts  --      1.6393                 1.7886                 1.6389
 IR Inten    --     90.4828               146.7007                69.6884

                     22                     23                     24
                      A                      A                      A
 Frequencies --   1428.6255              1487.7256              1497.5220
 Red. masses --      1.5503                 1.1184                 1.0542
 Frc consts  --      1.8642                 1.4585                 1.3929
 IR Inten    --     44.6612                16.1159                 3.0678

                     25                     26                     27
                      A                      A                      A
 Frequencies --   1502.7877              1745.8559              3064.6754
 Red. masses --      1.0813                 6.8887                 1.0559
 Frc consts  --      1.4388                12.3710                 5.8430
 IR Inten    --     12.3737                34.9437                24.1795

                     28                     29                     30
                      A                      A                      A
 Frequencies --   3067.6636              3149.5143              3159.0989
 Red. masses --      1.0343                 1.1034                 1.1045
 Frc consts  --      5.7348                 6.4486                 6.4942
 IR Inten    --      8.1645                15.6626                12.2612

                     31                     32                     33
                      A                      A                      A
 Frequencies --   3165.4958              3792.6113              3800.3847
 Red. masses --      1.1156                 1.0652                 1.0650
 Frc consts  --      6.5866                 9.0274                 9.0627
 IR Inten    --     24.8928                33.9944                38.5101

 - Thermochemistry -
 -------------------
 Temperature   298.150 Kelvin.  Pressure   1.00000 Atm.
 Atom     1 has atomic number  6 and mass  12.00000

 Molecular mass:    89.04768 amu.
 Principal axes and moments of inertia in atomic units:
                           1         2         3
     Eigenvalues --   368.67565 588.87719 596.49441
           X            0.99805  -0.05329   0.03237
           Y            0.05809   0.98327  -0.17266
           Z           -0.02262   0.17420   0.98445
 This molecule is an asymmetric top.
 Rotational symmetry number  1.
 Rotational temperatures (Kelvin)      0.23493     0.14708     0.14520
 Rotational constants (GHZ):           4.89520     3.06472     3.02558
 Zero-point vibrational energy     278205.0 (Joules/Mol)
                                   66.49258 (Kcal/Mol)
 Warning -- explicit consideration of  10 degrees of freedom as
           vibrations may cause significant error
 Vibrational temperatures:    180.60   345.68   438.33   471.66   486.65
          (Kelvin)            527.64   599.76   714.81   759.99   875.37
                             1095.07  1113.68  1317.27  1403.20  1547.44
                             1570.88  1615.56  1728.32  1784.00  1955.49
                             1985.84  2055.47  2140.50  2154.60  2162.17
                             2511.89  4409.38  4413.68  4531.44  4545.23
                             4554.44  5456.71  5467.90

 Zero-point correction=                           0.105963 (Hartree/Particle)
 Thermal correction to Energy=                    0.112795
 Thermal correction to Enthalpy=                  0.113740
 Thermal correction to Gibbs Free Energy=         0.076114
 Sum of electronic and zero-point Energies=           -323.612170
 Sum of electronic and thermal Energies=              -323.605337
 Sum of electronic and thermal Enthalpies=            -323.604393
 Sum of electronic and thermal Free Energies=         -323.642018

                     E (Thermal)             CV                S
                      KCal/Mol        Cal/Mol-Kelvin    Cal/Mol-Kelvin
 Total                   70.780             25.105             79.189
 Electronic               0.000              0.000              0.000
 Translational            0.889              2.981             39.372
 Rotational               0.889              2.981             26.363
 Vibrational             69.003             19.143             13.454
 Vibration     1          0.610              1.928              3.014
 Vibration     2          0.657              1.779              1.801
 Vibration     3          0.696              1.665              1.391
 Vibration     4          0.711              1.620              1.271
 Vibration     5          0.719              1.599              1.220
 Vibration     6          0.740              1.541              1.093
 Vibration     7          0.780              1.434              0.903
 Vibration     8          0.852              1.257              0.666
 Vibration     9          0.883              1.188              0.591
 Vibration    10          0.967              1.014              0.435

 Optimization completed.
    -- Stationary point found.
 Normal termination of Gaussian 09 at Thu Sep  8 14:55:52 2022.
