 Gaussian 09, Revision E.01,
 Gaussian 09:  ES64L-G09RevE.01 30-Nov-2015

 -------------------------
 #P OPT Freq B3LYP/6-31G**
 -------------------------

 --------
 Frag_259
 --------
 Symbolic Z-matrix:
 Charge =  0 Multiplicity = 1

 SCF Done:  E(RB3LYP) =  -264.520020141     A.U. after   13 cycles
 SCF Done:  E(RB3LYP) =  -264.533455664     A.U. after   12 cycles
 SCF Done:  E(RB3LYP) =  -264.535368451     A.U. after   11 cycles
 SCF Done:  E(RB3LYP) =  -264.539363065     A.U. after   14 cycles
 SCF Done:  E(RB3LYP) =  -264.540935664     A.U. after   12 cycles
 SCF Done:  E(RB3LYP) =  -264.542205793     A.U. after   12 cycles
 SCF Done:  E(RB3LYP) =  -264.542224726     A.U. after   11 cycles
 SCF Done:  E(RB3LYP) =  -264.542427773     A.U. after   12 cycles
 SCF Done:  E(RB3LYP) =  -264.542466236     A.U. after   10 cycles
 SCF Done:  E(RB3LYP) =  -264.542505057     A.U. after   11 cycles
 SCF Done:  E(RB3LYP) =  -264.542526728     A.U. after   10 cycles
 SCF Done:  E(RB3LYP) =  -264.542538323     A.U. after   10 cycles
 SCF Done:  E(RB3LYP) =  -264.542539189     A.U. after    8 cycles
 SCF Done:  E(RB3LYP) =  -264.542539232     A.U. after    7 cycles
 Optimization completed.
    -- Stationary point found.
 Normal termination of Gaussian 09 at Sat Aug 21 01:33:46 2021.

 ----------------------------------------------------------------------
 #P Geom=AllCheck Guess=TCheck SCRF=Check GenChk RB3LYP/6-31G(d,p) Freq
 ----------------------------------------------------------------------

 Structure from the checkpoint file:  "/public/home/users/caep010/.cache/gau_scr/Gau-177028.chk"
 --------
 Frag_259
 --------
 Charge =  0 Multiplicity = 1

                         Standard orientation:
 ---------------------------------------------------------------------
 Center     Atomic      Atomic             Coordinates (Angstroms)
 Number     Number       Type             X           Y           Z
 ---------------------------------------------------------------------
      1          7           0       -1.615609   -0.859153   -0.151732
      2          6           0       -0.614313   -0.080210    0.023590
      3          7           0       -0.600599    1.292447    0.157976
      4          6           0        0.749566   -0.718719    0.224996
      5          8           0        1.757490    0.161448   -0.273004
      6          1           0       -2.489204   -0.326492   -0.206830
      7          1           0        0.295223    1.725758   -0.025970
      8          1           0       -1.404751    1.796001   -0.187991
      9          1           0        0.884725   -0.903264    1.301411
     10          1           0        0.744540   -1.684520   -0.291583
     11          1           0        2.611485   -0.138556    0.059772
 ---------------------------------------------------------------------

 SCF Done:  E(RB3LYP) =  -264.542539232     A.U. after    1 cycles

 The electronic state is 1-A.
 Alpha  occ. eigenvalues --  -19.15940 -14.34126 -14.28533 -10.25043 -10.23787
 Alpha  occ. eigenvalues --   -1.03111  -0.93321  -0.83898  -0.71005  -0.56735
 Alpha  occ. eigenvalues --   -0.53290  -0.50931  -0.49455  -0.44168  -0.39895
 Alpha  occ. eigenvalues --   -0.35600  -0.34652  -0.28289  -0.25380  -0.23185
 Alpha virt. eigenvalues --    0.03400   0.06800   0.09745   0.13773   0.15056
 Alpha virt. eigenvalues --    0.15561   0.18786   0.21570   0.25995   0.31962
 Alpha virt. eigenvalues --    0.44050   0.54936   0.55737   0.57886   0.59803

 Mulliken charges:
               1
     1  N   -0.571280
     2  C    0.419274
     3  N   -0.608312
     4  C    0.017975
     5  O   -0.550830
     6  H    0.201937
     7  H    0.282480
     8  H    0.255135
     9  H    0.113262
    10  H    0.123915
    11  H    0.316444
 Sum of Mulliken charges =  -0.00000

 Dipole moment (field-independent basis, Debye):
    X=              1.6929    Y=              1.8747    Z=              0.4697  Tot=              2.5692
 Quadrupole moment (field-independent basis, Debye-Ang):
   XX=            -23.8752   YY=            -29.6608   ZZ=            -31.7887
   XY=             -6.5543   XZ=              2.6319   YZ=             -1.9658

  Exact polarizability:  48.570   2.633  42.144   3.239   0.255  23.659
 Approx polarizability:  65.346  10.470  64.060   4.983   2.158  33.649

                      1                      2                      3
                      A                      A                      A
 Frequencies --    109.8689               230.5157               307.6565
 Red. masses --      2.9673                 1.1191                 3.7862
 Frc consts  --      0.0211                 0.0350                 0.2111
 IR Inten    --      1.4523               118.6008                18.9712

                      4                      5                      6
                      A                      A                      A
 Frequencies --    448.4749               489.6234               505.7454
 Red. masses --      1.3997                 3.1416                 1.4859
 Frc consts  --      0.1659                 0.4437                 0.2239
 IR Inten    --     46.8055                26.5643                10.7116

                      7                      8                      9
                      A                      A                      A
 Frequencies --    582.6259               619.5333               847.2158
 Red. masses --      1.4158                 2.7630                 2.1547
 Frc consts  --      0.2832                 0.6248                 0.9112
 IR Inten    --    220.8717                14.8240                41.4273

                     10                     11                     12
                      A                      A                      A
 Frequencies --    882.1847              1029.1865              1076.5886
 Red. masses --      1.5975                 1.7038                 4.8694
 Frc consts  --      0.7325                 1.0633                 3.3252
 IR Inten    --     40.3496                 7.3912               101.4351

                     13                     14                     15
                      A                      A                      A
 Frequencies --   1124.2011              1154.0856              1227.5710
 Red. masses --      1.6288                 1.4733                 1.0979
 Frc consts  --      1.2129                 1.1562                 0.9748
 IR Inten    --      9.5783                20.4179                83.4355

                     16                     17                     18
                      A                      A                      A
 Frequencies --   1258.3045              1406.9251              1464.5488
 Red. masses --      1.1154                 1.5478                 2.1780
 Frc consts  --      1.0405                 1.8051                 2.7524
 IR Inten    --     40.6684                43.3307                51.0345

                     19                     20                     21
                      A                      A                      A
 Frequencies --   1517.9933              1634.1020              1747.6375
 Red. masses --      1.0855                 1.2029                 7.1206
 Frc consts  --      1.4738                 1.8925                12.8135
 IR Inten    --      7.9285                92.8514               198.4622

                     22                     23                     24
                      A                      A                      A
 Frequencies --   3008.0096              3086.0369              3439.7000
 Red. masses --      1.0665                 1.0974                 1.0746
 Frc consts  --      5.6854                 6.1578                 7.4906
 IR Inten    --     37.2412                27.7150                13.4967

                     25                     26                     27
                      A                      A                      A
 Frequencies --   3564.9343              3688.2751              3842.8431
 Red. masses --      1.0464                 1.1006                 1.0669
 Frc consts  --      7.8355                 8.8210                 9.2829
 IR Inten    --     32.5984                32.3451                26.5696

 - Thermochemistry -
 -------------------
 Temperature   298.150 Kelvin.  Pressure   1.00000 Atm.
 Atom     1 has atomic number  7 and mass  14.00307

 Molecular mass:    74.04801 amu.
 Principal axes and moments of inertia in atomic units:
                           1         2         3
     Eigenvalues --   195.01952 440.39523 604.74541
           X            0.99853  -0.05160   0.01686
           Y            0.05198   0.99839  -0.02288
           Z           -0.01565   0.02373   0.99960
 This molecule is an asymmetric top.
 Rotational symmetry number  1.
 Rotational temperatures (Kelvin)      0.44413     0.19667     0.14322
 Rotational constants (GHZ):           9.25416     4.09800     2.98430
 Zero-point vibrational energy     241014.0 (Joules/Mol)
                                   57.60372 (Kcal/Mol)
 Warning -- explicit consideration of   8 degrees of freedom as
           vibrations may cause significant error
 Vibrational temperatures:    158.08   331.66   442.65   645.25   704.46
          (Kelvin)            727.65   838.27   891.37  1218.95  1269.27
                             1480.77  1548.97  1617.47  1660.47  1766.20
                             1810.42  2024.25  2107.16  2184.05  2351.11
                             2514.46  4327.85  4440.11  4948.95  5129.14
                             5306.60  5528.99

 Zero-point correction=                           0.091797 (Hartree/Particle)
 Thermal correction to Energy=                    0.097584
 Thermal correction to Enthalpy=                  0.098528
 Thermal correction to Gibbs Free Energy=         0.063118
 Sum of electronic and zero-point Energies=           -264.450742
 Sum of electronic and thermal Energies=              -264.444955
 Sum of electronic and thermal Enthalpies=            -264.444011
 Sum of electronic and thermal Free Energies=         -264.479421

                     E (Thermal)             CV                S
                      KCal/Mol        Cal/Mol-Kelvin    Cal/Mol-Kelvin
 Total                   61.235             20.229             74.527
 Electronic               0.000              0.000              0.000
 Translational            0.889              2.981             38.822
 Rotational               0.889              2.981             25.455
 Vibrational             59.457             14.267             10.250
 Vibration     1          0.606              1.941              3.271
 Vibration     2          0.652              1.794              1.875
 Vibration     3          0.698              1.659              1.375
 Vibration     4          0.807              1.364              0.800
 Vibration     5          0.845              1.273              0.685
 Vibration     6          0.861              1.237              0.644
 Vibration     7          0.939              1.069              0.481
 Vibration     8          0.979              0.991              0.417

 Optimization completed.
    -- Stationary point found.
 Normal termination of Gaussian 09 at Sat Aug 21 01:33:55 2021.
