 Gaussian 09, Revision E.01,
 Gaussian 09:  ES64L-G09RevE.01 30-Nov-2015

 ----------------------------
 #P OPT Freq B3LYP/6-31G(d,p)
 ----------------------------

 --------
 Frag_743
 --------
 Symbolic Z-matrix:
 Charge =  0 Multiplicity = 1

 SCF Done:  E(RB3LYP) =  -344.344762008     A.U. after   12 cycles
 SCF Done:  E(RB3LYP) =  -344.344816856     A.U. after    9 cycles
 SCF Done:  E(RB3LYP) =  -344.344824767     A.U. after    9 cycles
 SCF Done:  E(RB3LYP) =  -344.344827887     A.U. after    8 cycles
 SCF Done:  E(RB3LYP) =  -344.344828936     A.U. after    7 cycles
 SCF Done:  E(RB3LYP) =  -344.344829854     A.U. after    7 cycles
 SCF Done:  E(RB3LYP) =  -344.344830152     A.U. after    7 cycles
 SCF Done:  E(RB3LYP) =  -344.344830464     A.U. after    7 cycles
 Optimization completed.
    -- Stationary point found.
 Normal termination of Gaussian 09 at Thu Sep  8 15:25:32 2022.

 ----------------------------------------------------------------------
 #P Geom=AllCheck Guess=TCheck SCRF=Check GenChk RB3LYP/6-31G(d,p) Freq
 ----------------------------------------------------------------------

 Structure from the checkpoint file:  "B3LYP6-31Gdp.Frag_743.chk"
 --------
 Frag_743
 --------
 Charge =  0 Multiplicity = 1

                         Standard orientation:
 ---------------------------------------------------------------------
 Center     Atomic      Atomic             Coordinates (Angstroms)
 Number     Number       Type             X           Y           Z
 ---------------------------------------------------------------------
      1          6           0        1.566684    1.184883    0.093639
      2          7           0        0.815182    0.061333   -0.456838
      3          7           0        1.494605   -1.168602   -0.000453
      4          6           0       -0.593375   -0.002759   -0.028773
      5          6           0       -0.793709   -0.198109    1.486368
      6          6           0       -1.344880    1.230780   -0.544489
      7          8           0       -1.090139   -1.158456   -0.728999
      8          1           0        2.575835    1.165599   -0.331638
      9          1           0        1.667044    1.159406    1.190364
     10          1           0        1.105698    2.125967   -0.210872
     11          1           0        0.904699   -1.904603   -0.392682
     12          1           0        2.335968   -1.198828   -0.580055
     13          1           0       -1.857005   -0.330164    1.719526
     14          1           0       -0.235452   -1.069607    1.832757
     15          1           0       -0.448054    0.675552    2.046134
     16          1           0       -2.420479    1.064030   -0.432734
     17          1           0       -1.093472    2.141154    0.006373
     18          1           0       -1.124024    1.375553   -1.604437
     19          1           0       -1.866470   -1.474286   -0.250170
 ---------------------------------------------------------------------

 SCF Done:  E(RB3LYP) =  -344.344830464     A.U. after    1 cycles

 The electronic state is 1-A.
 Alpha  occ. eigenvalues --  -19.14387 -14.33982 -14.32601 -10.26536 -10.19721
 Alpha  occ. eigenvalues --  -10.17313 -10.17280  -1.02762  -0.94227  -0.79891
 Alpha  occ. eigenvalues --   -0.74095  -0.69055  -0.66236  -0.56147  -0.49616
 Alpha  occ. eigenvalues --   -0.48830  -0.46827  -0.43434  -0.41743  -0.40966
 Alpha  occ. eigenvalues --   -0.39389  -0.38812  -0.37255  -0.36418  -0.35263
 Alpha  occ. eigenvalues --   -0.33354  -0.30369  -0.26974  -0.18370
 Alpha virt. eigenvalues --    0.06554   0.10524   0.11402   0.12947   0.13854
 Alpha virt. eigenvalues --    0.14892   0.15882   0.17656   0.18356   0.18755
 Alpha virt. eigenvalues --    0.19901   0.20830   0.21757   0.22837   0.23809

 Mulliken charges:
               1
     1  C   -0.144273
     2  N   -0.341528
     3  N   -0.474552
     4  C    0.407643
     5  C   -0.332389
     6  C   -0.312481
     7  O   -0.561090
     8  H    0.101805
     9  H    0.093895
    10  H    0.108431
    11  H    0.262046
    12  H    0.243425
    13  H    0.084811
    14  H    0.135026
    15  H    0.106412
    16  H    0.093665
    17  H    0.099041
    18  H    0.126501
    19  H    0.303612
 Sum of Mulliken charges =  -0.00000

 Dipole moment (field-independent basis, Debye):
    X=             -0.8632    Y=              0.4040    Z=              0.6911  Tot=              1.1773
 Quadrupole moment (field-independent basis, Debye-Ang):
   XX=            -39.7676   YY=            -42.0718   ZZ=            -48.0627
   XY=              1.5639   XZ=             -3.3374   YZ=              0.4692

  Exact polarizability:  69.323   0.273  63.372  -2.274   0.657  53.898
 Approx polarizability:  90.914   1.295  88.170  -2.900   3.045  76.230

                      1                      2                      3
                      A                      A                      A
 Frequencies --    109.5131               207.8893               222.8159
 Red. masses --      2.5323                 1.0425                 1.1439
 Frc consts  --      0.0179                 0.0265                 0.0335
 IR Inten    --      0.4602                66.4529                30.8747

                      4                      5                      6
                      A                      A                      A
 Frequencies --    243.2689               258.2415               275.1119
 Red. masses --      1.1181                 1.1392                 1.2945
 Frc consts  --      0.0390                 0.0448                 0.0577
 IR Inten    --     17.9631                 1.4112                20.4565

                      7                      8                      9
                      A                      A                      A
 Frequencies --    294.6095               314.9122               362.8770
 Red. masses --      1.9886                 2.1833                 2.3360
 Frc consts  --      0.1017                 0.1276                 0.1812
 IR Inten    --     12.5897                 1.7507                 2.2544

                     10                     11                     12
                      A                      A                      A
 Frequencies --    406.3551               416.0580               479.7837
 Red. masses --      3.0262                 3.3538                 2.4154
 Frc consts  --      0.2944                 0.3421                 0.3276
 IR Inten    --      1.8146                 2.3609                 1.4528

                     13                     14                     15
                      A                      A                      A
 Frequencies --    532.9886               545.8463               712.6264
 Red. masses --      3.7311                 3.3580                 3.8311
 Frc consts  --      0.6245                 0.5895                 1.1463
 IR Inten    --     18.0015                17.2261                 6.1788

                     16                     17                     18
                      A                      A                      A
 Frequencies --    841.5406               917.0550               942.1740
 Red. masses --      3.1765                 1.5387                 2.6277
 Frc consts  --      1.3254                 0.7624                 1.3743
 IR Inten    --     16.3289                 2.8398                29.5468

                     19                     20                     21
                      A                      A                      A
 Frequencies --    969.2874              1012.2559              1083.3117
 Red. masses --      2.0253                 1.3181                 2.3092
 Frc consts  --      1.1211                 0.7957                 1.5967
 IR Inten    --      5.6096                 5.2168                24.9650

                     22                     23                     24
                      A                      A                      A
 Frequencies --   1136.1996              1146.9027              1167.5419
 Red. masses --      1.4808                 1.3541                 1.5990
 Frc consts  --      1.1263                 1.0494                 1.2843
 IR Inten    --     92.1485                26.8436                20.6911

                     25                     26                     27
                      A                      A                      A
 Frequencies --   1203.9761              1233.1722              1264.7320
 Red. masses --      1.8141                 2.1699                 3.0227
 Frc consts  --      1.5493                 1.9442                 2.8487
 IR Inten    --     71.3353                35.4888                28.4767

                     28                     29                     30
                      A                      A                      A
 Frequencies --   1349.4825              1403.3845              1412.9654
 Red. masses --      1.5332                 1.2986                 1.5022
 Frc consts  --      1.6450                 1.5068                 1.7670
 IR Inten    --     64.8719                 9.1182                26.0585

                     31                     32                     33
                      A                      A                      A
 Frequencies --   1424.4270              1461.2257              1491.1342
 Red. masses --      1.3150                 1.1740                 1.0517
 Frc consts  --      1.5720                 1.4769                 1.3778
 IR Inten    --     10.8197                 0.2333                 3.0794

                     34                     35                     36
                      A                      A                      A
 Frequencies --   1495.5183              1504.3485              1513.1534
 Red. masses --      1.0503                 1.0578                 1.0507
 Frc consts  --      1.3840                 1.4104                 1.4174
 IR Inten    --      3.5658                 0.8790                 6.0585

                     37                     38                     39
                      A                      A                      A
 Frequencies --   1523.7160              1531.4435              1655.5724
 Red. masses --      1.0553                 1.0681                 1.0667
 Frc consts  --      1.4436                 1.4760                 1.7226
 IR Inten    --      3.5535                 2.6613                48.4108

                     40                     41                     42
                      A                      A                      A
 Frequencies --   2989.9969              3044.2285              3057.3154
 Red. masses --      1.0522                 1.0418                 1.0363
 Frc consts  --      5.5421                 5.6884                 5.7073
 IR Inten    --     58.9330                16.5150                17.7192

                     43                     44                     45
                      A                      A                      A
 Frequencies --   3078.6950              3112.3612              3125.6112
 Red. masses --      1.0868                 1.0966                 1.1014
 Frc consts  --      6.0694                 6.2584                 6.3398
 IR Inten    --     41.9223                 9.1140                43.9230

                     46                     47                     48
                      A                      A                      A
 Frequencies --   3143.7042              3150.5597              3155.9778
 Red. masses --      1.0981                 1.1022                 1.1011
 Frc consts  --      6.3942                 6.4460                 6.4615
 IR Inten    --     20.4306                17.0248                11.4563

                     49                     50                     51
                      A                      A                      A
 Frequencies --   3434.2015              3519.2398              3834.4931
 Red. masses --      1.0518                 1.0894                 1.0662
 Frc consts  --      7.3089                 7.9497                 9.2360
 IR Inten    --      8.8609                 3.2656                16.7144

 - Thermochemistry -
 -------------------
 Temperature   298.150 Kelvin.  Pressure   1.00000 Atm.
 Atom     1 has atomic number  6 and mass  12.00000

 Molecular mass:   104.09496 amu.
 Principal axes and moments of inertia in atomic units:
                           1         2         3
     Eigenvalues --   560.50505 757.78642 911.55268
           X            0.99975  -0.00815  -0.02059
           Y            0.00752   0.99951  -0.03050
           Z            0.02082   0.03034   0.99932
 This molecule is an asymmetric top.
 Rotational symmetry number  1.
 Warning -- assumption of classical behavior for rotation
           may cause significant error
 Rotational temperatures (Kelvin)      0.15453     0.11430     0.09502
 Rotational constants (GHZ):           3.21985     2.38160     1.97985
 Zero-point vibrational energy     446887.8 (Joules/Mol)
                                  106.80874 (Kcal/Mol)
 Warning -- explicit consideration of  14 degrees of freedom as
           vibrations may cause significant error
 Vibrational temperatures:    157.56   299.11   320.58   350.01   371.55
          (Kelvin)            395.82   423.88   453.09   522.10   584.65
                              598.61   690.30   766.85   785.35  1025.31
                             1210.79  1319.44  1355.58  1394.59  1456.41
                             1558.64  1634.74  1650.14  1679.83  1732.25
                             1774.26  1819.66  1941.60  2019.15  2032.94
                             2049.43  2102.38  2145.41  2151.71  2164.42
                             2177.09  2192.28  2203.40  2382.00  4301.93
                             4379.96  4398.79  4429.55  4477.99  4497.05
                             4523.08  4532.95  4540.74  4941.04  5063.39
                             5516.97

 Zero-point correction=                           0.170211 (Hartree/Particle)
 Thermal correction to Energy=                    0.179210
 Thermal correction to Enthalpy=                  0.180155
 Thermal correction to Gibbs Free Energy=         0.138076
 Sum of electronic and zero-point Energies=           -344.174620
 Sum of electronic and thermal Energies=              -344.165620
 Sum of electronic and thermal Enthalpies=            -344.164676
 Sum of electronic and thermal Free Energies=         -344.206755

                     E (Thermal)             CV                S
                      KCal/Mol        Cal/Mol-Kelvin    Cal/Mol-Kelvin
 Total                  112.456             33.819             88.563
 Electronic               0.000              0.000              0.000
 Translational            0.889              2.981             39.838
 Rotational               0.889              2.981             27.451
 Vibrational            110.679             27.857             21.274
 Vibration     1          0.606              1.942              3.278
 Vibration     2          0.641              1.829              2.062
 Vibration     3          0.648              1.806              1.936
 Vibration     4          0.659              1.774              1.779
 Vibration     5          0.667              1.749              1.674
 Vibration     6          0.677              1.719              1.564
 Vibration     7          0.689              1.684              1.447
 Vibration     8          0.702              1.645              1.336
 Vibration     9          0.737              1.549              1.110
 Vibration    10          0.771              1.456              0.940
 Vibration    11          0.779              1.435              0.905
 Vibration    12          0.836              1.295              0.711
 Vibration    13          0.888              1.177              0.581
 Vibration    14          0.901              1.149              0.553

 Optimization completed.
    -- Stationary point found.
 Normal termination of Gaussian 09 at Thu Sep  8 15:25:52 2022.
