 Gaussian 09, Revision E.01,
 Gaussian 09:  ES64L-G09RevE.01 30-Nov-2015

 ----------------------------
 #P OPT Freq B3LYP/6-31G(d,p)
 ----------------------------

 --------
 Frag_901
 --------
 Symbolic Z-matrix:
 Charge =  0 Multiplicity = 1

 SCF Done:  E(RB3LYP) =  -285.211261678     A.U. after   12 cycles
 SCF Done:  E(RB3LYP) =  -285.211294374     A.U. after   10 cycles
 SCF Done:  E(RB3LYP) =  -285.211299666     A.U. after    7 cycles
 SCF Done:  E(RB3LYP) =  -285.211300773     A.U. after    7 cycles
 SCF Done:  E(RB3LYP) =  -285.211300917     A.U. after    7 cycles
 Optimization completed.
    -- Stationary point found.
 Normal termination of Gaussian 09 at Thu Sep  8 15:05:32 2022.

 ----------------------------------------------------------------------
 #P Geom=AllCheck Guess=TCheck SCRF=Check GenChk RB3LYP/6-31G(d,p) Freq
 ----------------------------------------------------------------------

 Structure from the checkpoint file:  "B3LYP6-31Gdp.Frag_901.chk"
 --------
 Frag_901
 --------
 Charge =  0 Multiplicity = 1

                         Standard orientation:
 ---------------------------------------------------------------------
 Center     Atomic      Atomic             Coordinates (Angstroms)
 Number     Number       Type             X           Y           Z
 ---------------------------------------------------------------------
      1          6           0        2.150772   -0.042722   -0.002037
      2          6           0        0.883780    0.814265   -0.019253
      3          6           0       -0.438725    0.018037   -0.001106
      4          7           0       -1.535234    0.988849   -0.108805
      5          7           0       -0.527675   -0.716163    1.268071
      6          7           0       -0.459596   -0.910627   -1.138480
      7          1           0        2.137033   -0.738197    0.841682
      8          1           0        2.254446   -0.621156   -0.926126
      9          1           0        3.041153    0.587813    0.086339
     10          1           0        0.875394    1.449961   -0.911951
     11          1           0        0.868620    1.486273    0.846313
     12          1           0       -1.505436    1.419142   -1.032467
     13          1           0       -2.427507    0.497921   -0.051876
     14          1           0       -0.635361   -0.046720    2.029079
     15          1           0       -1.370176   -1.290023    1.268597
     16          1           0       -1.372474   -1.362221   -1.184759
     17          1           0        0.216885   -1.654692   -0.975955
 ---------------------------------------------------------------------

 SCF Done:  E(RB3LYP) =  -285.211300917     A.U. after    1 cycles

 The electronic state is 1-A.
 Alpha  occ. eigenvalues --  -14.30999 -14.30942 -14.30921 -10.26161 -10.17105
 Alpha  occ. eigenvalues --  -10.16375  -0.94132  -0.83261  -0.83233  -0.75045
 Alpha  occ. eigenvalues --   -0.63982  -0.55743  -0.49324  -0.49062  -0.48033
 Alpha  occ. eigenvalues --   -0.44014  -0.43327  -0.40271  -0.39565  -0.34646
 Alpha  occ. eigenvalues --   -0.33080  -0.32717  -0.25156  -0.25017  -0.23624
 Alpha virt. eigenvalues --    0.06054   0.11270   0.12021   0.12727   0.14627
 Alpha virt. eigenvalues --    0.15745   0.16550   0.18242   0.18702   0.20076
 Alpha virt. eigenvalues --    0.21926   0.24956   0.25474   0.27378   0.29137

 Mulliken charges:
               1
     1  C   -0.333352
     2  C   -0.124936
     3  C    0.301934
     4  N   -0.578313
     5  N   -0.573533
     6  N   -0.578871
     7  H    0.122769
     8  H    0.103565
     9  H    0.097533
    10  H    0.092898
    11  H    0.095385
    12  H    0.240835
    13  H    0.214994
    14  H    0.241946
    15  H    0.217082
    16  H    0.216526
    17  H    0.243538
 Sum of Mulliken charges =  -0.00000

 Dipole moment (field-independent basis, Debye):
    X=             -1.5532    Y=             -0.8687    Z=              0.0556  Tot=              1.7805
 Quadrupole moment (field-independent basis, Debye-Ang):
   XX=            -34.4181   YY=            -38.6418   ZZ=            -40.1301
   XY=              3.3052   XZ=              0.0707   YZ=             -0.1286

  Exact polarizability:  60.624   1.317  52.301   0.047  -0.046  51.265
 Approx polarizability:  76.138   1.592  73.076  -0.032   0.058  72.766

                      1                      2                      3
                      A                      A                      A
 Frequencies --    119.9742               223.8285               263.5026
 Red. masses --      2.1297                 1.2685                 2.1607
 Frc consts  --      0.0181                 0.0374                 0.0884
 IR Inten    --      0.7833                 4.3356                 3.5038

                      4                      5                      6
                      A                      A                      A
 Frequencies --    286.0221               295.8924               334.9420
 Red. masses --      1.1081                 1.1343                 1.0605
 Frc consts  --      0.0534                 0.0585                 0.0701
 IR Inten    --     18.3564                20.8132                76.7967

                      7                      8                      9
                      A                      A                      A
 Frequencies --    377.5139               404.4776               478.1617
 Red. masses --      2.1667                 2.5623                 2.4237
 Frc consts  --      0.1819                 0.2470                 0.3265
 IR Inten    --     13.3710                20.8882                16.9785

                     10                     11                     12
                      A                      A                      A
 Frequencies --    483.4327               552.3102               757.5603
 Red. masses --      2.8602                 2.5983                 3.2677
 Frc consts  --      0.3938                 0.4670                 1.1049
 IR Inten    --     22.1051                12.6040                 2.2686

                     13                     14                     15
                      A                      A                      A
 Frequencies --    793.7204               873.3640               898.9874
 Red. masses --      1.2326                 1.7520                 1.6102
 Frc consts  --      0.4575                 0.7874                 0.7667
 IR Inten    --      2.6440                 4.2578               192.4464

                     16                     17                     18
                      A                      A                      A
 Frequencies --    904.0081               962.9204              1013.0289
 Red. masses --      1.5766                 1.5156                 1.5596
 Frc consts  --      0.7591                 0.8280                 0.9430
 IR Inten    --    193.2312                21.6432                42.8045

                     19                     20                     21
                      A                      A                      A
 Frequencies --   1024.8111              1052.0458              1112.2527
 Red. masses --      1.5830                 2.2758                 1.7296
 Frc consts  --      0.9795                 1.4841                 1.2607
 IR Inten    --     28.8124                10.6696                24.5309

                     22                     23                     24
                      A                      A                      A
 Frequencies --   1130.0444              1259.2323              1278.2773
 Red. masses --      1.4611                 1.4886                 1.7975
 Frc consts  --      1.0993                 1.3907                 1.7305
 IR Inten    --     20.1637                15.6169                40.9798

                     25                     26                     27
                      A                      A                      A
 Frequencies --   1343.4178              1368.6590              1417.8688
 Red. masses --      1.4339                 1.4558                 1.6874
 Frc consts  --      1.5247                 1.6067                 1.9986
 IR Inten    --     27.7581                10.9140                 4.1829

                     28                     29                     30
                      A                      A                      A
 Frequencies --   1422.7147              1494.0695              1513.4197
 Red. masses --      1.5228                 1.0807                 1.0409
 Frc consts  --      1.8161                 1.4213                 1.4047
 IR Inten    --     19.0069                 1.2946                 3.0240

                     31                     32                     33
                      A                      A                      A
 Frequencies --   1530.5936              1652.2489              1660.8040
 Red. masses --      1.0558                 1.1006                 1.1057
 Frc consts  --      1.4574                 1.7703                 1.7969
 IR Inten    --      6.9627                38.7588                25.9963

                     34                     35                     36
                      A                      A                      A
 Frequencies --   1664.1935              3047.9457              3050.9612
 Red. masses --      1.1062                 1.0361                 1.0608
 Frc consts  --      1.8051                 5.6713                 5.8175
 IR Inten    --     26.9793                28.3165                23.0892

                     37                     38                     39
                      A                      A                      A
 Frequencies --   3089.3586              3113.2108              3133.3895
 Red. masses --      1.1033                 1.1017                 1.1027
 Frc consts  --      6.2040                 6.2914                 6.3787
 IR Inten    --     13.2947                42.4862                26.8208

                     40                     41                     42
                      A                      A                      A
 Frequencies --   3458.4320              3464.2604              3467.6445
 Red. masses --      1.0495                 1.0492                 1.0499
 Frc consts  --      7.3961                 7.4191                 7.4383
 IR Inten    --      5.1077                 3.0473                 3.0542

                     43                     44                     45
                      A                      A                      A
 Frequencies --   3548.1919              3553.1675              3556.3048
 Red. masses --      1.0915                 1.0920                 1.0911
 Frc consts  --      8.0966                 8.1231                 8.1308
 IR Inten    --      1.6234                 1.3764                 1.1798

 - Thermochemistry -
 -------------------
 Temperature   298.150 Kelvin.  Pressure   1.00000 Atm.
 Atom     1 has atomic number  6 and mass  12.00000

 Molecular mass:    89.09530 amu.
 Principal axes and moments of inertia in atomic units:
                           1         2         3
     Eigenvalues --   385.22314 690.20199 695.43467
           X            0.99988   0.01542  -0.00081
           Y           -0.01544   0.99922  -0.03636
           Z            0.00025   0.03637   0.99934
 This molecule is an asymmetric top.
 Rotational symmetry number  1.
 Rotational temperatures (Kelvin)      0.22484     0.12549     0.12455
 Rotational constants (GHZ):           4.68492     2.61480     2.59513
 Zero-point vibrational energy     409309.3 (Joules/Mol)
                                   97.82726 (Kcal/Mol)
 Warning -- explicit consideration of  11 degrees of freedom as
           vibrations may cause significant error
 Vibrational temperatures:    172.62   322.04   379.12   411.52   425.72
          (Kelvin)            481.91   543.16   581.95   687.97   695.55
                              794.65  1089.96  1141.99  1256.57  1293.44
                             1300.66  1385.43  1457.52  1474.47  1513.66
                             1600.28  1625.88  1811.75  1839.15  1932.88
                             1969.19  2039.99  2046.97  2149.63  2177.47
                             2202.18  2377.21  2389.52  2394.40  4385.31
                             4389.65  4444.89  4479.21  4508.24  4975.91
                             4984.29  4989.16  5105.05  5112.21  5116.72

 Zero-point correction=                           0.155898 (Hartree/Particle)
 Thermal correction to Energy=                    0.163568
 Thermal correction to Enthalpy=                  0.164512
 Thermal correction to Gibbs Free Energy=         0.125345
 Sum of electronic and zero-point Energies=           -285.055403
 Sum of electronic and thermal Energies=              -285.047733
 Sum of electronic and thermal Enthalpies=            -285.046789
 Sum of electronic and thermal Free Energies=         -285.085956

                     E (Thermal)             CV                S
                      KCal/Mol        Cal/Mol-Kelvin    Cal/Mol-Kelvin
 Total                  102.640             29.139             82.434
 Electronic               0.000              0.000              0.000
 Translational            0.889              2.981             39.374
 Rotational               0.889              2.981             26.716
 Vibrational            100.863             23.178             16.344
 Vibration     1          0.609              1.933              3.101
 Vibration     2          0.649              1.805              1.928
 Vibration     3          0.670              1.740              1.638
 Vibration     4          0.684              1.700              1.497
 Vibration     5          0.690              1.681              1.440
 Vibration     6          0.716              1.606              1.236
 Vibration     7          0.748              1.518              1.049
 Vibration     8          0.770              1.460              0.946
 Vibration     9          0.835              1.298              0.715
 Vibration    10          0.840              1.287              0.701
 Vibration    11          0.908              1.135              0.539

 Optimization completed.
    -- Stationary point found.
 Normal termination of Gaussian 09 at Thu Sep  8 15:05:47 2022.
