 Gaussian 09, Revision E.01,
 Gaussian 09:  ES64L-G09RevE.01 30-Nov-2015

 --------------------------------
 #P OPT=calcfc Freq B3LYP/6-31G**
 --------------------------------

 --------
 Frag_126
 --------
 Symbolic Z-matrix:
 Charge =  0 Multiplicity = 1

 SCF Done:  E(RB3LYP) =  -338.420854985     A.U. after   17 cycles
 SCF Done:  E(RB3LYP) =  -338.450752663     A.U. after   14 cycles
 SCF Done:  E(RB3LYP) =  -338.453668334     A.U. after   15 cycles
 SCF Done:  E(RB3LYP) =  -338.454567660     A.U. after   14 cycles
 SCF Done:  E(RB3LYP) =  -338.454788904     A.U. after   13 cycles
 SCF Done:  E(RB3LYP) =  -338.455235176     A.U. after   15 cycles
 SCF Done:  E(RB3LYP) =  -338.455350706     A.U. after   14 cycles
 SCF Done:  E(RB3LYP) =  -338.455448177     A.U. after   13 cycles
 SCF Done:  E(RB3LYP) =  -338.455469500     A.U. after   11 cycles
 SCF Done:  E(RB3LYP) =  -338.455464951     A.U. after   11 cycles
 SCF Done:  E(RB3LYP) =  -338.455472296     A.U. after   10 cycles
 Optimization completed.
    -- Stationary point found.
 Normal termination of Gaussian 09 at Sat Aug 21 02:18:51 2021.

 ----------------------------------------------------------------------
 #P Geom=AllCheck Guess=TCheck SCRF=Check GenChk RB3LYP/6-31G(d,p) Freq
 ----------------------------------------------------------------------

 Structure from the checkpoint file:  "/public/home/users/caep010/.cache/gau_scr/Gau-38052.chk"
 --------
 Frag_126
 --------
 Charge =  0 Multiplicity = 1

                         Standard orientation:
 ---------------------------------------------------------------------
 Center     Atomic      Atomic             Coordinates (Angstroms)
 Number     Number       Type             X           Y           Z
 ---------------------------------------------------------------------
      1          6           0        1.274441    1.298170   -0.061591
      2          6           0        0.712257    0.085641    0.010157
      3          7           0        1.298115   -1.153523    0.130915
      4          7           0       -0.776587    0.003373    0.002534
      5          8           0       -1.263523   -1.127684   -0.084665
      6          8           0       -1.424749    1.040757    0.070722
      7          1           0        0.653987    2.179934   -0.107099
      8          1           0        2.352294    1.405706   -0.065072
      9          1           0        0.686743   -1.918486   -0.123181
     10          1           0        2.242264   -1.223555   -0.218653
 ---------------------------------------------------------------------

 SCF Done:  E(RB3LYP) =  -338.455472296     A.U. after    1 cycles

 The electronic state is 1-A.
 Alpha  occ. eigenvalues --  -19.19161 -19.18926 -14.57880 -14.36539 -10.28836
 Alpha  occ. eigenvalues --  -10.20179  -1.23273  -1.06144  -0.94855  -0.79923
 Alpha  occ. eigenvalues --   -0.71034  -0.58355  -0.56853  -0.53932  -0.52749
 Alpha  occ. eigenvalues --   -0.50558  -0.46270  -0.42926  -0.37246  -0.31820
 Alpha  occ. eigenvalues --   -0.31684  -0.29938  -0.23960
 Alpha virt. eigenvalues --   -0.08903   0.04034   0.07613   0.09584   0.13898
 Alpha virt. eigenvalues --    0.16165   0.20429   0.26955   0.29085   0.30882
 Alpha virt. eigenvalues --    0.37125   0.51063   0.52061   0.54138   0.57096

 Mulliken charges:
               1
     1  C   -0.284502
     2  C    0.479582
     3  N   -0.656644
     4  N    0.416383
     5  O   -0.397557
     6  O   -0.383104
     7  H    0.147829
     8  H    0.111323
     9  H    0.293857
    10  H    0.272833
 Sum of Mulliken charges =  -0.00000

 Dipole moment (field-independent basis, Debye):
    X=              3.7133    Y=             -0.6210    Z=             -0.9407  Tot=              3.8806
 Quadrupole moment (field-independent basis, Debye-Ang):
   XX=            -33.3858   YY=            -32.5970   ZZ=            -35.1063
   XY=             -1.0596   XZ=             -1.7143   YZ=              1.1119

  Exact polarizability:  49.841   5.654  60.224  -0.876  -0.358  18.099
 Approx polarizability:  73.047  13.132 121.887  -1.773  -0.682  26.628

                      1                      2                      3
                      A                      A                      A
 Frequencies --     85.2357               270.6381               358.1435
 Red. masses --      6.5405                 1.0632                 4.2432
 Frc consts  --      0.0280                 0.0459                 0.3207
 IR Inten    --      0.2752                29.0168                 1.6573

                      4                      5                      6
                      A                      A                      A
 Frequencies --    425.9006               443.5327               548.6278
 Red. masses --      2.6457                 3.4222                 4.7756
 Frc consts  --      0.2828                 0.3966                 0.8469
 IR Inten    --      7.3158                 7.7493                39.4391

                      7                      8                      9
                      A                      A                      A
 Frequencies --    591.5370               606.8932               685.1798
 Red. masses --      1.6963                 2.7725                 1.5190
 Frc consts  --      0.3497                 0.6016                 0.4202
 IR Inten    --    192.2661                64.5510                 3.1404

                     10                     11                     12
                      A                      A                      A
 Frequencies --    800.7543               847.4820               881.2136
 Red. masses --      3.0128                 1.3633                10.1167
 Frc consts  --      1.1382                 0.5769                 4.6286
 IR Inten    --      6.6588                61.7400                32.9755

                     13                     14                     15
                      A                      A                      A
 Frequencies --    980.1082              1107.7461              1334.0822
 Red. masses --      1.5855                 1.6321                 2.3142
 Frc consts  --      0.8974                 1.1800                 2.4267
 IR Inten    --      5.4584                10.0127                37.9717

                     16                     17                     18
                      A                      A                      A
 Frequencies --   1390.4441              1435.8554              1604.2957
 Red. masses --     13.0965                 1.2072                 1.4157
 Frc consts  --     14.9181                 1.4664                 2.1468
 IR Inten    --    190.2973                 5.1120               220.3357

                     19                     20                     21
                      A                      A                      A
 Frequencies --   1655.8165              1748.3969              3201.7006
 Red. masses --      4.7873                 6.2796                 1.0618
 Frc consts  --      7.7332                11.3099                 6.4127
 IR Inten    --    155.5263                69.7081                 8.4455

                     22                     23                     24
                      A                      A                      A
 Frequencies --   3313.3508              3575.3313              3697.1487
 Red. masses --      1.1155                 1.0469                 1.0997
 Frc consts  --      7.2150                 7.8848                 8.8560
 IR Inten    --      2.7530                47.1913                48.1290

 - Thermochemistry -
 -------------------
 Temperature   298.150 Kelvin.  Pressure   1.00000 Atm.
 Atom     1 has atomic number  6 and mass  12.00000

 Molecular mass:    88.02728 amu.
 Principal axes and moments of inertia in atomic units:
                           1         2         3
     Eigenvalues --   318.34509 454.78325 769.18518
           X            0.99981   0.01836  -0.00653
           Y           -0.01835   0.99983   0.00195
           Z            0.00657  -0.00183   0.99998
 This molecule is an asymmetric top.
 Rotational symmetry number  1.
 Rotational temperatures (Kelvin)      0.27208     0.19045     0.11260
 Rotational constants (GHZ):           5.66913     3.96835     2.34630
 Zero-point vibrational energy     188946.7 (Joules/Mol)
                                   45.15934 (Kcal/Mol)
 Warning -- explicit consideration of   8 degrees of freedom as
           vibrations may cause significant error
 Vibrational temperatures:    122.63   389.39   515.29   612.78   638.14
          (Kelvin)            789.35   851.09   873.18   985.82  1152.11
                             1219.34  1267.87  1410.16  1593.80  1919.44
                             2000.54  2065.87  2308.22  2382.35  2515.55
                             4606.53  4767.17  5144.10  5319.37

 Zero-point correction=                           0.071966 (Hartree/Particle)
 Thermal correction to Energy=                    0.077854
 Thermal correction to Enthalpy=                  0.078798
 Thermal correction to Gibbs Free Energy=         0.042561
 Sum of electronic and zero-point Energies=           -338.383506
 Sum of electronic and thermal Energies=              -338.377618
 Sum of electronic and thermal Enthalpies=            -338.376674
 Sum of electronic and thermal Free Energies=         -338.412911

                     E (Thermal)             CV                S
                      KCal/Mol        Cal/Mol-Kelvin    Cal/Mol-Kelvin
 Total                   48.854             20.948             76.267
 Electronic               0.000              0.000              0.000
 Translational            0.889              2.981             39.338
 Rotational               0.889              2.981             26.213
 Vibrational             47.077             14.987             10.716
 Vibration     1          0.601              1.959              3.767
 Vibration     2          0.674              1.727              1.592
 Vibration     3          0.733              1.559              1.130
 Vibration     4          0.788              1.414              0.872
 Vibration     5          0.803              1.375              0.816
 Vibration     6          0.904              1.143              0.547
 Vibration     7          0.949              1.050              0.464
 Vibration     8          0.966              1.017              0.438

 Optimization completed.
    -- Stationary point found.
 Normal termination of Gaussian 09 at Sat Aug 21 02:18:59 2021.
