 Gaussian 09, Revision E.01,
 Gaussian 09:  ES64L-G09RevE.01 30-Nov-2015

 ----------------------------
 #P OPT Freq B3LYP/6-31G(d,p)
 ----------------------------

 --------
 Frag_664
 --------
 Symbolic Z-matrix:
 Charge =  0 Multiplicity = 1

 SCF Done:  E(RB3LYP) =  -269.169893490     A.U. after   13 cycles
 SCF Done:  E(RB3LYP) =  -269.169910959     A.U. after   10 cycles
 SCF Done:  E(RB3LYP) =  -269.169914603     A.U. after    8 cycles
 SCF Done:  E(RB3LYP) =  -269.169915354     A.U. after    7 cycles
 SCF Done:  E(RB3LYP) =  -269.169915702     A.U. after    7 cycles
 Optimization completed.
    -- Stationary point found.
 Normal termination of Gaussian 09 at Thu Sep  8 15:14:14 2022.

 ----------------------------------------------------------------------
 #P Geom=AllCheck Guess=TCheck SCRF=Check GenChk RB3LYP/6-31G(d,p) Freq
 ----------------------------------------------------------------------

 Structure from the checkpoint file:  "B3LYP6-31Gdp.Frag_664.chk"
 --------
 Frag_664
 --------
 Charge =  0 Multiplicity = 1

                         Standard orientation:
 ---------------------------------------------------------------------
 Center     Atomic      Atomic             Coordinates (Angstroms)
 Number     Number       Type             X           Y           Z
 ---------------------------------------------------------------------
      1          6           0        1.776361   -0.831372   -0.424552
      2          6           0        0.690163    0.252740   -0.414853
      3          6           0        0.968504    1.298894    0.675434
      4          6           0       -0.728130   -0.373452   -0.317070
      5          7           0       -1.844393    0.551618   -0.590936
      6          7           0       -0.900354   -1.057254    0.958609
      7          1           0        1.758146   -1.400364    0.509074
      8          1           0        1.621468   -1.539322   -1.246432
      9          1           0        2.772165   -0.391407   -0.546285
     10          1           0        0.718203    0.771013   -1.385053
     11          1           0        1.036970    0.836738    1.666742
     12          1           0        1.922763    1.801981    0.489992
     13          1           0        0.196261    2.075953    0.712109
     14          1           0       -0.788916   -1.142970   -1.098614
     15          1           0       -1.799252    1.346584    0.045797
     16          1           0       -1.754523    0.937536   -1.530534
     17          1           0       -1.835420   -1.458681    0.978087
     18          1           0       -0.876027   -0.378470    1.717652
 ---------------------------------------------------------------------

 SCF Done:  E(RB3LYP) =  -269.169915702     A.U. after    1 cycles

 The electronic state is 1-A.
 Alpha  occ. eigenvalues --  -14.30791 -14.30650 -10.22958 -10.18452 -10.17641
 Alpha  occ. eigenvalues --  -10.16434  -0.91005  -0.82843  -0.77869  -0.68078
 Alpha  occ. eigenvalues --   -0.63709  -0.55417  -0.50391  -0.46885  -0.45133
 Alpha  occ. eigenvalues --   -0.43800  -0.41183  -0.40121  -0.37603  -0.36336
 Alpha  occ. eigenvalues --   -0.34406  -0.32494  -0.32253  -0.24385  -0.23047
 Alpha virt. eigenvalues --    0.06686   0.10399   0.11016   0.13194   0.14802
 Alpha virt. eigenvalues --    0.16107   0.16489   0.17284   0.18514   0.19518
 Alpha virt. eigenvalues --    0.20692   0.22420   0.23673   0.25282   0.26273

 Mulliken charges:
               1
     1  C   -0.304892
     2  C   -0.046184
     3  C   -0.327273
     4  C    0.154341
     5  N   -0.595184
     6  N   -0.582747
     7  H    0.124781
     8  H    0.093976
     9  H    0.089866
    10  H    0.073616
    11  H    0.107984
    12  H    0.106673
    13  H    0.083790
    14  H    0.094586
    15  H    0.223857
    16  H    0.228793
    17  H    0.244320
    18  H    0.229696
 Sum of Mulliken charges =  -0.00000

 Dipole moment (field-independent basis, Debye):
    X=              0.1289    Y=              1.5241    Z=             -0.1559  Tot=              1.5375
 Quadrupole moment (field-independent basis, Debye-Ang):
   XX=            -42.3060   YY=            -39.8574   ZZ=            -37.1050
   XY=              0.1036   XZ=             -1.4958   YZ=              0.6934

  Exact polarizability:  60.313  -0.231  57.374   0.021   0.362  56.531
 Approx polarizability:  76.810  -0.133  78.254   0.701  -0.158  81.429

                      1                      2                      3
                      A                      A                      A
 Frequencies --     84.1572               217.5506               238.2610
 Red. masses --      2.5518                 1.0700                 1.1500
 Frc consts  --      0.0106                 0.0298                 0.0385
 IR Inten    --      1.7530                 0.5600                13.0974

                      4                      5                      6
                      A                      A                      A
 Frequencies --    250.5520               266.4064               288.4109
 Red. masses --      1.1079                 2.2588                 2.8724
 Frc consts  --      0.0410                 0.0945                 0.1408
 IR Inten    --     24.5739                 4.0260                 2.9845

                      7                      8                      9
                      A                      A                      A
 Frequencies --    308.9522               347.7286               439.4621
 Red. masses --      1.0622                 2.3240                 2.3300
 Frc consts  --      0.0597                 0.1656                 0.2651
 IR Inten    --     45.0829                 1.3243                24.9922

                     10                     11                     12
                      A                      A                      A
 Frequencies --    509.8533               599.2884               753.6415
 Red. masses --      2.6303                 2.1852                 2.5270
 Frc consts  --      0.4029                 0.4624                 0.8456
 IR Inten    --     13.1768                 4.1847                20.5531

                     13                     14                     15
                      A                      A                      A
 Frequencies --    885.9202               899.5822               910.1399
 Red. masses --      1.9700                 1.5771                 1.7270
 Frc consts  --      0.9110                 0.7520                 0.8429
 IR Inten    --     86.2553               218.0462                15.3416

                     16                     17                     18
                      A                      A                      A
 Frequencies --    936.7181               967.6001              1023.8209
 Red. masses --      1.2440                 1.4278                 1.5216
 Frc consts  --      0.6431                 0.7876                 0.9397
 IR Inten    --     10.1291                 2.0373                40.2721

                     19                     20                     21
                      A                      A                      A
 Frequencies --   1051.3837              1085.5034              1162.5193
 Red. masses --      2.0322                 1.6233                 1.4003
 Frc consts  --      1.3235                 1.1270                 1.1150
 IR Inten    --     23.7149                 1.3542                24.3405

                     22                     23                     24
                      A                      A                      A
 Frequencies --   1176.8055              1220.8426              1285.2520
 Red. masses --      2.2171                 1.6912                 1.7796
 Frc consts  --      1.8090                 1.4851                 1.7320
 IR Inten    --     11.3640                 5.2973                 4.1871

                     25                     26                     27
                      A                      A                      A
 Frequencies --   1345.4761              1376.1368              1404.2678
 Red. masses --      1.2963                 1.3908                 1.3186
 Frc consts  --      1.3826                 1.5518                 1.5321
 IR Inten    --      4.5582                 0.6714                 5.8005

                     28                     29                     30
                      A                      A                      A
 Frequencies --   1412.2484              1425.9583              1438.8040
 Red. masses --      1.3231                 1.2287                 1.3015
 Frc consts  --      1.5548                 1.4721                 1.5875
 IR Inten    --      5.7249                10.4891                12.9739

                     31                     32                     33
                      A                      A                      A
 Frequencies --   1501.3251              1506.4229              1521.3200
 Red. masses --      1.0427                 1.0522                 1.0442
 Frc consts  --      1.3847                 1.4068                 1.4239
 IR Inten    --      1.2638                 0.8381                 4.9370

                     34                     35                     36
                      A                      A                      A
 Frequencies --   1526.4184              1654.1203              1675.9863
 Red. masses --      1.0569                 1.0989                 1.0921
 Frc consts  --      1.4509                 1.7715                 1.8073
 IR Inten    --      7.9030                22.8960                28.8967

                     37                     38                     39
                      A                      A                      A
 Frequencies --   3006.8874              3031.2530              3035.3793
 Red. masses --      1.0837                 1.0824                 1.0361
 Frc consts  --      5.7728                 5.8598                 5.6243
 IR Inten    --     28.8275                37.8285                36.0257

                     40                     41                     42
                      A                      A                      A
 Frequencies --   3041.9479              3100.9275              3103.6038
 Red. masses --      1.0403                 1.1013                 1.1021
 Frc consts  --      5.6717                 6.2394                 6.2544
 IR Inten    --     23.2314                33.4572                37.2016

                     43                     44                     45
                      A                      A                      A
 Frequencies --   3110.6502              3130.5068              3458.3366
 Red. masses --      1.1009                 1.1010                 1.0488
 Frc consts  --      6.2761                 6.3570                 7.3908
 IR Inten    --     30.9135                26.8372                 4.0643

                     46                     47                     48
                      A                      A                      A
 Frequencies --   3485.2956              3548.3057              3565.6133
 Red. masses --      1.0496                 1.0919                 1.0911
 Frc consts  --      7.5121                 8.1001                 8.1730
 IR Inten    --      0.9230                 1.8523                 0.3615

 - Thermochemistry -
 -------------------
 Temperature   298.150 Kelvin.  Pressure   1.00000 Atm.
 Atom     1 has atomic number  6 and mass  12.00000

 Molecular mass:    88.10005 amu.
 Principal axes and moments of inertia in atomic units:
                           1         2         3
     Eigenvalues --   408.57012 692.05871 788.82397
           X            0.99993  -0.01012  -0.00656
           Y            0.01056   0.99744   0.07075
           Z            0.00583  -0.07082   0.99747
 This molecule is an asymmetric top.
 Rotational symmetry number  1.
 Rotational temperatures (Kelvin)      0.21199     0.12515     0.10980
 Rotational constants (GHZ):           4.41721     2.60779     2.28789
 Zero-point vibrational energy     438536.3 (Joules/Mol)
                                  104.81269 (Kcal/Mol)
 Warning -- explicit consideration of  11 degrees of freedom as
           vibrations may cause significant error
 Vibrational temperatures:    121.08   313.01   342.80   360.49   383.30
          (Kelvin)            414.96   444.51   500.30   632.29   733.56
                              862.24  1084.32  1274.64  1294.30  1309.49
                             1347.73  1392.16  1473.05  1512.70  1561.80
                             1672.60  1693.16  1756.52  1849.19  1935.84
                             1979.95  2020.43  2031.91  2051.63  2070.12
                             2160.07  2167.40  2188.84  2196.17  2379.91
                             2411.37  4326.23  4361.29  4367.23  4376.68
                             4461.54  4465.39  4475.53  4504.10  4975.77
                             5014.56  5105.21  5130.12

 Zero-point correction=                           0.167030 (Hartree/Particle)
 Thermal correction to Energy=                    0.175040
 Thermal correction to Enthalpy=                  0.175984
 Thermal correction to Gibbs Free Energy=         0.135804
 Sum of electronic and zero-point Energies=           -269.002886
 Sum of electronic and thermal Energies=              -268.994875
 Sum of electronic and thermal Enthalpies=            -268.993931
 Sum of electronic and thermal Free Energies=         -269.034112

                     E (Thermal)             CV                S
                      KCal/Mol        Cal/Mol-Kelvin    Cal/Mol-Kelvin
 Total                  109.839             29.469             84.567
 Electronic               0.000              0.000              0.000
 Translational            0.889              2.981             39.340
 Rotational               0.889              2.981             26.903
 Vibrational            108.062             23.507             18.323
 Vibration     1          0.601              1.960              3.792
 Vibration     2          0.646              1.814              1.979
 Vibration     3          0.656              1.782              1.816
 Vibration     4          0.663              1.762              1.727
 Vibration     5          0.672              1.735              1.619
 Vibration     6          0.685              1.695              1.483
 Vibration     7          0.698              1.657              1.368
 Vibration     8          0.725              1.580              1.176
 Vibration     9          0.799              1.384              0.828
 Vibration    10          0.865              1.228              0.634
 Vibration    11          0.957              1.033              0.451

 Normal termination of Gaussian 09 at Thu Sep  8 15:14:30 2022.
