 Gaussian 09, Revision E.01,
 Gaussian 09:  ES64L-G09RevE.01 30-Nov-2015

 ----------------------------
 #P OPT Freq B3LYP/6-31G(d,p)
 ----------------------------

 --------
 Frag_604
 --------
 Symbolic Z-matrix:
 Charge =  0 Multiplicity = 1

 SCF Done:  E(RB3LYP) =  -343.187995468     A.U. after   14 cycles
 SCF Done:  E(RB3LYP) =  -343.188054348     A.U. after   10 cycles
 SCF Done:  E(RB3LYP) =  -343.188057916     A.U. after    9 cycles
 SCF Done:  E(RB3LYP) =  -343.188062232     A.U. after    9 cycles
 SCF Done:  E(RB3LYP) =  -343.188062725     A.U. after    7 cycles
 SCF Done:  E(RB3LYP) =  -343.188062769     A.U. after    7 cycles
 SCF Done:  E(RB3LYP) =  -343.188062823     A.U. after    7 cycles
 Optimization completed.
    -- Stationary point found.
 Normal termination of Gaussian 09 at Thu Sep  8 15:09:07 2022.

 ----------------------------------------------------------------------
 #P Geom=AllCheck Guess=TCheck SCRF=Check GenChk RB3LYP/6-31G(d,p) Freq
 ----------------------------------------------------------------------

 Structure from the checkpoint file:  "B3LYP6-31Gdp.Frag_604.chk"
 --------
 Frag_604
 --------
 Charge =  0 Multiplicity = 1

                         Standard orientation:
 ---------------------------------------------------------------------
 Center     Atomic      Atomic             Coordinates (Angstroms)
 Number     Number       Type             X           Y           Z
 ---------------------------------------------------------------------
      1          6           0       -1.013904   -0.386260    1.410488
      2          6           0       -0.570560    0.018373   -0.008598
      3          6           0       -1.040353   -1.032967   -1.036296
      4          7           0       -1.099533    1.363520   -0.289118
      5          6           0        0.960912    0.124852   -0.020124
      6          7           0        1.672173    1.174840   -0.030770
      7          8           0        1.552065   -1.099462    0.012534
      8          1           0       -0.547064   -1.328891    1.703840
      9          1           0       -2.101820   -0.516470    1.444930
     10          1           0       -0.732427    0.386754    2.130602
     11          1           0       -0.633037   -2.022720   -0.818743
     12          1           0       -2.134073   -1.095177   -1.025537
     13          1           0       -0.724379   -0.755859   -2.048281
     14          1           0       -2.087514    1.395409   -0.049824
     15          1           0       -1.038743    1.556099   -1.287420
     16          1           0        1.050625    1.986457   -0.023326
     17          1           0        2.506852   -0.922409    0.039882
 ---------------------------------------------------------------------

 SCF Done:  E(RB3LYP) =  -343.188062823     A.U. after    1 cycles

 The electronic state is 1-A.
 Alpha  occ. eigenvalues --  -19.17503 -14.32505 -14.29221 -10.26809 -10.23645
 Alpha  occ. eigenvalues --  -10.18308 -10.18074  -1.06471  -0.90944  -0.86182
 Alpha  occ. eigenvalues --   -0.76383  -0.69464  -0.63878  -0.56511  -0.51303
 Alpha  occ. eigenvalues --   -0.49414  -0.45597  -0.44779  -0.42278  -0.40116
 Alpha  occ. eigenvalues --   -0.38742  -0.37675  -0.37550  -0.36875  -0.34313
 Alpha  occ. eigenvalues --   -0.26195  -0.25993  -0.25048
 Alpha virt. eigenvalues --    0.03531   0.06757   0.09440   0.12114   0.13248
 Alpha virt. eigenvalues --    0.15293   0.15923   0.17061   0.17358   0.19479
 Alpha virt. eigenvalues --    0.20142   0.21119   0.23251   0.25149   0.27014

 Mulliken charges:
               1
     1  C   -0.308792
     2  C    0.084588
     3  C   -0.308081
     4  N   -0.600631
     5  C    0.517772
     6  N   -0.592709
     7  O   -0.518973
     8  H    0.127419
     9  H    0.097442
    10  H    0.123233
    11  H    0.128925
    12  H    0.093539
    13  H    0.101106
    14  H    0.241046
    15  H    0.241877
    16  H    0.248878
    17  H    0.323360
 Sum of Mulliken charges =  -0.00000

 Dipole moment (field-independent basis, Debye):
    X=             -2.2768    Y=             -0.7308    Z=             -0.5699  Tot=              2.4581
 Quadrupole moment (field-independent basis, Debye-Ang):
   XX=            -40.9907   YY=            -45.5483   ZZ=            -41.9461
   XY=             -4.4672   XZ=              0.8458   YZ=             -1.7106

  Exact polarizability:  63.899   1.759  62.620  -0.387  -1.053  49.258
 Approx polarizability:  86.883   5.035  96.920  -1.211  -2.307  66.225

                      1                      2                      3
                      A                      A                      A
 Frequencies --     79.8325               223.1393               235.9416
 Red. masses --      4.6494                 1.6726                 1.2781
 Frc consts  --      0.0175                 0.0491                 0.0419
 IR Inten    --      0.2212                 0.1483                 5.6602

                      4                      5                      6
                      A                      A                      A
 Frequencies --    275.8176               282.3687               288.9138
 Red. masses --      1.2855                 2.4976                 1.0677
 Frc consts  --      0.0576                 0.1173                 0.0525
 IR Inten    --      2.6912                15.7632                19.2893

                      7                      8                      9
                      A                      A                      A
 Frequencies --    347.2850               385.8035               417.7829
 Red. masses --      2.4733                 3.1978                 2.5794
 Frc consts  --      0.1758                 0.2804                 0.2653
 IR Inten    --      0.2057                 2.1028                 4.5568

                     10                     11                     12
                      A                      A                      A
 Frequencies --    517.2104               559.4376               585.8996
 Red. masses --      4.0435                 2.6456                 1.2187
 Frc consts  --      0.6373                 0.4878                 0.2465
 IR Inten    --      4.7515                29.9718               107.5076

                     13                     14                     15
                      A                      A                      A
 Frequencies --    719.1084               736.6894               852.7891
 Red. masses --      3.5667                 4.9240                 2.0247
 Frc consts  --      1.0867                 1.5745                 0.8675
 IR Inten    --     14.9424                26.8526                61.3567

                     16                     17                     18
                      A                      A                      A
 Frequencies --    915.2092               933.1943               945.0633
 Red. masses --      1.3555                 1.3252                 1.3801
 Frc consts  --      0.6689                 0.6800                 0.7262
 IR Inten    --     54.9432                37.0651                11.4287

                     19                     20                     21
                      A                      A                      A
 Frequencies --    982.4213              1034.1508              1085.3748
 Red. masses --      1.7357                 1.3179                 1.7378
 Frc consts  --      0.9870                 0.8304                 1.2062
 IR Inten    --      0.1326                 5.4050                75.6490

                     22                     23                     24
                      A                      A                      A
 Frequencies --   1106.3541              1216.2350              1246.7627
 Red. masses --      1.8191                 2.3990                 1.6348
 Frc consts  --      1.3119                 2.0908                 1.4972
 IR Inten    --     99.3293                46.9499               129.7567

                     25                     26                     27
                      A                      A                      A
 Frequencies --   1272.8341              1334.9195              1406.0143
 Red. masses --      2.0282                 1.8015                 1.2440
 Frc consts  --      1.9360                 1.8914                 1.4490
 IR Inten    --     14.3073                11.3887                 6.9498

                     28                     29                     30
                      A                      A                      A
 Frequencies --   1415.0925              1448.9876              1495.1649
 Red. masses --      1.4761                 1.8185                 1.0478
 Frc consts  --      1.7416                 2.2495                 1.3801
 IR Inten    --      8.4827                36.1072                 0.1792

                     31                     32                     33
                      A                      A                      A
 Frequencies --   1503.3520              1513.9845              1527.8090
 Red. masses --      1.0479                 1.0532                 1.0914
 Frc consts  --      1.3954                 1.4224                 1.5010
 IR Inten    --      1.7464                 6.7169                16.6147

                     34                     35                     36
                      A                      A                      A
 Frequencies --   1661.5294              1758.1295              3040.4103
 Red. masses --      1.1132                 7.9519                 1.0372
 Frc consts  --      1.8107                14.4818                 5.6492
 IR Inten    --     42.1775               179.6571                22.3014

                     37                     38                     39
                      A                      A                      A
 Frequencies --   3046.8117              3107.4743              3121.2679
 Red. masses --      1.0391                 1.1030                 1.0982
 Frc consts  --      5.6833                 6.2754                 6.3035
 IR Inten    --     21.8785                29.5924                22.7606

                     40                     41                     42
                      A                      A                      A
 Frequencies --   3142.4389              3151.3731              3485.4678
 Red. masses --      1.1004                 1.1027                 1.0580
 Frc consts  --      6.4021                 6.4523                 7.5725
 IR Inten    --     11.7238                16.8486                 4.4862

                     43                     44                     45
                      A                      A                      A
 Frequencies --   3487.7180              3573.9734              3756.3463
 Red. masses --      1.0647                 1.0923                 1.0641
 Frc consts  --      7.6306                 8.2201                 8.8462
 IR Inten    --      9.4304                 0.1930                43.6742

 - Thermochemistry -
 -------------------
 Temperature   298.150 Kelvin.  Pressure   1.00000 Atm.
 Atom     1 has atomic number  6 and mass  12.00000

 Molecular mass:   102.07931 amu.
 Principal axes and moments of inertia in atomic units:
                           1         2         3
     Eigenvalues --   542.76585 762.35404 910.90179
           X            0.99987   0.01634   0.00166
           Y           -0.01634   0.99987  -0.00031
           Z           -0.00167   0.00028   1.00000
 This molecule is an asymmetric top.
 Rotational symmetry number  1.
 Warning -- assumption of classical behavior for rotation
           may cause significant error
 Rotational temperatures (Kelvin)      0.15958     0.11361     0.09509
 Rotational constants (GHZ):           3.32508     2.36733     1.98127
 Zero-point vibrational energy     390125.5 (Joules/Mol)
                                   93.24222 (Kcal/Mol)
 Warning -- explicit consideration of  12 degrees of freedom as
           vibrations may cause significant error
 Vibrational temperatures:    114.86   321.05   339.47   396.84   406.27
          (Kelvin)            415.68   499.66   555.08   601.10   744.15
                              804.90   842.98  1034.64  1059.93  1226.97
                             1316.78  1342.66  1359.73  1413.48  1487.91
                             1561.61  1591.79  1749.89  1793.81  1831.32
                             1920.65  2022.94  2036.00  2084.77  2151.21
                             2162.99  2178.28  2198.17  2390.57  2529.55
                             4374.47  4383.68  4470.96  4490.80  4521.26
                             4534.12  5014.80  5018.04  5142.14  5404.54

 Zero-point correction=                           0.148591 (Hartree/Particle)
 Thermal correction to Energy=                    0.156731
 Thermal correction to Enthalpy=                  0.157675
 Thermal correction to Gibbs Free Energy=         0.116927
 Sum of electronic and zero-point Energies=           -343.039472
 Sum of electronic and thermal Energies=              -343.031332
 Sum of electronic and thermal Enthalpies=            -343.030388
 Sum of electronic and thermal Free Energies=         -343.071136

                     E (Thermal)             CV                S
                      KCal/Mol        Cal/Mol-Kelvin    Cal/Mol-Kelvin
 Total                   98.350             30.665             85.763
 Electronic               0.000              0.000              0.000
 Translational            0.889              2.981             39.779
 Rotational               0.889              2.981             27.424
 Vibrational             96.573             24.703             18.559
 Vibration     1          0.600              1.963              3.895
 Vibration     2          0.649              1.806              1.933
 Vibration     3          0.655              1.786              1.833
 Vibration     4          0.677              1.718              1.559
 Vibration     5          0.681              1.706              1.519
 Vibration     6          0.685              1.694              1.480
 Vibration     7          0.725              1.581              1.178
 Vibration     8          0.754              1.500              1.016
 Vibration     9          0.781              1.432              0.900
 Vibration    10          0.872              1.212              0.616
 Vibration    11          0.915              1.119              0.525
 Vibration    12          0.943              1.062              0.475

 Optimization completed.
    -- Stationary point found.
 Normal termination of Gaussian 09 at Thu Sep  8 15:09:24 2022.
