 Gaussian 09, Revision E.01,
 Gaussian 09:  ES64L-G09RevE.01 30-Nov-2015

 ----------------------------
 #P OPT Freq B3LYP/6-31G(d,p)
 ----------------------------

 --------
 Frag_697
 --------
 Symbolic Z-matrix:
 Charge =  0 Multiplicity = 1

 SCF Done:  E(RB3LYP) =  -283.204942573     A.U. after   15 cycles
 SCF Done:  E(RB3LYP) =  -283.205051918     A.U. after   10 cycles
 SCF Done:  E(RB3LYP) =  -283.205057115     A.U. after    8 cycles
 SCF Done:  E(RB3LYP) =  -283.205056862     A.U. after    9 cycles
 SCF Done:  E(RB3LYP) =  -283.205057566     A.U. after    9 cycles
 Optimization completed.
    -- Stationary point found.
 Normal termination of Gaussian 09 at Thu Sep  8 14:57:21 2022.

 ----------------------------------------------------------------------
 #P Geom=AllCheck Guess=TCheck SCRF=Check GenChk RB3LYP/6-31G(d,p) Freq
 ----------------------------------------------------------------------

 Structure from the checkpoint file:  "B3LYP6-31Gdp.Frag_697.chk"
 --------
 Frag_697
 --------
 Charge =  0 Multiplicity = 1

                         Standard orientation:
 ---------------------------------------------------------------------
 Center     Atomic      Atomic             Coordinates (Angstroms)
 Number     Number       Type             X           Y           Z
 ---------------------------------------------------------------------
      1          6           0        1.819387   -0.070280    0.000087
      2          7           0        0.716278   -0.707079   -0.000030
      3          6           0       -0.463065    0.134433   -0.000201
      4          8           0       -0.492594    1.339183    0.000052
      5          8           0       -1.568766   -0.623547    0.000068
      6          1           0        1.863462    1.023790   -0.000102
      7          1           0        2.751362   -0.634874   -0.000016
      8          1           0       -1.275819   -1.549375    0.000047
 ---------------------------------------------------------------------

 SCF Done:  E(RB3LYP) =  -283.205057566     A.U. after    1 cycles

 The electronic state is 1-A.
 Alpha  occ. eigenvalues --  -19.20538 -19.14567 -14.36767 -10.34783 -10.26731
 Alpha  occ. eigenvalues --   -1.11926  -1.03400  -0.94090  -0.68637  -0.61359
 Alpha  occ. eigenvalues --   -0.55188  -0.48915  -0.46690  -0.45447  -0.39647
 Alpha  occ. eigenvalues --   -0.35692  -0.33050  -0.32144  -0.27567
 Alpha virt. eigenvalues --   -0.07338   0.05984   0.07827   0.11399   0.14340
 Alpha virt. eigenvalues --    0.20953   0.27817   0.33760   0.36557   0.48746
 Alpha virt. eigenvalues --    0.55919   0.57429   0.57785   0.60236   0.63755

 Mulliken charges:
               1
     1  C    0.021969
     2  N   -0.423434
     3  C    0.703196
     4  O   -0.438118
     5  O   -0.474982
     6  H    0.145842
     7  H    0.129294
     8  H    0.336232
 Sum of Mulliken charges =  -0.00000

 Dipole moment (field-independent basis, Debye):
    X=              2.4233    Y=             -2.0835    Z=             -0.0006  Tot=              3.1958
 Quadrupole moment (field-independent basis, Debye-Ang):
   XX=            -24.9546   YY=            -29.2745   ZZ=            -27.6570
   XY=              3.7501   XZ=              0.0003   YZ=             -0.0003

  Exact polarizability:  44.581   3.195  35.160   0.000   0.000  15.183
 Approx polarizability:  63.955   8.531  59.128   0.002   0.003  21.881

                      1                      2                      3
                      A                      A                      A
 Frequencies --     63.0358               332.6631               528.8798
 Red. masses --      3.8310                 3.4653                 4.4975
 Frc consts  --      0.0090                 0.2259                 0.7412
 IR Inten    --      9.5928                18.6499                 3.0410

                      4                      5                      6
                      A                      A                      A
 Frequencies --    554.0680               619.9944               657.8374
 Red. masses --      1.5986                 1.0939                 5.5482
 Frc consts  --      0.2891                 0.2478                 1.4146
 IR Inten    --     11.6066               117.9763                 0.5866

                      7                      8                      9
                      A                      A                      A
 Frequencies --    856.0747               870.7688              1125.0467
 Red. masses --      6.2893                 2.7980                 1.3514
 Frc consts  --      2.7156                 1.2500                 1.0078
 IR Inten    --     31.1218                17.0792                12.4577

                     10                     11                     12
                      A                      A                      A
 Frequencies --   1204.7200              1232.7307              1353.5233
 Red. masses --      2.1451                 1.5703                 2.3058
 Frc consts  --      1.8343                 1.4059                 2.4889
 IR Inten    --     19.6492                 9.1403               560.5632

                     13                     14                     15
                      A                      A                      A
 Frequencies --   1476.8321              1719.4587              1877.2993
 Red. masses --      1.1596                 6.5431                 9.6056
 Frc consts  --      1.4902                11.3977                19.9454
 IR Inten    --     69.3853                74.4223               239.3829

                     16                     17                     18
                      A                      A                      A
 Frequencies --   3077.0617              3192.4414              3766.4302
 Red. masses --      1.0576                 1.1165                 1.0646
 Frc consts  --      5.9000                 6.7043                 8.8980
 IR Inten    --     14.9672                 9.2711                71.1157

 - Thermochemistry -
 -------------------
 Temperature   298.150 Kelvin.  Pressure   1.00000 Atm.
 Atom     1 has atomic number  6 and mass  12.00000

 Molecular mass:    73.01638 amu.
 Principal axes and moments of inertia in atomic units:
                           1         2         3
     Eigenvalues --   164.17326 376.45130 540.62455
           X            0.99939   0.03488  -0.00000
           Y           -0.03488   0.99939  -0.00000
           Z            0.00000   0.00000   1.00000
 This molecule is an asymmetric top.
 Rotational symmetry number  1.
 Rotational temperatures (Kelvin)      0.52758     0.23008     0.16021
 Rotational constants (GHZ):          10.99291     4.79409     3.33825
 Zero-point vibrational energy     146595.6 (Joules/Mol)
                                   35.03718 (Kcal/Mol)
 Warning -- explicit consideration of   5 degrees of freedom as
           vibrations may cause significant error
 Vibrational temperatures:     90.69   478.63   760.94   797.18   892.03
          (Kelvin)            946.48  1231.70  1252.84  1618.69  1733.32
                             1773.62  1947.42  2124.83  2473.91  2701.01
                             4427.20  4593.21  5419.05

 Zero-point correction=                           0.055835 (Hartree/Particle)
 Thermal correction to Energy=                    0.060722
 Thermal correction to Enthalpy=                  0.061667
 Thermal correction to Gibbs Free Energy=         0.027550
 Sum of electronic and zero-point Energies=           -283.149222
 Sum of electronic and thermal Energies=              -283.144335
 Sum of electronic and thermal Enthalpies=            -283.143391
 Sum of electronic and thermal Free Energies=         -283.177507

                     E (Thermal)             CV                S
                      KCal/Mol        Cal/Mol-Kelvin    Cal/Mol-Kelvin
 Total                   38.104             15.770             71.804
 Electronic               0.000              0.000              0.000
 Translational            0.889              2.981             38.781
 Rotational               0.889              2.981             25.017
 Vibrational             36.326              9.809              8.007
 Vibration     1          0.597              1.972              4.360
 Vibration     2          0.715              1.610              1.247
 Vibration     3          0.884              1.186              0.590
 Vibration     4          0.909              1.131              0.536
 Vibration     5          0.980              0.990              0.417

 Optimization completed.
    -- Stationary point found.
 Normal termination of Gaussian 09 at Thu Sep  8 14:57:27 2022.
