 Gaussian 09, Revision E.01,
 Gaussian 09:  ES64L-G09RevE.01 30-Nov-2015

 ----------------------------
 #P OPT Freq B3LYP/6-31G(d,p)
 ----------------------------

 --------
 Frag_929
 --------
 Symbolic Z-matrix:
 Charge =  0 Multiplicity = 1

 SCF Done:  E(RB3LYP) =  -280.492152931     A.U. after   14 cycles
 SCF Done:  E(RB3LYP) =  -280.492242471     A.U. after   10 cycles
 SCF Done:  E(RB3LYP) =  -280.492235432     A.U. after   10 cycles
 SCF Done:  E(RB3LYP) =  -280.492249089     A.U. after   10 cycles
 SCF Done:  E(RB3LYP) =  -280.492251276     A.U. after    8 cycles
 Optimization completed.
    -- Stationary point found.
 Normal termination of Gaussian 09 at Thu Sep  8 15:03:06 2022.

 ----------------------------------------------------------------------
 #P Geom=AllCheck Guess=TCheck SCRF=Check GenChk RB3LYP/6-31G(d,p) Freq
 ----------------------------------------------------------------------

 Structure from the checkpoint file:  "B3LYP6-31Gdp.Frag_929.chk"
 --------
 Frag_929
 --------
 Charge =  0 Multiplicity = 1

                         Standard orientation:
 ---------------------------------------------------------------------
 Center     Atomic      Atomic             Coordinates (Angstroms)
 Number     Number       Type             X           Y           Z
 ---------------------------------------------------------------------
      1          6           0       -1.846685   -0.102063    0.005254
      2          7           0       -0.554663   -0.774653    0.006183
      3          7           0        0.405725    0.055388   -0.006711
      4          7           0        1.684797   -0.517166   -0.106480
      5          8           0        0.364029    1.302059    0.002856
      6          1           0       -1.964001    0.536379   -0.879121
      7          1           0       -2.615432   -0.875071    0.008531
      8          1           0       -1.964699    0.543003    0.885016
      9          1           0        2.317770    0.099345    0.393525
     10          1           0        1.643229   -1.452742    0.286721
 ---------------------------------------------------------------------

 SCF Done:  E(RB3LYP) =  -280.492251276     A.U. after    1 cycles

 The electronic state is 1-A.
 Alpha  occ. eigenvalues --  -19.15571 -14.55010 -14.39287 -14.36283 -10.21153
 Alpha  occ. eigenvalues --   -1.18103  -0.97572  -0.92599  -0.73744  -0.62034
 Alpha  occ. eigenvalues --   -0.54655  -0.52475  -0.51279  -0.48291  -0.41618
 Alpha  occ. eigenvalues --   -0.40944  -0.31712  -0.30136  -0.27591  -0.25559
 Alpha virt. eigenvalues --   -0.02956   0.07630   0.12346   0.12686   0.13807
 Alpha virt. eigenvalues --    0.17358   0.18105   0.19960   0.27070   0.38381
 Alpha virt. eigenvalues --    0.53791   0.56117   0.57386   0.59263   0.63448

 Mulliken charges:
               1
     1  C   -0.180250
     2  N   -0.276375
     3  N    0.350065
     4  N   -0.379952
     5  O   -0.463913
     6  H    0.134405
     7  H    0.120520
     8  H    0.129512
     9  H    0.283919
    10  H    0.282070
 Sum of Mulliken charges =  -0.00000

 Dipole moment (field-independent basis, Debye):
    X=              0.7052    Y=             -1.3019    Z=              1.3595  Tot=              2.0101
 Quadrupole moment (field-independent basis, Debye-Ang):
   XX=            -22.5866   YY=            -32.7891   ZZ=            -29.7734
   XY=             -2.2155   XZ=              3.1698   YZ=             -0.8867

  Exact polarizability:  52.892   2.159  39.237   0.754  -0.077  22.483
 Approx polarizability:  72.886  12.623  76.484  -0.165   0.125  31.323

                      1                      2                      3
                      A                      A                      A
 Frequencies --    174.9521               244.1105               316.3385
 Red. masses --      1.0682                 3.0725                 2.2360
 Frc consts  --      0.0193                 0.1079                 0.1318
 IR Inten    --      0.3435                14.8444                35.3086

                      4                      5                      6
                      A                      A                      A
 Frequencies --    346.1210               531.0541               654.1436
 Red. masses --      1.3129                 3.8409                 5.2421
 Frc consts  --      0.0927                 0.6382                 1.3216
 IR Inten    --     15.7891                 4.4250                33.9245

                      7                      8                      9
                      A                      A                      A
 Frequencies --    708.5523               866.1299               970.1470
 Red. masses --      4.7030                 1.8489                 2.7206
 Frc consts  --      1.3911                 0.8172                 1.5086
 IR Inten    --     19.6789               252.1658                14.8592

                     10                     11                     12
                      A                      A                      A
 Frequencies --   1077.4050              1108.1950              1195.2825
 Red. masses --      3.1697                 1.3375                 1.8265
 Frc consts  --      2.1678                 0.9678                 1.5375
 IR Inten    --     22.9129                 0.3243                 0.8136

                     13                     14                     15
                      A                      A                      A
 Frequencies --   1274.5594              1388.9019              1442.5313
 Red. masses --      1.6103                 8.8686                 1.1987
 Frc consts  --      1.5413                10.0797                 1.4696
 IR Inten    --     59.3668               122.2460                23.5217

                     16                     17                     18
                      A                      A                      A
 Frequencies --   1489.9084              1493.5917              1612.6347
 Red. masses --      1.0496                 1.0441                 1.1130
 Frc consts  --      1.3727                 1.3723                 1.7054
 IR Inten    --      1.8206                 6.3344                58.0418

                     19                     20                     21
                      A                      A                      A
 Frequencies --   1657.1145              3028.2410              3083.7879
 Red. masses --      4.9339                 1.0362                 1.1021
 Frc consts  --      7.9826                 5.5986                 6.1749
 IR Inten    --    195.4086                21.7926                20.9424

                     22                     23                     24
                      A                      A                      A
 Frequencies --   3158.5484              3512.7139              3643.6647
 Red. masses --      1.1010                 1.0450                 1.1006
 Frc consts  --      6.4718                 7.5972                 8.6089
 IR Inten    --     18.2911                17.6846                28.7856

 - Thermochemistry -
 -------------------
 Temperature   298.150 Kelvin.  Pressure   1.00000 Atm.
 Atom     1 has atomic number  6 and mass  12.00000

 Molecular mass:    75.04326 amu.
 Principal axes and moments of inertia in atomic units:
                           1         2         3
     Eigenvalues --   159.99890 407.58099 553.71270
           X            0.99954  -0.02767   0.01211
           Y            0.02779   0.99956  -0.00993
           Z           -0.01183   0.01026   0.99988
 This molecule is an asymmetric top.
 Rotational symmetry number  1.
 Rotational temperatures (Kelvin)      0.54134     0.21251     0.15642
 Rotational constants (GHZ):          11.27971     4.42793     3.25935
 Zero-point vibrational energy     209218.7 (Joules/Mol)
                                   50.00446 (Kcal/Mol)
 Warning -- explicit consideration of   5 degrees of freedom as
           vibrations may cause significant error
 Vibrational temperatures:    251.72   351.22   455.14   497.99   764.07
          (Kelvin)            941.17  1019.45  1246.17  1395.82  1550.14
                             1594.44  1719.74  1833.80  1998.32  2075.48
                             2143.64  2148.94  2320.22  2384.22  4356.96
                             4436.88  4544.44  5054.01  5242.41

 Zero-point correction=                           0.079687 (Hartree/Particle)
 Thermal correction to Energy=                    0.085039
 Thermal correction to Enthalpy=                  0.085983
 Thermal correction to Gibbs Free Energy=         0.051580
 Sum of electronic and zero-point Energies=           -280.412564
 Sum of electronic and thermal Energies=              -280.407213
 Sum of electronic and thermal Enthalpies=            -280.406269
 Sum of electronic and thermal Free Energies=         -280.440672

                     E (Thermal)             CV                S
                      KCal/Mol        Cal/Mol-Kelvin    Cal/Mol-Kelvin
 Total                   53.363             18.097             72.407
 Electronic               0.000              0.000              0.000
 Translational            0.889              2.981             38.862
 Rotational               0.889              2.981             25.094
 Vibrational             51.585             12.135              8.451
 Vibration     1          0.627              1.873              2.382
 Vibration     2          0.659              1.773              1.773
 Vibration     3          0.703              1.642              1.329
 Vibration     4          0.724              1.583              1.184
 Vibration     5          0.886              1.181              0.585

 Optimization completed.
    -- Stationary point found.
 Normal termination of Gaussian 09 at Thu Sep  8 15:03:13 2022.
