 Gaussian 09, Revision E.01,
 Gaussian 09:  ES64L-G09RevE.01 30-Nov-2015

 --------------------------------
 #P OPT=calcfc Freq B3LYP/6-31G**
 --------------------------------

 --------
 Frag_417
 --------
 Symbolic Z-matrix:
 Charge =  0 Multiplicity = 1

 SCF Done:  E(RB3LYP) =  -344.375904298     A.U. after   13 cycles
 SCF Done:  E(RB3LYP) =  -344.383667273     A.U. after   11 cycles
 SCF Done:  E(RB3LYP) =  -344.382180737     A.U. after   11 cycles
 SCF Done:  E(RB3LYP) =  -344.383671234     A.U. after    7 cycles
 SCF Done:  E(RB3LYP) =  -344.384680046     A.U. after   11 cycles
 SCF Done:  E(RB3LYP) =  -344.385070879     A.U. after   13 cycles
 SCF Done:  E(RB3LYP) =  -344.385204103     A.U. after   10 cycles
 SCF Done:  E(RB3LYP) =  -344.385241766     A.U. after   10 cycles
 SCF Done:  E(RB3LYP) =  -344.385264443     A.U. after   10 cycles
 SCF Done:  E(RB3LYP) =  -344.385309084     A.U. after   11 cycles
 SCF Done:  E(RB3LYP) =  -344.392163143     A.U. after   11 cycles
 SCF Done:  E(RB3LYP) =  -344.391831549     A.U. after   11 cycles
 SCF Done:  E(RB3LYP) =  -344.392888889     A.U. after    9 cycles
 SCF Done:  E(RB3LYP) =  -344.393837432     A.U. after   12 cycles
 SCF Done:  E(RB3LYP) =  -344.393958625     A.U. after   11 cycles
 SCF Done:  E(RB3LYP) =  -344.394030100     A.U. after   10 cycles
 SCF Done:  E(RB3LYP) =  -344.394051680     A.U. after    9 cycles
 SCF Done:  E(RB3LYP) =  -344.394053786     A.U. after    7 cycles
 SCF Done:  E(RB3LYP) =  -344.394053842     A.U. after    6 cycles
 Optimization completed.
    -- Stationary point found.
 Normal termination of Gaussian 09 at Fri Sep 10 15:36:45 2021.

 ----------------------------------------------------------------------
 #P Geom=AllCheck Guess=TCheck SCRF=Check GenChk RB3LYP/6-31G(d,p) Freq
 ----------------------------------------------------------------------

 Structure from the checkpoint file:  "/public/home/users/caep010/.cache/gau_scr/Gau-220303.chk"
 --------
 Frag_417
 --------
 Charge =  0 Multiplicity = 1

                         Standard orientation:
 ---------------------------------------------------------------------
 Center     Atomic      Atomic             Coordinates (Angstroms)
 Number     Number       Type             X           Y           Z
 ---------------------------------------------------------------------
      1          6           0        1.772353    1.067706   -0.001410
      2          6           0        0.847639   -0.048142   -0.498404
      3          8           0        1.358860   -1.322776   -0.122983
      4          6           0       -0.630406    0.037909   -0.000127
      5          6           0       -1.298973    1.373303   -0.346483
      6          7           0       -1.439069   -1.047398   -0.568152
      7          7           0       -0.585989   -0.241367    1.451379
      8          1           0        1.801202    1.098862    1.093748
      9          1           0        2.789918    0.872001   -0.350112
     10          1           0        1.468894    2.053302   -0.369065
     11          1           0        0.830294   -0.032849   -1.596343
     12          1           0        1.066596   -1.415700    0.804150
     13          1           0       -1.233572    1.587001   -1.420464
     14          1           0       -0.830427    2.205893    0.185819
     15          1           0       -2.357169    1.335916   -0.070812
     16          1           0       -0.861753   -1.888212   -0.564870
     17          1           0       -1.635803   -0.842212   -1.545367
     18          1           0       -1.510355   -0.555671    1.735508
     19          1           0       -0.366980    0.600572    1.977626
 ---------------------------------------------------------------------

 SCF Done:  E(RB3LYP) =  -344.394053842     A.U. after    1 cycles

 The electronic state is 1-A.
 Alpha  occ. eigenvalues --  -19.12605 -14.32027 -14.30939 -10.24416 -10.22516
 Alpha  occ. eigenvalues --  -10.18103 -10.17281  -1.00686  -0.91662  -0.83676
 Alpha  occ. eigenvalues --   -0.75079  -0.71184  -0.63067  -0.56941  -0.51521
 Alpha  occ. eigenvalues --   -0.49032  -0.46711  -0.43890  -0.42887  -0.41138
 Alpha  occ. eigenvalues --   -0.39693  -0.39225  -0.37576  -0.37074  -0.35692
 Alpha  occ. eigenvalues --   -0.31033  -0.26294  -0.25220  -0.23771
 Alpha virt. eigenvalues --    0.06411   0.10867   0.12301   0.12770   0.13307
 Alpha virt. eigenvalues --    0.14878   0.15960   0.16734   0.17279   0.18506
 Alpha virt. eigenvalues --    0.19611   0.20980   0.22252   0.24286   0.24747

 Mulliken charges:
               1
     1  C   -0.328925
     2  C    0.203250
     3  O   -0.560838
     4  C    0.215179
     5  C   -0.320346
     6  N   -0.589639
     7  N   -0.614318
     8  H    0.095756
     9  H    0.118962
    10  H    0.095645
    11  H    0.077435
    12  H    0.312773
    13  H    0.098363
    14  H    0.101783
    15  H    0.115294
    16  H    0.248542
    17  H    0.234599
    18  H    0.255827
    19  H    0.240659
 Sum of Mulliken charges =  -0.00000

 Dipole moment (field-independent basis, Debye):
    X=             -0.9720    Y=              2.0296    Z=              0.2222  Tot=              2.2613
 Quadrupole moment (field-independent basis, Debye-Ang):
   XX=            -48.5426   YY=            -45.6789   ZZ=            -40.1821
   XY=              1.1594   XZ=              0.6010   YZ=              0.6776

  Exact polarizability:  62.802   1.302  60.847   0.718  -0.327  59.861
 Approx polarizability:  81.654   0.546  84.667   0.982  -0.692  87.154

                      1                      2                      3
                      A                      A                      A
 Frequencies --    113.3010               237.4013               238.2453
 Red. masses --      3.1101                 2.1916                 1.0689
 Frc consts  --      0.0235                 0.0728                 0.0357
 IR Inten    --      2.7941                 1.1837                 0.2552

                      4                      5                      6
                      A                      A                      A
 Frequencies --    268.3994               286.1678               307.0204
 Red. masses --      1.2447                 2.1287                 1.1188
 Frc consts  --      0.0528                 0.1027                 0.0621
 IR Inten    --      6.4771                15.3181                18.1116

                      7                      8                      9
                      A                      A                      A
 Frequencies --    344.0418               364.4272               372.1513
 Red. masses --      1.3235                 2.4271                 2.7850
 Frc consts  --      0.0923                 0.1899                 0.2273
 IR Inten    --     15.1436                20.2086                 2.4947

                     10                     11                     12
                      A                      A                      A
 Frequencies --    413.6961               482.3793               521.1224
 Red. masses --      2.4887                 2.6129                 3.1090
 Frc consts  --      0.2509                 0.3582                 0.4974
 IR Inten    --      5.9643                 5.3495                 2.6585

                     13                     14                     15
                      A                      A                      A
 Frequencies --    594.9456               657.4721               740.9700
 Red. masses --      2.4332                 1.1947                 2.7677
 Frc consts  --      0.5074                 0.3043                 0.8953
 IR Inten    --     19.5793               101.2325                12.1317

                     16                     17                     18
                      A                      A                      A
 Frequencies --    860.2734               913.1593               922.8668
 Red. masses --      2.1275                 2.1003                 1.7923
 Frc consts  --      0.9277                 1.0319                 0.8993
 IR Inten    --     65.7112               110.7724                44.2987

                     19                     20                     21
                      A                      A                      A
 Frequencies --    940.1246              1001.7015              1021.8002
 Red. masses --      1.2979                 1.3487                 1.6216
 Frc consts  --      0.6759                 0.7973                 0.9975
 IR Inten    --     47.1623               101.9973                15.2327

                     22                     23                     24
                      A                      A                      A
 Frequencies --   1050.3029              1080.2167              1114.0733
 Red. masses --      1.6302                 1.7457                 2.2873
 Frc consts  --      1.0596                 1.2002                 1.6726
 IR Inten    --      6.4236                 9.9762                11.0035

                     25                     26                     27
                      A                      A                      A
 Frequencies --   1121.2364              1260.7506              1270.0899
 Red. masses --      1.8397                 2.1553                 1.8063
 Frc consts  --      1.3627                 2.0184                 1.7168
 IR Inten    --     90.1825                18.1362                29.6080

                     28                     29                     30
                      A                      A                      A
 Frequencies --   1326.2279              1357.2008              1375.6996
 Red. masses --      1.6185                 1.7160                 1.4196
 Frc consts  --      1.6773                 1.8623                 1.5829
 IR Inten    --     24.9940                18.0634                 2.9221

                     31                     32                     33
                      A                      A                      A
 Frequencies --   1416.2682              1421.9605              1447.3250
 Red. masses --      1.3029                 1.3278                 1.1883
 Frc consts  --      1.5397                 1.5818                 1.4665
 IR Inten    --      9.9851                11.5563                84.6177

                     34                     35                     36
                      A                      A                      A
 Frequencies --   1501.4167              1508.0627              1512.4641
 Red. masses --      1.0562                 1.0685                 1.0529
 Frc consts  --      1.4029                 1.4317                 1.4191
 IR Inten    --      3.5384                 1.6810                 3.2620

                     37                     38                     39
                      A                      A                      A
 Frequencies --   1517.1208              1635.4274              1669.8034
 Red. masses --      1.0498                 1.1050                 1.0967
 Frc consts  --      1.4236                 1.7413                 1.8016
 IR Inten    --      7.8204                47.9620                31.7109

                     40                     41                     42
                      A                      A                      A
 Frequencies --   3035.0674              3040.2049              3043.8412
 Red. masses --      1.0585                 1.0644                 1.0369
 Frc consts  --      5.7451                 5.7963                 5.6601
 IR Inten    --      7.2156                38.8925                18.7416

                     43                     44                     45
                      A                      A                      A
 Frequencies --   3107.7251              3113.9957              3127.1716
 Red. masses --      1.0984                 1.1014                 1.1025
 Frc consts  --      6.2504                 6.2925                 6.3522
 IR Inten    --     28.8672                34.6775                36.7888

                     46                     47                     48
                      A                      A                      A
 Frequencies --   3131.4979              3477.7373              3500.2707
 Red. masses --      1.1024                 1.0501                 1.0491
 Frc consts  --      6.3692                 7.4828                 7.5730
 IR Inten    --     12.5244                 3.0272                 2.3459

                     49                     50                     51
                      A                      A                      A
 Frequencies --   3565.7892              3594.0866              3647.8082
 Red. masses --      1.0909                 1.0935                 1.0644
 Frc consts  --      8.1725                 8.3224                 8.3450
 IR Inten    --      2.4447                 2.4426                69.2406

 - Thermochemistry -
 -------------------
 Temperature   298.150 Kelvin.  Pressure   1.00000 Atm.
 Atom     1 has atomic number  6 and mass  12.00000

 Molecular mass:   104.09496 amu.
 Principal axes and moments of inertia in atomic units:
                           1         2         3
     Eigenvalues --   563.46112 781.19148 950.93120
           X            0.99907   0.04121   0.01283
           Y           -0.04114   0.99914  -0.00559
           Z           -0.01305   0.00505   0.99990
 This molecule is an asymmetric top.
 Rotational symmetry number  1.
 Warning -- assumption of classical behavior for rotation
           may cause significant error
 Rotational temperatures (Kelvin)      0.15372     0.11087     0.09108
 Rotational constants (GHZ):           3.20296     2.31024     1.89787
 Zero-point vibrational energy     452024.0 (Joules/Mol)
                                  108.03632 (Kcal/Mol)
 Warning -- explicit consideration of  13 degrees of freedom as
           vibrations may cause significant error
 Vibrational temperatures:    163.01   341.57   342.78   386.17   411.73
          (Kelvin)            441.73   495.00   524.33   535.44   595.22
                              694.04   749.78   855.99   945.95  1066.09
                             1237.74  1313.83  1327.80  1352.63  1441.22
                             1470.14  1511.15  1554.19  1602.90  1613.21
                             1813.94  1827.37  1908.14  1952.71  1979.32
                             2037.69  2045.88  2082.38  2160.20  2169.76
                             2176.10  2182.80  2353.01  2402.47  4366.78
                             4374.17  4379.40  4471.32  4480.34  4499.30
                             4505.52  5003.68  5036.10  5130.37  5171.08
                             5248.38

 Zero-point correction=                           0.172167 (Hartree/Particle)
 Thermal correction to Energy=                    0.180693
 Thermal correction to Enthalpy=                  0.181637
 Thermal correction to Gibbs Free Energy=         0.140498
 Sum of electronic and zero-point Energies=           -344.221887
 Sum of electronic and thermal Energies=              -344.213361
 Sum of electronic and thermal Enthalpies=            -344.212417
 Sum of electronic and thermal Free Energies=         -344.253556

                     E (Thermal)             CV                S
                      KCal/Mol        Cal/Mol-Kelvin    Cal/Mol-Kelvin
 Total                  113.386             33.069             86.585
 Electronic               0.000              0.000              0.000
 Translational            0.889              2.981             39.838
 Rotational               0.889              2.981             27.528
 Vibrational            111.609             27.107             19.219
 Vibration     1          0.607              1.938              3.212
 Vibration     2          0.656              1.783              1.822
 Vibration     3          0.656              1.782              1.816
 Vibration     4          0.673              1.731              1.606
 Vibration     5          0.684              1.699              1.497
 Vibration     6          0.697              1.660              1.378
 Vibration     7          0.723              1.587              1.193
 Vibration     8          0.738              1.545              1.103
 Vibration     9          0.744              1.529              1.071
 Vibration    10          0.777              1.440              0.914
 Vibration    11          0.839              1.289              0.704
 Vibration    12          0.876              1.203              0.607
 Vibration    13          0.953              1.043              0.458

 Optimization completed.
    -- Stationary point found.
 Normal termination of Gaussian 09 at Fri Sep 10 15:37:04 2021.
