 Gaussian 09, Revision E.01,
 Gaussian 09:  ES64L-G09RevE.01 30-Nov-2015

 ----------------------------
 #P OPT Freq B3LYP/6-31G(d,p)
 ----------------------------

 --------
 Frag_458
 --------
 Symbolic Z-matrix:
 Charge =  0 Multiplicity = 1

 SCF Done:  E(RB3LYP) =  -289.043759216     A.U. after   13 cycles
 SCF Done:  E(RB3LYP) =  -289.043794477     A.U. after   10 cycles
 SCF Done:  E(RB3LYP) =  -289.043798499     A.U. after    8 cycles
 SCF Done:  E(RB3LYP) =  -289.043801240     A.U. after    7 cycles
 SCF Done:  E(RB3LYP) =  -289.043802375     A.U. after    7 cycles
 SCF Done:  E(RB3LYP) =  -289.043802774     A.U. after    7 cycles
 Optimization completed.
    -- Stationary point found.
 Normal termination of Gaussian 09 at Thu Sep  8 15:08:22 2022.

 ----------------------------------------------------------------------
 #P Geom=AllCheck Guess=TCheck SCRF=Check GenChk RB3LYP/6-31G(d,p) Freq
 ----------------------------------------------------------------------

 Structure from the checkpoint file:  "B3LYP6-31Gdp.Frag_458.chk"
 --------
 Frag_458
 --------
 Charge =  0 Multiplicity = 1

                         Standard orientation:
 ---------------------------------------------------------------------
 Center     Atomic      Atomic             Coordinates (Angstroms)
 Number     Number       Type             X           Y           Z
 ---------------------------------------------------------------------
      1          6           0       -2.145152    0.027554    0.012939
      2          6           0       -0.874452   -0.628226   -0.530315
      3          6           0        0.440009   -0.016969    0.004762
      4          6           0        0.606549    1.456968   -0.383715
      5          7           0        1.539897   -0.874528   -0.450283
      6          8           0        0.463914   -0.036516    1.430470
      7          1           0       -3.032260   -0.537458   -0.289585
      8          1           0       -2.114837    0.063884    1.105237
      9          1           0       -2.267663    1.051419   -0.354290
     10          1           0       -0.861698   -1.692522   -0.263517
     11          1           0       -0.867329   -0.584722   -1.628257
     12          1           0       -0.186814    2.075579    0.043896
     13          1           0        0.591182    1.574113   -1.471971
     14          1           0        1.562126    1.830296   -0.002580
     15          1           0        1.486516   -1.025982   -1.455019
     16          1           0        2.428128   -0.412160   -0.264678
     17          1           0        0.610335   -0.964591    1.666963
 ---------------------------------------------------------------------

 SCF Done:  E(RB3LYP) =  -289.043802774     A.U. after    1 cycles

 The electronic state is 1-A.
 Alpha  occ. eigenvalues --  -19.13254 -14.31515 -10.26009 -10.17792 -10.17107
 Alpha  occ. eigenvalues --  -10.16889  -1.01778  -0.87157  -0.76518  -0.71289
 Alpha  occ. eigenvalues --   -0.63518  -0.56559  -0.49566  -0.48496  -0.45191
 Alpha  occ. eigenvalues --   -0.44052  -0.40975  -0.38481  -0.37440  -0.36220
 Alpha  occ. eigenvalues --   -0.34919  -0.33244  -0.32311  -0.26941  -0.24340
 Alpha virt. eigenvalues --    0.07035   0.10946   0.12019   0.13020   0.15003
 Alpha virt. eigenvalues --    0.15922   0.17293   0.17751   0.18544   0.19355
 Alpha virt. eigenvalues --    0.21952   0.23418   0.24353   0.26121   0.27305

 Mulliken charges:
               1
     1  C   -0.320525
     2  C   -0.172093
     3  C    0.359824
     4  C   -0.304506
     5  N   -0.604035
     6  O   -0.542524
     7  H    0.097087
     8  H    0.122569
     9  H    0.101979
    10  H    0.096201
    11  H    0.080247
    12  H    0.116982
    13  H    0.091097
    14  H    0.102814
    15  H    0.233903
    16  H    0.237859
    17  H    0.303122
 Sum of Mulliken charges =  -0.00000

 Dipole moment (field-independent basis, Debye):
    X=              0.4104    Y=             -0.2000    Z=             -1.5678  Tot=              1.6329
 Quadrupole moment (field-independent basis, Debye-Ang):
   XX=            -36.7807   YY=            -39.4977   ZZ=            -38.2772
   XY=              0.9191   XZ=             -1.3559   YZ=             -1.7181

  Exact polarizability:  58.890  -0.133  52.543  -0.634   0.056  52.103
 Approx polarizability:  73.170  -1.274  71.692   0.006   1.071  76.089

                      1                      2                      3
                      A                      A                      A
 Frequencies --    108.9717               222.7990               244.7355
 Red. masses --      1.9328                 1.1478                 1.1024
 Frc consts  --      0.0135                 0.0336                 0.0389
 IR Inten    --      0.7010                 2.2093                21.6284

                      4                      5                      6
                      A                      A                      A
 Frequencies --    252.5018               273.3729               343.0849
 Red. masses --      2.1949                 1.1643                 2.2358
 Frc consts  --      0.0825                 0.0513                 0.1551
 IR Inten    --      7.1245                 1.9758                 2.7490

                      7                      8                      9
                      A                      A                      A
 Frequencies --    365.9054               423.9603               465.5524
 Red. masses --      2.0482                 1.5597                 2.7172
 Frc consts  --      0.1616                 0.1652                 0.3470
 IR Inten    --     18.6710                48.7915                36.7483

                     10                     11                     12
                      A                      A                      A
 Frequencies --    493.3723               563.2221               742.6903
 Red. masses --      2.0946                 2.7167                 3.3384
 Frc consts  --      0.3004                 0.5077                 1.0849
 IR Inten    --     11.6107                32.0528                 2.0820

                     13                     14                     15
                      A                      A                      A
 Frequencies --    796.0025               879.9947               918.2028
 Red. masses --      1.2257                 1.4616                 1.8648
 Frc consts  --      0.4576                 0.6669                 0.9263
 IR Inten    --      1.9544               154.8460                15.3027

                     16                     17                     18
                      A                      A                      A
 Frequencies --    955.8222              1006.7499              1022.6128
 Red. masses --      1.7297                 1.6347                 2.0787
 Frc consts  --      0.9311                 0.9762                 1.2807
 IR Inten    --     33.5270                22.1110                39.6824

                     19                     20                     21
                      A                      A                      A
 Frequencies --   1072.1789              1081.9295              1152.5668
 Red. masses --      1.4041                 1.8284                 1.6667
 Frc consts  --      0.9510                 1.2610                 1.3045
 IR Inten    --      6.2454                 1.9934                42.2500

                     22                     23                     24
                      A                      A                      A
 Frequencies --   1223.7390              1287.1871              1341.8526
 Red. masses --      2.4566                 1.2475                 1.7798
 Frc consts  --      2.1675                 1.2178                 1.8882
 IR Inten    --     60.2424                24.6505                28.4724

                     25                     26                     27
                      A                      A                      A
 Frequencies --   1374.5589              1386.5257              1424.1631
 Red. masses --      1.6869                 1.3838                 1.2525
 Frc consts  --      1.8779                 1.5674                 1.4967
 IR Inten    --     13.9115                21.2850                 3.4530

                     28                     29                     30
                      A                      A                      A
 Frequencies --   1433.2017              1491.4365              1504.9263
 Red. masses --      1.4680                 1.0643                 1.0659
 Frc consts  --      1.7766                 1.3949                 1.4223
 IR Inten    --     23.3072                 0.1115                 0.7872

                     31                     32                     33
                      A                      A                      A
 Frequencies --   1510.3207              1521.2072              1527.1582
 Red. masses --      1.0522                 1.0505                 1.0614
 Frc consts  --      1.4141                 1.4322                 1.4584
 IR Inten    --      3.1344                 4.5142                 3.1839

                     34                     35                     36
                      A                      A                      A
 Frequencies --   1653.4532              3024.2560              3049.5658
 Red. masses --      1.1129                 1.0616                 1.0359
 Frc consts  --      1.7926                 5.7206                 5.6761
 IR Inten    --     38.4807                31.0272                18.4530

                     37                     38                     39
                      A                      A                      A
 Frequencies --   3052.4648              3065.6643              3115.7310
 Red. masses --      1.0368                 1.1005                 1.1022
 Frc consts  --      5.6918                 6.0938                 6.3042
 IR Inten    --     18.3578                22.9696                43.9305

                     40                     41                     42
                      A                      A                      A
 Frequencies --   3123.9566              3133.9771              3135.8440
 Red. masses --      1.1033                 1.1016                 1.1020
 Frc consts  --      6.3439                 6.3749                 6.3848
 IR Inten    --     23.4456                30.3751                20.3232

                     43                     44                     45
                      A                      A                      A
 Frequencies --   3483.3778              3574.8195              3782.0336
 Red. masses --      1.0494                 1.0927                 1.0650
 Frc consts  --      7.5022                 8.2272                 8.9754
 IR Inten    --      0.5063                 0.2014                16.8467

 - Thermochemistry -
 -------------------
 Temperature   298.150 Kelvin.  Pressure   1.00000 Atm.
 Atom     1 has atomic number  6 and mass  12.00000

 Molecular mass:    89.08406 amu.
 Principal axes and moments of inertia in atomic units:
                           1         2         3
     Eigenvalues --   392.46707 683.48232 706.07911
           X            0.99971   0.01266  -0.02029
           Y           -0.01589   0.98570  -0.16773
           Z            0.01788   0.16801   0.98562
 This molecule is an asymmetric top.
 Rotational symmetry number  1.
 Rotational temperatures (Kelvin)      0.22069     0.12672     0.12267
 Rotational constants (GHZ):           4.59845     2.64051     2.55600
 Zero-point vibrational energy     404383.5 (Joules/Mol)
                                   96.64999 (Kcal/Mol)
 Warning -- explicit consideration of  11 degrees of freedom as
           vibrations may cause significant error
 Vibrational temperatures:    156.79   320.56   352.12   363.29   393.32
          (Kelvin)            493.62   526.46   609.98   669.83   709.85
                              810.35  1068.56  1145.27  1266.11  1321.09
                             1375.21  1448.49  1471.31  1542.62  1556.65
                             1658.28  1760.69  1851.97  1930.62  1977.68
                             1994.90  2049.05  2062.05  2145.84  2165.25
                             2173.01  2188.68  2197.24  2378.95  4351.22
                             4387.64  4391.81  4410.80  4482.84  4494.67
                             4509.09  4511.77  5011.80  5143.36  5441.50

 Zero-point correction=                           0.154022 (Hartree/Particle)
 Thermal correction to Energy=                    0.161755
 Thermal correction to Enthalpy=                  0.162699
 Thermal correction to Gibbs Free Energy=         0.123283
 Sum of electronic and zero-point Energies=           -288.889781
 Sum of electronic and thermal Energies=              -288.882048
 Sum of electronic and thermal Enthalpies=            -288.881104
 Sum of electronic and thermal Free Energies=         -288.920520

                     E (Thermal)             CV                S
                      KCal/Mol        Cal/Mol-Kelvin    Cal/Mol-Kelvin
 Total                  101.503             28.911             82.958
 Electronic               0.000              0.000              0.000
 Translational            0.889              2.981             39.374
 Rotational               0.889              2.981             26.740
 Vibrational             99.725             22.950             16.844
 Vibration     1          0.606              1.942              3.287
 Vibration     2          0.648              1.806              1.936
 Vibration     3          0.660              1.771              1.768
 Vibration     4          0.664              1.759              1.713
 Vibration     5          0.676              1.722              1.575
 Vibration     6          0.722              1.589              1.198
 Vibration     7          0.739              1.542              1.097
 Vibration     8          0.786              1.418              0.879
 Vibration     9          0.823              1.326              0.750
 Vibration    10          0.849              1.265              0.675
 Vibration    11          0.919              1.111              0.517

 Normal termination of Gaussian 09 at Thu Sep  8 15:08:37 2022.
