 Gaussian 09, Revision E.01,
 Gaussian 09:  ES64L-G09RevE.01 30-Nov-2015

 ----------------------------
 #P OPT Freq B3LYP/6-31G(d,p)
 ----------------------------

 --------
 Frag_766
 --------
 Symbolic Z-matrix:
 Charge =  0 Multiplicity = 1

 SCF Done:  E(RB3LYP) =  -287.814885282     A.U. after   14 cycles
 SCF Done:  E(RB3LYP) =  -287.814938778     A.U. after    9 cycles
 SCF Done:  E(RB3LYP) =  -287.814946460     A.U. after    9 cycles
 SCF Done:  E(RB3LYP) =  -287.814953114     A.U. after    8 cycles
 SCF Done:  E(RB3LYP) =  -287.814959881     A.U. after   10 cycles
 SCF Done:  E(RB3LYP) =  -287.814967357     A.U. after   10 cycles
 SCF Done:  E(RB3LYP) =  -287.814970398     A.U. after    9 cycles
 SCF Done:  E(RB3LYP) =  -287.814971015     A.U. after    8 cycles
 SCF Done:  E(RB3LYP) =  -287.814971219     A.U. after    7 cycles
 SCF Done:  E(RB3LYP) =  -287.814971341     A.U. after    7 cycles
 SCF Done:  E(RB3LYP) =  -287.814971403     A.U. after    7 cycles
 SCF Done:  E(RB3LYP) =  -287.814971416     A.U. after    7 cycles
 Optimization completed.
    -- Stationary point found.
 Normal termination of Gaussian 09 at Thu Sep  8 15:10:55 2022.

 ----------------------------------------------------------------------
 #P Geom=AllCheck Guess=TCheck SCRF=Check GenChk RB3LYP/6-31G(d,p) Freq
 ----------------------------------------------------------------------

 Structure from the checkpoint file:  "B3LYP6-31Gdp.Frag_766.chk"
 --------
 Frag_766
 --------
 Charge =  0 Multiplicity = 1

                         Standard orientation:
 ---------------------------------------------------------------------
 Center     Atomic      Atomic             Coordinates (Angstroms)
 Number     Number       Type             X           Y           Z
 ---------------------------------------------------------------------
      1          6           0        1.849364    0.780256    0.250246
      2          6           0        0.769080   -0.246268    0.008212
      3          7           0        1.074684   -1.378939   -0.485265
      4          6           0       -0.655970    0.157445    0.395963
      5          6           0       -1.188005    1.302740   -0.476379
      6          8           0       -1.470296   -1.002328    0.273334
      7          1           0        2.820837    0.334249    0.033864
      8          1           0        1.718107    1.661430   -0.388565
      9          1           0        1.836286    1.132486    1.288762
     10          1           0        0.223337   -1.945828   -0.568892
     11          1           0       -0.629751    0.494755    1.446776
     12          1           0       -0.581127    2.206271   -0.372217
     13          1           0       -2.212462    1.562440   -0.184633
     14          1           0       -1.193742    1.002546   -1.528411
     15          1           0       -2.388710   -0.742179    0.415244
 ---------------------------------------------------------------------

 SCF Done:  E(RB3LYP) =  -287.814971416     A.U. after    1 cycles

 The electronic state is 1-A.
 Alpha  occ. eigenvalues --  -19.15720 -14.30074 -10.24930 -10.22628 -10.19295
 Alpha  occ. eigenvalues --  -10.18110  -1.03324  -0.89052  -0.76753  -0.71811
 Alpha  occ. eigenvalues --   -0.64718  -0.53642  -0.51419  -0.48838  -0.45526
 Alpha  occ. eigenvalues --   -0.42310  -0.39971  -0.38935  -0.38856  -0.37700
 Alpha  occ. eigenvalues --   -0.34400  -0.29363  -0.27949  -0.24731
 Alpha virt. eigenvalues --    0.01331   0.06050   0.10370   0.12717   0.14520
 Alpha virt. eigenvalues --    0.15756   0.15842   0.16226   0.18734   0.19948
 Alpha virt. eigenvalues --    0.21989   0.23491   0.24135   0.31662   0.42743

 Mulliken charges:
               1
     1  C   -0.361378
     2  C    0.277005
     3  N   -0.523540
     4  C    0.137406
     5  C   -0.336178
     6  O   -0.550897
     7  H    0.139859
     8  H    0.118410
     9  H    0.112597
    10  H    0.247439
    11  H    0.088774
    12  H    0.113502
    13  H    0.099629
    14  H    0.127629
    15  H    0.309742
 Sum of Mulliken charges =   0.00000

 Dipole moment (field-independent basis, Debye):
    X=             -2.4562    Y=              2.6590    Z=              0.9022  Tot=              3.7306
 Quadrupole moment (field-independent basis, Debye-Ang):
   XX=            -34.7383   YY=            -39.6516   ZZ=            -37.5945
   XY=              2.9615   XZ=              0.6798   YZ=             -0.3361

  Exact polarizability:  57.225  -0.502  58.052  -0.905   5.181  41.622
 Approx polarizability:  72.747  -2.612  87.777  -3.270  11.965  60.834

                      1                      2                      3
                      A                      A                      A
 Frequencies --     48.5256               154.8873               220.1325
 Red. masses --      2.7142                 1.1660                 1.0560
 Frc consts  --      0.0038                 0.0165                 0.0301
 IR Inten    --      2.1876                 3.4053               118.9498

                      4                      5                      6
                      A                      A                      A
 Frequencies --    231.5676               273.1780               327.3984
 Red. masses --      1.3710                 1.8779                 2.8301
 Frc consts  --      0.0433                 0.0826                 0.1787
 IR Inten    --      0.3692                 1.1456                 5.0153

                      7                      8                      9
                      A                      A                      A
 Frequencies --    392.9084               449.1591               551.0142
 Red. masses --      3.7128                 2.7735                 2.9766
 Frc consts  --      0.3377                 0.3297                 0.5325
 IR Inten    --      3.9848                 3.7688                11.7018

                     10                     11                     12
                      A                      A                      A
 Frequencies --    612.0390               756.5092               914.6829
 Red. masses --      2.9245                 2.4564                 2.2670
 Frc consts  --      0.6455                 0.8283                 1.1175
 IR Inten    --     21.2188                 6.7560                20.4119

                     13                     14                     15
                      A                      A                      A
 Frequencies --    922.4808               986.0907              1042.2735
 Red. masses --      1.2236                 1.8811                 1.6026
 Frc consts  --      0.6135                 1.0777                 1.0257
 IR Inten    --     43.6512                19.3060                 8.6403

                     16                     17                     18
                      A                      A                      A
 Frequencies --   1087.6288              1114.6140              1123.6859
 Red. masses --      1.3320                 2.0504                 1.9710
 Frc consts  --      0.9284                 1.5008                 1.4663
 IR Inten    --     10.8209                11.9696                13.6743

                     19                     20                     21
                      A                      A                      A
 Frequencies --   1159.9569              1233.5248              1358.7021
 Red. masses --      2.3753                 1.1325                 1.3335
 Frc consts  --      1.8830                 1.0153                 1.4504
 IR Inten    --     63.1987                40.5618                43.5365

                     22                     23                     24
                      A                      A                      A
 Frequencies --   1375.1969              1409.6268              1420.2631
 Red. masses --      1.2715                 1.3793                 1.2416
 Frc consts  --      1.4167                 1.6148                 1.4756
 IR Inten    --     73.9248                 7.6446                 6.1191

                     25                     26                     27
                      A                      A                      A
 Frequencies --   1438.6670              1487.8379              1496.7965
 Red. masses --      1.6834                 1.0644                 1.0475
 Frc consts  --      2.0529                 1.3883                 1.3827
 IR Inten    --     43.6368                 3.7657                12.1262

                     28                     29                     30
                      A                      A                      A
 Frequencies --   1511.4587              1513.9027              1745.1538
 Red. masses --      1.0537                 1.0809                 8.7813
 Frc consts  --      1.4182                 1.4595                15.7572
 IR Inten    --      3.1498                 5.7886                49.6015

                     31                     32                     33
                      A                      A                      A
 Frequencies --   2967.0624              3040.1438              3042.7257
 Red. masses --      1.0824                 1.0387                 1.0390
 Frc consts  --      5.6144                 5.6564                 5.6673
 IR Inten    --     48.9206                11.0896                24.7060

                     34                     35                     36
                      A                      A                      A
 Frequencies --   3094.9135              3112.5184              3138.1005
 Red. masses --      1.0997                 1.0985                 1.1030
 Frc consts  --      6.2062                 6.2698                 6.4000
 IR Inten    --     19.0259                28.6795                19.3508

                     37                     38                     39
                      A                      A                      A
 Frequencies --   3160.4726              3434.3777              3834.4310
 Red. masses --      1.0999                 1.0724                 1.0665
 Frc consts  --      6.4729                 7.4523                 9.2390
 IR Inten    --      8.4548                 2.2666                18.8848

 - Thermochemistry -
 -------------------
 Temperature   298.150 Kelvin.  Pressure   1.00000 Atm.
 Atom     1 has atomic number  6 and mass  12.00000

 Molecular mass:    87.06841 amu.
 Principal axes and moments of inertia in atomic units:
                           1         2         3
     Eigenvalues --   374.85728 589.64990 844.68726
           X            0.99974   0.01586   0.01666
           Y           -0.01580   0.99987  -0.00389
           Z           -0.01672   0.00363   0.99985
 This molecule is an asymmetric top.
 Rotational symmetry number  1.
 Rotational temperatures (Kelvin)      0.23106     0.14689     0.10254
 Rotational constants (GHZ):           4.81448     3.06070     2.13658
 Zero-point vibrational energy     342039.9 (Joules/Mol)
                                   81.74950 (Kcal/Mol)
 Warning -- explicit consideration of  10 degrees of freedom as
           vibrations may cause significant error
 Vibrational temperatures:     69.82   222.85   316.72   333.17   393.04
          (Kelvin)            471.05   565.31   646.24   792.79   880.59
                             1088.45  1316.02  1327.24  1418.76  1499.60
                             1564.85  1603.68  1616.73  1668.92  1774.76
                             1954.87  1978.60  2028.14  2043.44  2069.92
                             2140.66  2153.55  2174.65  2178.17  2510.88
                             4268.94  4374.08  4377.80  4452.88  4478.21
                             4515.02  4547.21  4941.30  5516.88

 Zero-point correction=                           0.130276 (Hartree/Particle)
 Thermal correction to Energy=                    0.137817
 Thermal correction to Enthalpy=                  0.138762
 Thermal correction to Gibbs Free Energy=         0.098831
 Sum of electronic and zero-point Energies=           -287.684695
 Sum of electronic and thermal Energies=              -287.677154
 Sum of electronic and thermal Enthalpies=            -287.676210
 Sum of electronic and thermal Free Energies=         -287.716141

                     E (Thermal)             CV                S
                      KCal/Mol        Cal/Mol-Kelvin    Cal/Mol-Kelvin
 Total                   86.482             26.272             84.042
 Electronic               0.000              0.000              0.000
 Translational            0.889              2.981             39.305
 Rotational               0.889              2.981             26.726
 Vibrational             84.704             20.311             18.010
 Vibration     1          0.595              1.978              4.877
 Vibration     2          0.620              1.897              2.611
 Vibration     3          0.647              1.810              1.958
 Vibration     4          0.653              1.793              1.867
 Vibration     5          0.676              1.723              1.576
 Vibration     6          0.711              1.621              1.273
 Vibration     7          0.760              1.485              0.989
 Vibration     8          0.808              1.363              0.798
 Vibration     9          0.906              1.137              0.542
 Vibration    10          0.971              1.006              0.429

 Optimization completed.
    -- Stationary point found.
 Normal termination of Gaussian 09 at Thu Sep  8 15:11:07 2022.
