 Gaussian 09, Revision E.01,
 Gaussian 09:  ES64L-G09RevE.01 30-Nov-2015

 ----------------------------
 #P OPT Freq B3LYP/6-31G(d,p)
 ----------------------------

 --------
 Frag_703
 --------
 Symbolic Z-matrix:
 Charge =  0 Multiplicity = 1

 SCF Done:  E(RB3LYP) =  -303.787191462     A.U. after   14 cycles
 SCF Done:  E(RB3LYP) =  -303.787271284     A.U. after    9 cycles
 SCF Done:  E(RB3LYP) =  -303.787282349     A.U. after    9 cycles
 SCF Done:  E(RB3LYP) =  -303.787285204     A.U. after    9 cycles
 SCF Done:  E(RB3LYP) =  -303.787285581     A.U. after    8 cycles
 SCF Done:  E(RB3LYP) =  -303.787285654     A.U. after    7 cycles
 Optimization completed.
    -- Stationary point found.
 Normal termination of Gaussian 09 at Thu Sep  8 15:07:17 2022.

 ----------------------------------------------------------------------
 #P Geom=AllCheck Guess=TCheck SCRF=Check GenChk RB3LYP/6-31G(d,p) Freq
 ----------------------------------------------------------------------

 Structure from the checkpoint file:  "B3LYP6-31Gdp.Frag_703.chk"
 --------
 Frag_703
 --------
 Charge =  0 Multiplicity = 1

                         Standard orientation:
 ---------------------------------------------------------------------
 Center     Atomic      Atomic             Coordinates (Angstroms)
 Number     Number       Type             X           Y           Z
 ---------------------------------------------------------------------
      1          6           0        1.178338    1.431911    0.184080
      2          6           0        0.730684    0.182827   -0.055820
      3          7           0        1.544087   -0.954792   -0.045358
      4          7           0       -0.618040   -0.123600   -0.345598
      5          6           0       -1.628999    0.884723   -0.079756
      6          8           0       -1.020500   -1.377307    0.206729
      7          1           0        2.242806    1.621795    0.256295
      8          1           0        0.514911    2.275547    0.299274
      9          1           0        2.525562   -0.740924   -0.160797
     10          1           0        1.229568   -1.678745   -0.679491
     11          1           0       -1.437712    1.754778   -0.711357
     12          1           0       -1.650172    1.207826    0.974201
     13          1           0       -2.596512    0.459989   -0.348654
     14          1           0       -0.826915   -1.329837    1.162365
 ---------------------------------------------------------------------

 SCF Done:  E(RB3LYP) =  -303.787285654     A.U. after    1 cycles

 The electronic state is 1-A.
 Alpha  occ. eigenvalues --  -19.18004 -14.38995 -14.33438 -10.24661 -10.21196
 Alpha  occ. eigenvalues --  -10.15098  -1.07272  -0.91629  -0.84828  -0.72008
 Alpha  occ. eigenvalues --   -0.67918  -0.57325  -0.52977  -0.51234  -0.46114
 Alpha  occ. eigenvalues --   -0.45169  -0.43083  -0.40358  -0.38747  -0.37971
 Alpha  occ. eigenvalues --   -0.34095  -0.29900  -0.24266  -0.19318
 Alpha virt. eigenvalues --    0.03586   0.09227   0.10131   0.10936   0.12557
 Alpha virt. eigenvalues --    0.14472   0.16716   0.17635   0.18477   0.20183
 Alpha virt. eigenvalues --    0.21127   0.28547   0.35065   0.38434   0.51142

 Mulliken charges:
               1
     1  C   -0.346332
     2  C    0.463815
     3  N   -0.633943
     4  N   -0.238585
     5  C   -0.166420
     6  O   -0.434158
     7  H    0.074074
     8  H    0.085362
     9  H    0.257704
    10  H    0.271302
    11  H    0.128741
    12  H    0.094503
    13  H    0.131766
    14  H    0.312172
 Sum of Mulliken charges =  -0.00000

 Dipole moment (field-independent basis, Debye):
    X=              0.4044    Y=              0.2466    Z=              0.4469  Tot=              0.6512
 Quadrupole moment (field-independent basis, Debye-Ang):
   XX=            -32.3200   YY=            -37.1085   ZZ=            -37.0607
   XY=             -3.9208   XZ=             -2.9697   YZ=             -0.1830

  Exact polarizability:  57.544   3.888  62.671   0.505   1.988  33.141
 Approx polarizability:  73.560  11.217  99.080   2.866   4.855  48.782

                      1                      2                      3
                      A                      A                      A
 Frequencies --     86.7465               248.2385               284.5033
 Red. masses --      3.6590                 1.2683                 1.1125
 Frc consts  --      0.0162                 0.0460                 0.0531
 IR Inten    --      8.5031                 7.0388                48.5616

                      4                      5                      6
                      A                      A                      A
 Frequencies --    294.8802               313.9479               399.7715
 Red. masses --      2.2972                 2.0366                 1.5446
 Frc consts  --      0.1177                 0.1183                 0.1454
 IR Inten    --     39.5437                 7.2715                14.6307

                      7                      8                      9
                      A                      A                      A
 Frequencies --    458.3834               485.7993               532.2160
 Red. masses --      1.9258                 2.4010                 4.2004
 Frc consts  --      0.2384                 0.3339                 0.7010
 IR Inten    --     25.3167                16.3549                16.8681

                     10                     11                     12
                      A                      A                      A
 Frequencies --    614.5059               693.4252               708.1906
 Red. masses --      1.3889                 1.3927                 1.3080
 Frc consts  --      0.3090                 0.3946                 0.3865
 IR Inten    --    171.5676                 7.2911                19.4811

                     13                     14                     15
                      A                      A                      A
 Frequencies --    745.7792               756.7158               962.2996
 Red. masses --      2.7694                 3.2682                 2.7626
 Frc consts  --      0.9075                 1.1026                 1.5072
 IR Inten    --    103.4280                97.5300                 1.6608

                     16                     17                     18
                      A                      A                      A
 Frequencies --    996.8714              1109.8994              1143.0310
 Red. masses --      1.5901                 2.0734                 1.4049
 Frc consts  --      0.9310                 1.5049                 1.0815
 IR Inten    --      7.4099                 3.4911                23.9745

                     19                     20                     21
                      A                      A                      A
 Frequencies --   1193.4641              1233.1886              1400.8794
 Red. masses --      2.0184                 2.1408                 1.1464
 Frc consts  --      1.6938                 1.9182                 1.3255
 IR Inten    --      7.1525                 0.5940                17.7467

                     22                     23                     24
                      A                      A                      A
 Frequencies --   1413.6534              1440.7050              1472.7054
 Red. masses --      3.4318                 1.2079                 1.1833
 Frc consts  --      4.0407                 1.4772                 1.5121
 IR Inten    --     84.5827                 5.5303                 3.4717

                     25                     26                     27
                      A                      A                      A
 Frequencies --   1505.6292              1514.7109              1640.9389
 Red. masses --      1.0644                 1.0696                 1.1718
 Frc consts  --      1.4216                 1.4459                 1.8590
 IR Inten    --     15.9521                11.3449                69.9982

                     28                     29                     30
                      A                      A                      A
 Frequencies --   1710.6431              2982.9297              3114.4933
 Red. masses --      4.8404                 1.0559                 1.0783
 Frc consts  --      8.3454                 5.5353                 6.1625
 IR Inten    --    162.1794                57.0780                19.7331

                     31                     32                     33
                      A                      A                      A
 Frequencies --   3163.0806              3193.3156              3292.1749
 Red. masses --      1.1040                 1.0630                 1.1122
 Frc consts  --      6.5080                 6.3867                 7.1025
 IR Inten    --      9.7604                 3.0039                 8.9371

                     34                     35                     36
                      A                      A                      A
 Frequencies --   3557.9596              3640.6391              3672.2053
 Red. masses --      1.0474                 1.0678                 1.0982
 Frc consts  --      7.8123                 8.3386                 8.7253
 IR Inten    --     11.5725                 5.8288                12.5224

 - Thermochemistry -
 -------------------
 Temperature   298.150 Kelvin.  Pressure   1.00000 Atm.
 Atom     1 has atomic number  6 and mass  12.00000

 Molecular mass:    88.06366 amu.
 Principal axes and moments of inertia in atomic units:
                           1         2         3
     Eigenvalues --   362.68660 509.69987 826.09137
           X            0.99590  -0.08996  -0.00906
           Y            0.09002   0.99591   0.00717
           Z            0.00838  -0.00796   0.99993
 This molecule is an asymmetric top.
 Rotational symmetry number  1.
 Rotational temperatures (Kelvin)      0.23881     0.16993     0.10485
 Rotational constants (GHZ):           4.97603     3.54079     2.18468
 Zero-point vibrational energy     310900.6 (Joules/Mol)
                                   74.30703 (Kcal/Mol)
 Warning -- explicit consideration of  10 degrees of freedom as
           vibrations may cause significant error
 Vibrational temperatures:    124.81   357.16   409.34   424.27   451.70
          (Kelvin)            575.18   659.51   698.96   765.74   884.14
                              997.68  1018.93  1073.01  1088.74  1384.53
                             1434.27  1596.90  1644.56  1717.13  1774.28
                             2015.55  2033.93  2072.85  2118.89  2166.26
                             2179.33  2360.94  2461.23  4291.77  4481.06
                             4550.96  4594.46  4736.70  5119.10  5238.06
                             5283.48

 Zero-point correction=                           0.118416 (Hartree/Particle)
 Thermal correction to Energy=                    0.125531
 Thermal correction to Enthalpy=                  0.126475
 Thermal correction to Gibbs Free Energy=         0.088144
 Sum of electronic and zero-point Energies=           -303.668870
 Sum of electronic and thermal Energies=              -303.661755
 Sum of electronic and thermal Enthalpies=            -303.660810
 Sum of electronic and thermal Free Energies=         -303.699142

                     E (Thermal)             CV                S
                      KCal/Mol        Cal/Mol-Kelvin    Cal/Mol-Kelvin
 Total                   78.772             26.435             80.675
 Electronic               0.000              0.000              0.000
 Translational            0.889              2.981             39.339
 Rotational               0.889              2.981             26.526
 Vibrational             76.994             20.474             14.809
 Vibration     1          0.601              1.958              3.732
 Vibration     2          0.662              1.766              1.743
 Vibration     3          0.683              1.702              1.506
 Vibration     4          0.689              1.683              1.446
 Vibration     5          0.702              1.647              1.341
 Vibration     6          0.766              1.471              0.963
 Vibration     7          0.816              1.342              0.771
 Vibration     8          0.842              1.282              0.695
 Vibration     9          0.887              1.179              0.582
 Vibration    10          0.974              1.001              0.425

 Optimization completed.
    -- Stationary point found.
 Normal termination of Gaussian 09 at Thu Sep  8 15:07:28 2022.
