 Gaussian 09, Revision E.01,
 Gaussian 09:  ES64L-G09RevE.01 30-Nov-2015

 ----------------------------
 #P OPT Freq B3LYP/6-31G(d,p)
 ----------------------------

 --------
 Frag_591
 --------
 Symbolic Z-matrix:
 Charge =  0 Multiplicity = 1

 SCF Done:  E(RB3LYP) =  -339.697645059     A.U. after   14 cycles
 SCF Done:  E(RB3LYP) =  -339.740377122     A.U. after   13 cycles
 SCF Done:  E(RB3LYP) =  -339.756881739     A.U. after   13 cycles
 SCF Done:  E(RB3LYP) =  -339.759175428     A.U. after   12 cycles
 SCF Done:  E(RB3LYP) =  -339.758463653     A.U. after   12 cycles
 SCF Done:  E(RB3LYP) =  -339.759395352     A.U. after   10 cycles
 SCF Done:  E(RB3LYP) =  -339.759574344     A.U. after   11 cycles
 SCF Done:  E(RB3LYP) =  -339.759614004     A.U. after    9 cycles
 SCF Done:  E(RB3LYP) =  -339.759621314     A.U. after   10 cycles
 SCF Done:  E(RB3LYP) =  -339.759629552     A.U. after    8 cycles
 SCF Done:  E(RB3LYP) =  -339.759633890     A.U. after    8 cycles
 SCF Done:  E(RB3LYP) =  -339.759634888     A.U. after    8 cycles
 SCF Done:  E(RB3LYP) =  -339.759635931     A.U. after    8 cycles
 SCF Done:  E(RB3LYP) =  -339.759638293     A.U. after   10 cycles
 SCF Done:  E(RB3LYP) =  -339.759641831     A.U. after   10 cycles
 SCF Done:  E(RB3LYP) =  -339.759642870     A.U. after    8 cycles
 SCF Done:  E(RB3LYP) =  -339.759643171     A.U. after    8 cycles
 SCF Done:  E(RB3LYP) =  -339.759643143     A.U. after    7 cycles
 SCF Done:  E(RB3LYP) =  -339.759643192     A.U. after    7 cycles
 Optimization completed.
    -- Stationary point found.
 Normal termination of Gaussian 09 at Thu Sep  8 20:04:45 2022.

 ----------------------------------------------------------------------
 #P Geom=AllCheck Guess=TCheck SCRF=Check GenChk RB3LYP/6-31G(d,p) Freq
 ----------------------------------------------------------------------

 Structure from the checkpoint file:  "B3LYP6-31Gdp.Frag_591.chk"
 --------
 Frag_591
 --------
 Charge =  0 Multiplicity = 1

                         Standard orientation:
 ---------------------------------------------------------------------
 Center     Atomic      Atomic             Coordinates (Angstroms)
 Number     Number       Type             X           Y           Z
 ---------------------------------------------------------------------
      1          6           0        1.561138   -1.010584    0.008870
      2          7           0        0.580352    0.063208   -0.092992
      3          7           0        1.092297    1.360034    0.039485
      4          6           0       -0.774845   -0.231976   -0.011536
      5          8           0       -1.216858   -1.358780    0.026244
      6          8           0       -1.599029    0.849382    0.002460
      7          1           0        2.352881   -0.851218   -0.727253
      8          1           0        2.011286   -1.044626    1.008407
      9          1           0        1.051995   -1.952152   -0.188439
     10          1           0        0.831650    1.816608    0.909158
     11          1           0        0.925054    1.940347   -0.776306
     12          1           0       -1.072080    1.658892   -0.064656
 ---------------------------------------------------------------------

 SCF Done:  E(RB3LYP) =  -339.759643192     A.U. after    1 cycles

 The electronic state is 1-A.
 Alpha  occ. eigenvalues --  -19.19138 -19.11309 -14.39731 -14.38733 -10.33257
 Alpha  occ. eigenvalues --  -10.21612  -1.10467  -1.01109  -0.99842  -0.82779
 Alpha  occ. eigenvalues --   -0.70495  -0.60589  -0.59023  -0.54887  -0.49193
 Alpha  occ. eigenvalues --   -0.45035  -0.42522  -0.41691  -0.41014  -0.38382
 Alpha  occ. eigenvalues --   -0.31279  -0.30941  -0.26086  -0.25348
 Alpha virt. eigenvalues --    0.03089   0.05068   0.11008   0.12325   0.12967
 Alpha virt. eigenvalues --    0.16139   0.16382   0.17409   0.20492   0.25247
 Alpha virt. eigenvalues --    0.35690   0.40434   0.50752   0.52938   0.53727

 Mulliken charges:
               1
     1  C   -0.144820
     2  N   -0.368092
     3  N   -0.467068
     4  C    0.747576
     5  O   -0.487081
     6  O   -0.498587
     7  H    0.118157
     8  H    0.114620
     9  H    0.156829
    10  H    0.267565
    11  H    0.271273
    12  H    0.289628
 Sum of Mulliken charges =  -0.00000

 Dipole moment (field-independent basis, Debye):
    X=              2.8652    Y=              3.7140    Z=             -0.0198  Tot=              4.6908
 Quadrupole moment (field-independent basis, Debye-Ang):
   XX=            -41.8173   YY=            -31.1156   ZZ=            -33.3919
   XY=             -4.3023   XZ=              0.0930   YZ=             -0.0624

  Exact polarizability:  45.796   1.153  48.723  -0.047  -0.358  28.870
 Approx polarizability:  62.977   6.678  72.323  -0.644  -0.791  40.313

                      1                      2                      3
                      A                      A                      A
 Frequencies --     66.6802               133.3959               170.8880
 Red. masses --      1.7186                 3.5550                 1.6916
 Frc consts  --      0.0045                 0.0373                 0.0291
 IR Inten    --      2.2603                 6.8883                 2.2838

                      4                      5                      6
                      A                      A                      A
 Frequencies --    320.0176               348.6637               415.9140
 Red. masses --      3.9907                 1.1583                 3.8964
 Frc consts  --      0.2408                 0.0830                 0.3971
 IR Inten    --     22.4882               116.3939                 4.2069

                      7                      8                      9
                      A                      A                      A
 Frequencies --    532.9104               567.1974               590.4184
 Red. masses --      1.6919                 1.1847                 6.0814
 Frc consts  --      0.2831                 0.2246                 1.2490
 IR Inten    --     57.5025                 7.6363                 3.4014

                     10                     11                     12
                      A                      A                      A
 Frequencies --    647.2447               749.0076               799.8330
 Red. masses --      1.7896                10.3328                 5.9530
 Frc consts  --      0.4417                 3.4154                 2.2438
 IR Inten    --    106.0163                18.1969                21.1116

                     13                     14                     15
                      A                      A                      A
 Frequencies --   1035.4515              1151.0088              1166.0562
 Red. masses --      2.3853                 1.4615                 1.6325
 Frc consts  --      1.5068                 1.1408                 1.3078
 IR Inten    --     10.0838                33.9569                24.9894

                     16                     17                     18
                      A                      A                      A
 Frequencies --   1256.5822              1275.9411              1302.0635
 Red. masses --      2.0345                 1.2258                 3.5877
 Frc consts  --      1.8927                 1.1758                 3.5837
 IR Inten    --     79.4972                15.3606                22.7987

                     19                     20                     21
                      A                      A                      A
 Frequencies --   1405.4348              1449.1243              1506.8840
 Red. masses --      3.3802                 1.2194                 1.0507
 Frc consts  --      3.9338                 1.5087                 1.4057
 IR Inten    --    385.8024                50.3326                 6.9387

                     22                     23                     24
                      A                      A                      A
 Frequencies --   1528.4833              1666.7868              1856.9066
 Red. masses --      1.0923                 1.0871                 9.6124
 Frc consts  --      1.5035                 1.7794                19.5283
 IR Inten    --     13.0456                11.3931               363.4402

                     25                     26                     27
                      A                      A                      A
 Frequencies --   3041.3278              3113.5794              3189.6338
 Red. masses --      1.0436                 1.0974                 1.1001
 Frc consts  --      5.6872                 6.2678                 6.5941
 IR Inten    --     48.5032                29.7424                 1.3065

                     28                     29                     30
                      A                      A                      A
 Frequencies --   3478.4639              3594.0661              3779.8101
 Red. masses --      1.0423                 1.1034                 1.0639
 Frc consts  --      7.4308                 8.3973                 8.9551
 IR Inten    --      1.1682                 3.4949                37.0428

 - Thermochemistry -
 -------------------
 Temperature   298.150 Kelvin.  Pressure   1.00000 Atm.
 Atom     1 has atomic number  6 and mass  12.00000

 Molecular mass:    90.04293 amu.
 Principal axes and moments of inertia in atomic units:
                           1         2         3
     Eigenvalues --   350.54809 497.21035 824.94545
           X            0.99392  -0.11008   0.00179
           Y            0.11008   0.99392  -0.00037
           Z           -0.00174   0.00056   1.00000
 This molecule is an asymmetric top.
 Rotational symmetry number  1.
 Rotational temperatures (Kelvin)      0.24708     0.17420     0.10499
 Rotational constants (GHZ):           5.14834     3.62973     2.18771
 Zero-point vibrational energy     252051.8 (Joules/Mol)
                                   60.24183 (Kcal/Mol)
 Warning -- explicit consideration of   9 degrees of freedom as
           vibrations may cause significant error
 Vibrational temperatures:     95.94   191.93   245.87   460.43   501.65
          (Kelvin)            598.41   766.74   816.07   849.48   931.24
                             1077.65  1150.78  1489.78  1656.04  1677.69
                             1807.94  1835.79  1873.38  2022.10  2084.96
                             2168.07  2199.14  2398.13  2671.67  4375.79
                             4479.74  4589.17  5004.73  5171.05  5438.30

 Zero-point correction=                           0.096001 (Hartree/Particle)
 Thermal correction to Energy=                    0.102956
 Thermal correction to Enthalpy=                  0.103900
 Thermal correction to Gibbs Free Energy=         0.065150
 Sum of electronic and zero-point Energies=           -339.663642
 Sum of electronic and thermal Energies=              -339.656687
 Sum of electronic and thermal Enthalpies=            -339.655743
 Sum of electronic and thermal Free Energies=         -339.694493

                     E (Thermal)             CV                S
                      KCal/Mol        Cal/Mol-Kelvin    Cal/Mol-Kelvin
 Total                   64.606             23.715             81.555
 Electronic               0.000              0.000              0.000
 Translational            0.889              2.981             39.405
 Rotational               0.889              2.981             26.467
 Vibrational             62.828             17.754             15.683
 Vibration     1          0.598              1.970              4.249
 Vibration     2          0.613              1.920              2.896
 Vibration     3          0.626              1.878              2.426
 Vibration     4          0.706              1.635              1.310
 Vibration     5          0.726              1.578              1.172
 Vibration     6          0.779              1.436              0.906
 Vibration     7          0.888              1.177              0.581
 Vibration     8          0.923              1.102              0.510
 Vibration     9          0.948              1.052              0.466

 Optimization completed.
    -- Stationary point found.
 Normal termination of Gaussian 09 at Thu Sep  8 20:04:55 2022.
