 Gaussian 09, Revision E.01,
 Gaussian 09:  ES64L-G09RevE.01 30-Nov-2015

 ----------------------------
 #P OPT Freq B3LYP/6-31G(d,p)
 ----------------------------

 --------
 Frag_953
 --------
 Symbolic Z-matrix:
 Charge =  0 Multiplicity = 1

 SCF Done:  E(RB3LYP) =  -246.217454645     A.U. after   13 cycles
 SCF Done:  E(RB3LYP) =  -246.217535628     A.U. after   11 cycles
 SCF Done:  E(RB3LYP) =  -246.217549097     A.U. after    9 cycles
 SCF Done:  E(RB3LYP) =  -246.217550706     A.U. after    9 cycles
 Optimization completed.
    -- Stationary point found.
 Normal termination of Gaussian 09 at Thu Sep  8 15:07:51 2022.

 ----------------------------------------------------------------------
 #P Geom=AllCheck Guess=TCheck SCRF=Check GenChk RB3LYP/6-31G(d,p) Freq
 ----------------------------------------------------------------------

 Structure from the checkpoint file:  "B3LYP6-31Gdp.Frag_953.chk"
 --------
 Frag_953
 --------
 Charge =  0 Multiplicity = 1

                         Standard orientation:
 ---------------------------------------------------------------------
 Center     Atomic      Atomic             Coordinates (Angstroms)
 Number     Number       Type             X           Y           Z
 ---------------------------------------------------------------------
      1          7           0       -1.497709   -0.502203   -0.042338
      2          6           0       -0.614390    0.567747    0.298758
      3          8           0        0.652308    0.597871   -0.383446
      4          8           0        1.383739   -0.585378    0.055817
      5          1           0       -1.647247   -0.529041   -1.047846
      6          1           0       -1.082055   -1.389473    0.227660
      7          1           0       -1.050301    1.529963    0.006624
      8          1           0       -0.436716    0.557888    1.380484
      9          1           0        2.098243   -0.160348    0.557932
 ---------------------------------------------------------------------

 SCF Done:  E(RB3LYP) =  -246.217550706     A.U. after    1 cycles

 The electronic state is 1-A.
 Alpha  occ. eigenvalues --  -19.20007 -19.19831 -14.32008 -10.25852  -1.10931
 Alpha  occ. eigenvalues --   -0.92373  -0.86135  -0.64720  -0.53114  -0.49944
 Alpha  occ. eigenvalues --   -0.47432  -0.43843  -0.42444  -0.35636  -0.31424
 Alpha  occ. eigenvalues --   -0.26809  -0.25212
 Alpha virt. eigenvalues --    0.02781   0.08196   0.10322   0.13728   0.14548
 Alpha virt. eigenvalues --    0.18570   0.20712   0.26685   0.53290   0.55544
 Alpha virt. eigenvalues --    0.60181   0.69363   0.73849   0.75879   0.76933

 Mulliken charges:
               1
     1  N   -0.578429
     2  C    0.165723
     3  O   -0.301716
     4  O   -0.340864
     5  H    0.246627
     6  H    0.257817
     7  H    0.117646
     8  H    0.100047
     9  H    0.333149
 Sum of Mulliken charges =   0.00000

 Dipole moment (field-independent basis, Debye):
    X=              0.6666    Y=              0.1896    Z=              0.8364  Tot=              1.0862
 Quadrupole moment (field-independent basis, Debye-Ang):
   XX=            -23.7898   YY=            -23.0366   ZZ=            -22.7913
   XY=             -0.0194   XZ=              4.5892   YZ=              0.6395

  Exact polarizability:  31.603  -2.191  27.842   3.517  -0.399  23.513
 Approx polarizability:  40.022  -4.236  40.564   4.541  -2.786  32.077

                      1                      2                      3
                      A                      A                      A
 Frequencies --    164.5553               232.6426               334.4720
 Red. masses --      2.9645                 1.1303                 1.7838
 Frc consts  --      0.0473                 0.0360                 0.1176
 IR Inten    --      6.1089               108.8233                24.3361

                      4                      5                      6
                      A                      A                      A
 Frequencies --    441.9960               559.3092               839.3935
 Red. masses --      1.5603                 2.5530                 2.6344
 Frc consts  --      0.1796                 0.4705                 1.0936
 IR Inten    --     49.5950                40.3671                22.0663

                      7                      8                      9
                      A                      A                      A
 Frequencies --    883.2897               947.9570               969.9464
 Red. masses --      2.3312                 1.4093                 8.2339
 Frc consts  --      1.0716                 0.7462                 4.5640
 IR Inten    --    224.2931                24.3369                79.4833

                     10                     11                     12
                      A                      A                      A
 Frequencies --   1156.4116              1274.5773              1353.3454
 Red. masses --      3.1092                 1.3315                 1.1107
 Frc consts  --      2.4498                 1.2744                 1.1986
 IR Inten    --     30.4359                 2.6502                46.9612

                     13                     14                     15
                      A                      A                      A
 Frequencies --   1385.9868              1407.5663              1487.1334
 Red. masses --      1.1958                 1.1721                 1.1246
 Frc consts  --      1.3534                 1.3682                 1.4654
 IR Inten    --     15.0287                25.6431                 2.9474

                     16                     17                     18
                      A                      A                      A
 Frequencies --   1682.9808              3047.3697              3105.6116
 Red. masses --      1.0974                 1.0575                 1.1094
 Frc consts  --      1.8313                 5.7858                 6.3045
 IR Inten    --     27.1897                47.2163                27.1984

                     19                     20                     21
                      A                      A                      A
 Frequencies --   3508.4825              3596.7233              3755.4754
 Red. masses --      1.0489                 1.0931                 1.0686
 Frc consts  --      7.6068                 8.3315                 8.8796
 IR Inten    --      0.8473                 3.0424                26.3242

 - Thermochemistry -
 -------------------
 Temperature   298.150 Kelvin.  Pressure   1.00000 Atm.
 Atom     1 has atomic number  7 and mass  14.00307

 Molecular mass:    63.03203 amu.
 Principal axes and moments of inertia in atomic units:
                           1         2         3
     Eigenvalues --   108.35883 320.60899 380.62710
           X            0.99966   0.00121   0.02616
           Y           -0.00265   0.99848   0.05511
           Z           -0.02605  -0.05516   0.99814
 This molecule is an asymmetric top.
 Rotational symmetry number  1.
 Rotational temperatures (Kelvin)      0.79932     0.27015     0.22756
 Rotational constants (GHZ):          16.65523     5.62910     4.74149
 Zero-point vibrational energy     192211.3 (Joules/Mol)
                                   45.93961 (Kcal/Mol)
 Warning -- explicit consideration of   5 degrees of freedom as
           vibrations may cause significant error
 Vibrational temperatures:    236.76   334.72   481.23   635.93   804.72
          (Kelvin)           1207.70  1270.86  1363.90  1395.53  1663.82
                             1833.83  1947.16  1994.12  2025.17  2139.65
                             2421.43  4384.48  4468.28  5047.92  5174.88
                             5403.28

 Zero-point correction=                           0.073209 (Hartree/Particle)
 Thermal correction to Energy=                    0.078281
 Thermal correction to Enthalpy=                  0.079225
 Thermal correction to Gibbs Free Energy=         0.045927
 Sum of electronic and zero-point Energies=           -246.144341
 Sum of electronic and thermal Energies=              -246.139270
 Sum of electronic and thermal Enthalpies=            -246.138326
 Sum of electronic and thermal Free Energies=         -246.171624

                     E (Thermal)             CV                S
                      KCal/Mol        Cal/Mol-Kelvin    Cal/Mol-Kelvin
 Total                   49.122             16.555             70.081
 Electronic               0.000              0.000              0.000
 Translational            0.889              2.981             38.342
 Rotational               0.889              2.981             24.096
 Vibrational             47.344             10.594              7.643
 Vibration     1          0.623              1.886              2.497
 Vibration     2          0.653              1.791              1.858
 Vibration     3          0.716              1.607              1.238
 Vibration     4          0.802              1.379              0.820
 Vibration     5          0.915              1.119              0.525

 Normal termination of Gaussian 09 at Thu Sep  8 15:07:58 2022.
