 Gaussian 09, Revision E.01,
 Gaussian 09:  ES64L-G09RevE.01 30-Nov-2015

 ----------------------------
 #P OPT Freq B3LYP/6-31G(d,p)
 ----------------------------

 --------
 Frag_504
 --------
 Symbolic Z-matrix:
 Charge =  0 Multiplicity = 1

 SCF Done:  E(RB3LYP) =  -403.579806936     A.U. after   13 cycles
 SCF Done:  E(RB3LYP) =  -403.579857364     A.U. after   10 cycles
 SCF Done:  E(RB3LYP) =  -403.579793891     A.U. after   10 cycles
 SCF Done:  E(RB3LYP) =  -403.579874668     A.U. after   10 cycles
 SCF Done:  E(RB3LYP) =  -403.579876421     A.U. after    7 cycles
 SCF Done:  E(RB3LYP) =  -403.579876751     A.U. after    7 cycles
 SCF Done:  E(RB3LYP) =  -403.579876650     A.U. after    7 cycles
 SCF Done:  E(RB3LYP) =  -403.579876606     A.U. after    6 cycles
 Optimization completed.
    -- Stationary point found.
 Normal termination of Gaussian 09 at Thu Sep  8 15:04:15 2022.

 ----------------------------------------------------------------------
 #P Geom=AllCheck Guess=TCheck SCRF=Check GenChk RB3LYP/6-31G(d,p) Freq
 ----------------------------------------------------------------------

 Structure from the checkpoint file:  "B3LYP6-31Gdp.Frag_504.chk"
 --------
 Frag_504
 --------
 Charge =  0 Multiplicity = 1

                         Standard orientation:
 ---------------------------------------------------------------------
 Center     Atomic      Atomic             Coordinates (Angstroms)
 Number     Number       Type             X           Y           Z
 ---------------------------------------------------------------------
      1          6           0       -1.441340   -1.288420   -0.278420
      2          6           0       -0.770342    0.064582   -0.004202
      3          6           0       -1.292802    1.133065   -0.968690
      4          8           0       -1.038680    0.457999    1.361921
      5          6           0        0.792175   -0.067820   -0.032438
      6          6           0        1.496177    1.281594    0.165468
      7          7           0        1.206894   -0.637683   -1.297430
      8          8           0        1.174626   -0.953285    1.032506
      9          1           0       -2.520810   -1.215150   -0.099436
     10          1           0       -1.028829   -2.059587    0.375960
     11          1           0       -1.307159   -1.592112   -1.320372
     12          1           0       -0.947380    0.930409   -1.985441
     13          1           0       -0.953850    2.127793   -0.671134
     14          1           0       -2.389332    1.138230   -0.971673
     15          1           0       -1.993581    0.419537    1.500956
     16          1           0        1.369965    1.936212   -0.700129
     17          1           0        2.564412    1.097551    0.314695
     18          1           0        1.107959    1.786688    1.052362
     19          1           0        2.219855   -0.573303   -1.368317
     20          1           0        0.991634   -1.632219   -1.290748
     21          1           0        0.648079   -0.675970    1.799558
 ---------------------------------------------------------------------

 SCF Done:  E(RB3LYP) =  -403.579876606     A.U. after    1 cycles

 The electronic state is 1-A.
 Alpha  occ. eigenvalues --  -19.15088 -19.12432 -14.31044 -10.25661 -10.24090
 Alpha  occ. eigenvalues --  -10.17560 -10.17058 -10.16556  -1.03177  -0.99843
 Alpha  occ. eigenvalues --   -0.87370  -0.77134  -0.71973  -0.68458  -0.62585
 Alpha  occ. eigenvalues --   -0.56004  -0.49970  -0.48760  -0.48462  -0.43732
 Alpha  occ. eigenvalues --   -0.43095  -0.41589  -0.41333  -0.38936  -0.38135
 Alpha  occ. eigenvalues --   -0.36986  -0.36063  -0.35019  -0.33337  -0.31150
 Alpha  occ. eigenvalues --   -0.27618  -0.26446  -0.24253
 Alpha virt. eigenvalues --    0.06185   0.09695   0.12609   0.12839   0.13830
 Alpha virt. eigenvalues --    0.14507   0.16252   0.16581   0.16999   0.18306
 Alpha virt. eigenvalues --    0.18750   0.20209   0.21215   0.22722   0.23605

 Mulliken charges:
               1
     1  C   -0.337204
     2  C    0.266385
     3  C   -0.317786
     4  O   -0.574629
     5  C    0.370687
     6  C   -0.326559
     7  N   -0.590879
     8  O   -0.573075
     9  H    0.085244
    10  H    0.120615
    11  H    0.115791
    12  H    0.129343
    13  H    0.111924
    14  H    0.082962
    15  H    0.305469
    16  H    0.109380
    17  H    0.103772
    18  H    0.119679
    19  H    0.242075
    20  H    0.244391
    21  H    0.312415
 Sum of Mulliken charges =  -0.00000

 Dipole moment (field-independent basis, Debye):
    X=             -1.5417    Y=              0.0667    Z=             -0.0786  Tot=              1.5451
 Quadrupole moment (field-independent basis, Debye-Ang):
   XX=            -45.2913   YY=            -50.4885   ZZ=            -51.6178
   XY=              0.8097   XZ=             -3.4208   YZ=              1.4125

  Exact polarizability:  72.939   1.182  65.200  -1.662   0.912  64.592
 Approx polarizability:  95.973  -0.860  88.476  -3.170   1.604  95.386

                      1                      2                      3
                      A                      A                      A
 Frequencies --    107.5132               227.1637               242.4204
 Red. masses --      3.4796                 1.0671                 1.6193
 Frc consts  --      0.0237                 0.0324                 0.0561
 IR Inten    --      1.0279                 0.8367                13.8279

                      4                      5                      6
                      A                      A                      A
 Frequencies --    248.0225               267.7348               275.4180
 Red. masses --      1.1224                 1.2277                 1.8775
 Frc consts  --      0.0407                 0.0518                 0.0839
 IR Inten    --     52.1452                23.4758                 6.8482

                      7                      8                      9
                      A                      A                      A
 Frequencies --    291.3111               321.2291               349.8203
 Red. masses --      1.6201                 1.1694                 2.5519
 Frc consts  --      0.0810                 0.0711                 0.1840
 IR Inten    --     17.4171                16.4747                 8.6007

                     10                     11                     12
                      A                      A                      A
 Frequencies --    362.6012               367.1426               393.5645
 Red. masses --      2.1271                 3.1149                 2.6022
 Frc consts  --      0.1648                 0.2474                 0.2375
 IR Inten    --      2.0064                 7.8654                 0.4827

                     13                     14                     15
                      A                      A                      A
 Frequencies --    446.2606               495.6421               518.5837
 Red. masses --      3.5830                 1.4124                 2.3090
 Frc consts  --      0.4204                 0.2044                 0.3659
 IR Inten    --     18.2182                67.2201                43.9010

                     16                     17                     18
                      A                      A                      A
 Frequencies --    534.9344               558.7353               681.6177
 Red. masses --      3.3301                 2.3178                 3.0634
 Frc consts  --      0.5614                 0.4263                 0.8386
 IR Inten    --     13.2655                48.5243                11.2086

                     19                     20                     21
                      A                      A                      A
 Frequencies --    844.3415               883.4816               924.7047
 Red. masses --      3.1830                 2.0019                 1.8029
 Frc consts  --      1.3370                 0.9206                 0.9083
 IR Inten    --     16.5953                39.8921                86.1244

                     22                     23                     24
                      A                      A                      A
 Frequencies --    939.3122               964.2269               978.1440
 Red. masses --      1.5584                 1.9716                 1.7815
 Frc consts  --      0.8101                 1.0800                 1.0042
 IR Inten    --     14.6931                 2.4632                 8.5691

                     25                     26                     27
                      A                      A                      A
 Frequencies --   1015.4629              1038.9161              1127.9581
 Red. masses --      1.3244                 1.5007                 1.4796
 Frc consts  --      0.8046                 0.9543                 1.1091
 IR Inten    --      5.0926                38.3996                88.3837

                     28                     29                     30
                      A                      A                      A
 Frequencies --   1152.1538              1167.2906              1220.2205
 Red. masses --      1.8954                 2.1096                 2.3323
 Frc consts  --      1.4824                 1.6936                 2.0460
 IR Inten    --     14.2519               148.5740                19.0538

                     31                     32                     33
                      A                      A                      A
 Frequencies --   1236.0742              1321.0870              1378.5989
 Red. masses --      3.0507                 1.6932                 1.7282
 Frc consts  --      2.7463                 1.7411                 1.9351
 IR Inten    --     13.6005                23.1732                47.6872

                     34                     35                     36
                      A                      A                      A
 Frequencies --   1401.5772              1405.9729              1413.8357
 Red. masses --      1.7326                 1.2963                 1.3996
 Frc consts  --      2.0053                 1.5098                 1.6483
 IR Inten    --     58.0740                11.5156                13.3769

                     37                     38                     39
                      A                      A                      A
 Frequencies --   1425.2114              1494.7422              1503.7179
 Red. masses --      1.3028                 1.0495                 1.0536
 Frc consts  --      1.5591                 1.3815                 1.4036
 IR Inten    --     41.8610                 0.6123                 2.5611

                     40                     41                     42
                      A                      A                      A
 Frequencies --   1510.1016              1511.5056              1519.9096
 Red. masses --      1.0637                 1.0484                 1.0533
 Frc consts  --      1.4292                 1.4112                 1.4337
 IR Inten    --      4.5382                 1.4100                 2.1092

                     43                     44                     45
                      A                      A                      A
 Frequencies --   1534.4935              1681.1281              3040.7869
 Red. masses --      1.0827                 1.0946                 1.0413
 Frc consts  --      1.5021                 1.8227                 5.6726
 IR Inten    --     14.3875                33.9623                11.6810

                     46                     47                     48
                      A                      A                      A
 Frequencies --   3047.3231              3060.1558              3111.2713
 Red. masses --      1.0411                 1.0361                 1.0954
 Frc consts  --      5.6962                 5.7168                 6.2473
 IR Inten    --     38.4434                11.9527                12.8143

                     49                     50                     51
                      A                      A                      A
 Frequencies --   3118.9586              3133.8601              3147.5136
 Red. masses --      1.0951                 1.1017                 1.1031
 Frc consts  --      6.2767                 6.3747                 6.4385
 IR Inten    --     35.8633                17.9987                12.1492

                     52                     53                     54
                      A                      A                      A
 Frequencies --   3150.9961              3153.7452              3497.2115
 Red. masses --      1.1030                 1.1032                 1.0498
 Frc consts  --      6.4524                 6.4647                 7.5646
 IR Inten    --     23.1181                 9.0561                 0.1007

                     55                     56                     57
                      A                      A                      A
 Frequencies --   3574.8387              3751.8859              3820.8712
 Red. masses --      1.0916                 1.0645                 1.0666
 Frc consts  --      8.2190                 8.8289                 9.1740
 IR Inten    --      0.3725                36.1222                14.0716

 - Thermochemistry -
 -------------------
 Temperature   298.150 Kelvin.  Pressure   1.00000 Atm.
 Atom     1 has atomic number  6 and mass  12.00000

 Molecular mass:   119.09463 amu.
 Principal axes and moments of inertia in atomic units:
                           1         2         3
     Eigenvalues --   736.106751014.909991031.15998
           X            0.99794   0.06095   0.01994
           Y           -0.06203   0.99633   0.05896
           Z           -0.01628  -0.06008   0.99806
 This molecule is an asymmetric top.
 Rotational symmetry number  1.
 Warning -- assumption of classical behavior for rotation
           may cause significant error
 Rotational temperatures (Kelvin)      0.11766     0.08534     0.08400
 Rotational constants (GHZ):           2.45174     1.77823     1.75020
 Zero-point vibrational energy     489830.7 (Joules/Mol)
                                  117.07235 (Kcal/Mol)
 Warning -- explicit consideration of  17 degrees of freedom as
           vibrations may cause significant error
 Vibrational temperatures:    154.69   326.84   348.79   356.85   385.21
          (Kelvin)            396.26   419.13   462.18   503.31   521.70
                              528.24   566.25   642.07   713.12   746.13
                              769.65   803.89   980.69  1214.82  1271.13
                             1330.44  1351.46  1387.31  1407.33  1461.02
                             1494.77  1622.88  1657.69  1679.47  1755.62
                             1778.43  1900.75  1983.49  2016.55  2022.88
                             2034.19  2050.56  2150.60  2163.51  2172.70
                             2174.72  2186.81  2207.79  2418.77  4375.01
                             4384.41  4402.88  4476.42  4487.48  4508.92
                             4528.56  4533.57  4537.53  5031.70  5143.39
                             5398.12  5497.37

 Zero-point correction=                           0.186567 (Hartree/Particle)
 Thermal correction to Energy=                    0.196478
 Thermal correction to Enthalpy=                  0.197423
 Thermal correction to Gibbs Free Energy=         0.153569
 Sum of electronic and zero-point Energies=           -403.393310
 Sum of electronic and thermal Energies=              -403.383398
 Sum of electronic and thermal Enthalpies=            -403.382454
 Sum of electronic and thermal Free Energies=         -403.426307

                     E (Thermal)             CV                S
                      KCal/Mol        Cal/Mol-Kelvin    Cal/Mol-Kelvin
 Total                  123.292             38.927             92.297
 Electronic               0.000              0.000              0.000
 Translational            0.889              2.981             40.239
 Rotational               0.889              2.981             28.134
 Vibrational            121.515             32.966             23.924
 Vibration     1          0.606              1.943              3.313
 Vibration     2          0.651              1.800              1.901
 Vibration     3          0.659              1.775              1.785
 Vibration     4          0.662              1.766              1.745
 Vibration     5          0.673              1.732              1.611
 Vibration     6          0.677              1.719              1.562
 Vibration     7          0.687              1.690              1.466
 Vibration     8          0.707              1.633              1.304
 Vibration     9          0.727              1.576              1.167
 Vibration    10          0.736              1.549              1.111
 Vibration    11          0.740              1.540              1.092
 Vibration    12          0.761              1.484              0.987
 Vibration    13          0.806              1.369              0.807
 Vibration    14          0.851              1.260              0.669
 Vibration    15          0.874              1.209              0.613
 Vibration    16          0.890              1.173              0.576
 Vibration    17          0.914              1.121              0.526

 Normal termination of Gaussian 09 at Thu Sep  8 15:04:39 2022.
