 Gaussian 09, Revision E.01,
 Gaussian 09:  ES64L-G09RevE.01 30-Nov-2015

 ----------------------------
 #P OPT Freq B3LYP/6-31G(d,p)
 ----------------------------

 --------
 Frag_473
 --------
 Symbolic Z-matrix:
 Charge =  0 Multiplicity = 1

 SCF Done:  E(RB3LYP) =  -419.613808857     A.U. after   13 cycles
 SCF Done:  E(RB3LYP) =  -419.613744898     A.U. after   11 cycles
 SCF Done:  E(RB3LYP) =  -419.613845718     A.U. after   11 cycles
 SCF Done:  E(RB3LYP) =  -419.613884644     A.U. after    8 cycles
 SCF Done:  E(RB3LYP) =  -419.613887572     A.U. after    7 cycles
 SCF Done:  E(RB3LYP) =  -419.613888994     A.U. after    7 cycles
 SCF Done:  E(RB3LYP) =  -419.613890199     A.U. after    8 cycles
 SCF Done:  E(RB3LYP) =  -419.613890792     A.U. after    7 cycles
 SCF Done:  E(RB3LYP) =  -419.613891060     A.U. after    7 cycles
 SCF Done:  E(RB3LYP) =  -419.613891120     A.U. after    7 cycles
 Optimization completed.
    -- Stationary point found.
 Normal termination of Gaussian 09 at Thu Sep  8 15:04:16 2022.

 ----------------------------------------------------------------------
 #P Geom=AllCheck Guess=TCheck SCRF=Check GenChk RB3LYP/6-31G(d,p) Freq
 ----------------------------------------------------------------------

 Structure from the checkpoint file:  "B3LYP6-31Gdp.Frag_473.chk"
 --------
 Frag_473
 --------
 Charge =  0 Multiplicity = 1

                         Standard orientation:
 ---------------------------------------------------------------------
 Center     Atomic      Atomic             Coordinates (Angstroms)
 Number     Number       Type             X           Y           Z
 ---------------------------------------------------------------------
      1          6           0       -1.400436    1.387112    0.251002
      2          6           0       -0.780581    0.006482    0.031465
      3          7           0       -1.192702   -0.884744    1.091905
      4          8           0       -1.158053   -0.473162   -1.284286
      5          6           0        0.791037    0.003146   -0.018154
      6          6           0        1.434105    0.245832    1.350852
      7          7           0        1.239186    0.949082   -1.047151
      8          8           0        1.197980   -1.292740   -0.425493
      9          1           0       -1.062458    1.836709    1.188124
     10          1           0       -1.159311    2.044075   -0.586608
     11          1           0       -2.492727    1.300917    0.299386
     12          1           0       -2.204648   -0.961571    1.145402
     13          1           0       -0.793449   -1.806105    0.931472
     14          1           0       -2.067075   -0.792826   -1.215589
     15          1           0        1.092832   -0.479108    2.090448
     16          1           0        1.198867    1.248716    1.719335
     17          1           0        2.520182    0.163762    1.244385
     18          1           0        2.239728    0.805633   -1.168870
     19          1           0        1.119210    1.907873   -0.727431
     20          1           0        0.699298   -1.446665   -1.246094
 ---------------------------------------------------------------------

 SCF Done:  E(RB3LYP) =  -419.613891120     A.U. after    1 cycles

 The electronic state is 1-A.
 Alpha  occ. eigenvalues --  -19.14182 -19.13259 -14.31807 -14.30496 -10.26344
 Alpha  occ. eigenvalues --  -10.25847 -10.17856 -10.16483  -1.03677  -1.00333
 Alpha  occ. eigenvalues --   -0.87929  -0.86349  -0.73780  -0.71320  -0.63744
 Alpha  occ. eigenvalues --   -0.55698  -0.51985  -0.50696  -0.49457  -0.46522
 Alpha  occ. eigenvalues --   -0.42918  -0.41830  -0.40404  -0.39315  -0.38402
 Alpha  occ. eigenvalues --   -0.37983  -0.36322  -0.35906  -0.32304  -0.28341
 Alpha  occ. eigenvalues --   -0.27125  -0.24730  -0.23020
 Alpha virt. eigenvalues --    0.05639   0.09491   0.11279   0.12687   0.13362
 Alpha virt. eigenvalues --    0.14215   0.15928   0.16482   0.16796   0.18755
 Alpha virt. eigenvalues --    0.20070   0.21568   0.22727   0.24473   0.24964

 Mulliken charges:
               1
     1  C   -0.318375
     2  C    0.353110
     3  N   -0.587998
     4  O   -0.551500
     5  C    0.356644
     6  C   -0.294496
     7  N   -0.587611
     8  O   -0.564142
     9  H    0.114547
    10  H    0.127474
    11  H    0.087042
    12  H    0.226491
    13  H    0.250125
    14  H    0.286597
    15  H    0.125198
    16  H    0.088700
    17  H    0.100186
    18  H    0.239669
    19  H    0.229896
    20  H    0.318444
 Sum of Mulliken charges =  -0.00000

 Dipole moment (field-independent basis, Debye):
    X=             -1.8501    Y=              0.5210    Z=              0.6590  Tot=              2.0319
 Quadrupole moment (field-independent basis, Debye-Ang):
   XX=            -42.1140   YY=            -46.0932   ZZ=            -55.0477
   XY=              5.7670   XZ=              0.0403   YZ=              1.6277

  Exact polarizability:  69.920   1.125  62.741  -0.779  -0.345  60.003
 Approx polarizability:  91.637  -0.117  88.370  -1.928  -0.221  85.972

                      1                      2                      3
                      A                      A                      A
 Frequencies --     89.6791               166.8846               205.5895
 Red. masses --      3.1102                 1.1237                 1.0889
 Frc consts  --      0.0147                 0.0184                 0.0271
 IR Inten    --      6.6188                96.4164                 9.3961

                      4                      5                      6
                      A                      A                      A
 Frequencies --    226.4386               250.5029               274.7193
 Red. masses --      1.0775                 2.2440                 2.5813
 Frc consts  --      0.0326                 0.0830                 0.1148
 IR Inten    --      1.1506                 2.1372                 3.7076

                      7                      8                      9
                      A                      A                      A
 Frequencies --    280.3590               344.1863               366.6854
 Red. masses --      1.3731                 1.8344                 3.4254
 Frc consts  --      0.0636                 0.1280                 0.2714
 IR Inten    --      4.3863                 4.2670                12.3415

                     10                     11                     12
                      A                      A                      A
 Frequencies --    374.3689               415.2786               425.2309
 Red. masses --      2.5795                 1.4849                 3.0917
 Frc consts  --      0.2130                 0.1509                 0.3294
 IR Inten    --     20.0995                28.1993                 1.3808

                     13                     14                     15
                      A                      A                      A
 Frequencies --    439.8408               520.6873               543.1332
 Red. masses --      2.9270                 1.7973                 2.8828
 Frc consts  --      0.3336                 0.2871                 0.5011
 IR Inten    --     28.7330                10.5885                32.3035

                     16                     17                     18
                      A                      A                      A
 Frequencies --    553.9002               600.1447               693.8505
 Red. masses --      2.7748                 1.7875                 3.1025
 Frc consts  --      0.5016                 0.3793                 0.8800
 IR Inten    --     27.3000               155.4281                 3.5531

                     19                     20                     21
                      A                      A                      A
 Frequencies --    824.0888               866.6676               890.3677
 Red. masses --      1.7970                 2.2440                 1.6949
 Frc consts  --      0.7190                 0.9931                 0.7916
 IR Inten    --     90.4978                23.6161               225.6658

                     22                     23                     24
                      A                      A                      A
 Frequencies --    926.9560               956.5872               974.8054
 Red. masses --      1.7065                 2.0201                 1.8314
 Frc consts  --      0.8639                 1.0891                 1.0253
 IR Inten    --     13.8877                 7.3091                25.5193

                     25                     26                     27
                      A                      A                      A
 Frequencies --   1038.2741              1080.4615              1082.8697
 Red. masses --      1.5317                 1.4424                 1.8579
 Frc consts  --      0.9728                 0.9921                 1.2836
 IR Inten    --     31.3328                67.1055               107.3773

                     28                     29                     30
                      A                      A                      A
 Frequencies --   1127.2913              1183.8216              1229.2150
 Red. masses --      1.9399                 2.1101                 2.6809
 Frc consts  --      1.4525                 1.7423                 2.3866
 IR Inten    --     39.8616                10.3455                68.5790

                     31                     32                     33
                      A                      A                      A
 Frequencies --   1302.8067              1323.1313              1394.2692
 Red. masses --      2.0567                 2.0022                 1.3660
 Frc consts  --      2.0567                 2.0652                 1.5646
 IR Inten    --     27.2305                34.0902                31.1336

                     34                     35                     36
                      A                      A                      A
 Frequencies --   1411.9244              1422.6174              1439.3175
 Red. masses --      1.6836                 1.3633                 1.4614
 Frc consts  --      1.9774                 1.6256                 1.7837
 IR Inten    --     36.4406                16.5054                51.8478

                     37                     38                     39
                      A                      A                      A
 Frequencies --   1493.2893              1508.2748              1512.2632
 Red. masses --      1.0514                 1.0576                 1.0657
 Frc consts  --      1.3813                 1.4176                 1.4360
 IR Inten    --      0.1477                 2.0933                 1.4483

                     40                     41                     42
                      A                      A                      A
 Frequencies --   1516.0293              1644.3854              1651.8866
 Red. masses --      1.0797                 1.1037                 1.1104
 Frc consts  --      1.4620                 1.7584                 1.7852
 IR Inten    --      4.0189                79.4876                 1.0291

                     43                     44                     45
                      A                      A                      A
 Frequencies --   3046.1464              3058.0832              3116.1044
 Red. masses --      1.0432                 1.0377                 1.0935
 Frc consts  --      5.7031                 5.7179                 6.2558
 IR Inten    --     23.4426                13.9412                28.2583

                     46                     47                     48
                      A                      A                      A
 Frequencies --   3126.4869              3157.2846              3161.2484
 Red. masses --      1.1018                 1.1035                 1.1006
 Frc consts  --      6.3455                 6.4810                 6.4803
 IR Inten    --     23.8788                16.4779                14.2114

                     49                     50                     51
                      A                      A                      A
 Frequencies --   3485.6694              3498.0379              3574.7054
 Red. masses --      1.0493                 1.0477                 1.0922
 Frc consts  --      7.5116                 7.5530                 8.2228
 IR Inten    --      0.8727                 2.9332                 0.0929

                     52                     53                     54
                      A                      A                      A
 Frequencies --   3596.0545              3731.8638              3815.9735
 Red. masses --      1.0948                 1.0640                 1.0665
 Frc consts  --      8.3414                 8.7306                 9.1497
 IR Inten    --      2.4834                45.9538                10.0775

 - Thermochemistry -
 -------------------
 Temperature   298.150 Kelvin.  Pressure   1.00000 Atm.
 Atom     1 has atomic number  6 and mass  12.00000

 Molecular mass:   120.08988 amu.
 Principal axes and moments of inertia in atomic units:
                           1         2         3
     Eigenvalues --   720.668721011.342541018.98709
           X            0.99966   0.00693   0.02511
           Y           -0.02255  -0.25255   0.96732
           Z           -0.01305   0.96756   0.25231
 This molecule is an asymmetric top.
 Rotational symmetry number  1.
 Warning -- assumption of classical behavior for rotation
           may cause significant error
 Rotational temperatures (Kelvin)      0.12019     0.08564     0.08500
 Rotational constants (GHZ):           2.50426     1.78450     1.77111
 Zero-point vibrational energy     460207.8 (Joules/Mol)
                                  109.99231 (Kcal/Mol)
 Warning -- explicit consideration of  17 degrees of freedom as
           vibrations may cause significant error
 Vibrational temperatures:    129.03   240.11   295.80   325.79   360.42
          (Kelvin)            395.26   403.37   495.21   527.58   538.63
                              597.49   611.81   632.83   749.15   781.45
                              796.94   863.47   998.29  1185.68  1246.94
                             1281.04  1333.68  1376.31  1402.53  1493.84
                             1554.54  1558.01  1621.92  1703.25  1768.56
                             1874.45  1903.69  2006.04  2031.44  2046.83
                             2070.85  2148.51  2170.07  2175.81  2181.23
                             2365.90  2376.69  4382.72  4399.89  4483.37
                             4498.31  4542.62  4548.33  5015.09  5032.89
                             5143.20  5173.91  5369.31  5490.33

 Zero-point correction=                           0.175284 (Hartree/Particle)
 Thermal correction to Energy=                    0.185242
 Thermal correction to Enthalpy=                  0.186186
 Thermal correction to Gibbs Free Energy=         0.141952
 Sum of electronic and zero-point Energies=           -419.438607
 Sum of electronic and thermal Energies=              -419.428649
 Sum of electronic and thermal Enthalpies=            -419.427705
 Sum of electronic and thermal Free Energies=         -419.471939

                     E (Thermal)             CV                S
                      KCal/Mol        Cal/Mol-Kelvin    Cal/Mol-Kelvin
 Total                  116.241             38.500             93.099
 Electronic               0.000              0.000              0.000
 Translational            0.889              2.981             40.264
 Rotational               0.889              2.981             28.098
 Vibrational            114.464             32.539             24.737
 Vibration     1          0.602              1.956              3.667
 Vibration     2          0.624              1.883              2.470
 Vibration     3          0.640              1.832              2.082
 Vibration     4          0.650              1.801              1.907
 Vibration     5          0.663              1.762              1.727
 Vibration     6          0.677              1.720              1.566
 Vibration     7          0.680              1.710              1.531
 Vibration     8          0.723              1.587              1.193
 Vibration     9          0.740              1.541              1.094
 Vibration    10          0.745              1.525              1.062
 Vibration    11          0.779              1.437              0.908
 Vibration    12          0.787              1.415              0.874
 Vibration    13          0.800              1.383              0.827
 Vibration    14          0.876              1.204              0.608
 Vibration    15          0.898              1.155              0.559
 Vibration    16          0.909              1.131              0.536
 Vibration    17          0.958              1.031              0.449

 Normal termination of Gaussian 09 at Thu Sep  8 15:04:38 2022.
