 Gaussian 09, Revision E.01,
 Gaussian 09:  ES64L-G09RevE.01 30-Nov-2015

 ----------------------------
 #P OPT Freq B3LYP/6-31G(d,p)
 ----------------------------

 --------
 Frag_474
 --------
 Symbolic Z-matrix:
 Charge =  0 Multiplicity = 1

 SCF Done:  E(RB3LYP) =  -248.486485945     A.U. after   13 cycles
 SCF Done:  E(RB3LYP) =  -248.486558005     A.U. after    9 cycles
 SCF Done:  E(RB3LYP) =  -248.486573896     A.U. after    9 cycles
 SCF Done:  E(RB3LYP) =  -248.486587607     A.U. after   10 cycles
 SCF Done:  E(RB3LYP) =  -248.486590222     A.U. after    8 cycles
 SCF Done:  E(RB3LYP) =  -248.486590723     A.U. after    8 cycles
 SCF Done:  E(RB3LYP) =  -248.486590874     A.U. after    7 cycles
 SCF Done:  E(RB3LYP) =  -248.486590936     A.U. after    7 cycles
 Optimization completed.
    -- Stationary point found.
 Normal termination of Gaussian 09 at Thu Sep  8 15:24:48 2022.

 ----------------------------------------------------------------------
 #P Geom=AllCheck Guess=TCheck SCRF=Check GenChk RB3LYP/6-31G(d,p) Freq
 ----------------------------------------------------------------------

 Structure from the checkpoint file:  "B3LYP6-31Gdp.Frag_474.chk"
 --------
 Frag_474
 --------
 Charge =  0 Multiplicity = 1

                         Standard orientation:
 ---------------------------------------------------------------------
 Center     Atomic      Atomic             Coordinates (Angstroms)
 Number     Number       Type             X           Y           Z
 ---------------------------------------------------------------------
      1          6           0        0.789737    1.363769   -0.002943
      2          6           0        0.439535   -0.094859   -0.023499
      3          8           0        1.517859   -0.969493    0.087749
      4          6           0       -0.789776   -0.630426   -0.034136
      5          7           0       -2.019099    0.043372    0.106709
      6          1           0        1.213751    1.664043    0.963470
      7          1           0       -0.073136    2.004866   -0.205388
      8          1           0        1.544245    1.594572   -0.769566
      9          1           0        2.219947   -0.658473   -0.500532
     10          1           0       -0.868223   -1.713811   -0.047256
     11          1           0       -1.950127    1.047767   -0.008974
     12          1           0       -2.732611   -0.317531   -0.517239
 ---------------------------------------------------------------------

 SCF Done:  E(RB3LYP) =  -248.486590936     A.U. after    1 cycles

 The electronic state is 1-A.
 Alpha  occ. eigenvalues --  -19.14872 -14.32908 -10.21599 -10.19392 -10.18759
 Alpha  occ. eigenvalues --   -1.02366  -0.89207  -0.75026  -0.68069  -0.55726
 Alpha  occ. eigenvalues --   -0.51863  -0.47071  -0.45734  -0.42307  -0.40671
 Alpha  occ. eigenvalues --   -0.37507  -0.35625  -0.31332  -0.29952  -0.17770
 Alpha virt. eigenvalues --    0.05933   0.07159   0.08531   0.12097   0.14246
 Alpha virt. eigenvalues --    0.17920   0.18368   0.20945   0.24277   0.26387
 Alpha virt. eigenvalues --    0.36333   0.41476   0.51879   0.53615   0.58174

 Mulliken charges:
               1
     1  C   -0.372805
     2  C    0.291272
     3  O   -0.553975
     4  C    0.017641
     5  N   -0.609035
     6  H    0.131815
     7  H    0.095793
     8  H    0.098691
     9  H    0.303492
    10  H    0.099777
    11  H    0.244591
    12  H    0.252744
 Sum of Mulliken charges =  -0.00000

 Dipole moment (field-independent basis, Debye):
    X=             -0.1191    Y=              1.6951    Z=             -2.0506  Tot=              2.6632
 Quadrupole moment (field-independent basis, Debye-Ang):
   XX=            -25.5562   YY=            -30.1146   ZZ=            -32.1668
   XY=              1.0532   XZ=              0.9945   YZ=              1.1041

  Exact polarizability:  62.866   5.029  43.269  -0.343   0.511  26.432
 Approx polarizability:  94.314   7.933  57.786  -1.263   0.137  37.309

                      1                      2                      3
                      A                      A                      A
 Frequencies --    156.6062               223.9823               276.6164
 Red. masses --      1.0953                 1.1172                 2.4270
 Frc consts  --      0.0158                 0.0330                 0.1094
 IR Inten    --     10.5330                76.4430                12.8701

                      4                      5                      6
                      A                      A                      A
 Frequencies --    297.1123               336.0265               422.2299
 Red. masses --      1.2066                 2.5795                 3.1169
 Frc consts  --      0.0628                 0.1716                 0.3274
 IR Inten    --     83.5434                20.3849                 1.6747

                      7                      8                      9
                      A                      A                      A
 Frequencies --    451.9200               571.4533               740.6349
 Red. masses --      2.4445                 3.5171                 1.4444
 Frc consts  --      0.2941                 0.6767                 0.4668
 IR Inten    --     23.8496                 7.6755               316.2001

                     10                     11                     12
                      A                      A                      A
 Frequencies --    816.9739               881.5670              1018.0125
 Red. masses --      3.3914                 1.3402                 1.5171
 Frc consts  --      1.3337                 0.6137                 0.9264
 IR Inten    --     18.5315                25.9598                 5.7659

                     13                     14                     15
                      A                      A                      A
 Frequencies --   1057.5362              1119.6803              1177.0979
 Red. masses --      1.3889                 1.4097                 2.5142
 Frc consts  --      0.9152                 1.0413                 2.0524
 IR Inten    --      3.3368                 7.2978               229.6701

                     16                     17                     18
                      A                      A                      A
 Frequencies --   1275.3525              1295.3293              1391.9095
 Red. masses --      1.3912                 2.5731                 1.3346
 Frc consts  --      1.3332                 2.5437                 1.5234
 IR Inten    --     13.9817                25.2812                15.2000

                     19                     20                     21
                      A                      A                      A
 Frequencies --   1437.5955              1489.5428              1503.2719
 Red. masses --      1.4350                 1.0465                 1.0642
 Frc consts  --      1.7473                 1.3680                 1.4169
 IR Inten    --     12.9656                 6.6232                 2.9164

                     22                     23                     24
                      A                      A                      A
 Frequencies --   1658.6428              1792.9590              3008.5785
 Red. masses --      1.1228                 5.9024                 1.0457
 Frc consts  --      1.8199                11.1794                 5.5765
 IR Inten    --     32.6036                10.9461                49.6318

                     25                     26                     27
                      A                      A                      A
 Frequencies --   3063.5721              3114.6173              3195.3910
 Red. masses --      1.0931                 1.0976                 1.0901
 Frc consts  --      6.0446                 6.2736                 6.5577
 IR Inten    --     27.5850                29.3429                10.2026

                     28                     29                     30
                      A                      A                      A
 Frequencies --   3526.1217              3627.7260              3780.6054
 Red. masses --      1.0484                 1.0952                 1.0660
 Frc consts  --      7.6800                 8.4919                 8.9771
 IR Inten    --      1.3585                 1.3127                10.2434

 - Thermochemistry -
 -------------------
 Temperature   298.150 Kelvin.  Pressure   1.00000 Atm.
 Atom     1 has atomic number  6 and mass  12.00000

 Molecular mass:    73.05276 amu.
 Principal axes and moments of inertia in atomic units:
                           1         2         3
     Eigenvalues --   208.36051 481.05272 672.40437
           X            0.99916   0.04089   0.00302
           Y           -0.04092   0.99912   0.00897
           Z           -0.00265  -0.00909   0.99996
 This molecule is an asymmetric top.
 Rotational symmetry number  1.
 Rotational temperatures (Kelvin)      0.41569     0.18005     0.12881
 Rotational constants (GHZ):           8.66163     3.75165     2.68401
 Zero-point vibrational energy     267417.2 (Joules/Mol)
                                   63.91424 (Kcal/Mol)
 Warning -- explicit consideration of   8 degrees of freedom as
           vibrations may cause significant error
 Vibrational temperatures:    225.32   322.26   397.99   427.48   483.47
          (Kelvin)            607.49   650.21   822.19  1065.61  1175.44
                             1268.38  1464.69  1521.56  1610.97  1693.58
                             1834.95  1863.69  2002.64  2068.38  2143.12
                             2162.87  2386.41  2579.66  4328.67  4407.79
                             4481.23  4597.45  5073.30  5219.48  5439.44

 Zero-point correction=                           0.101854 (Hartree/Particle)
 Thermal correction to Energy=                    0.108206
 Thermal correction to Enthalpy=                  0.109150
 Thermal correction to Gibbs Free Energy=         0.072849
 Sum of electronic and zero-point Energies=           -248.384737
 Sum of electronic and thermal Energies=              -248.378385
 Sum of electronic and thermal Enthalpies=            -248.377440
 Sum of electronic and thermal Free Energies=         -248.413742

                     E (Thermal)             CV                S
                      KCal/Mol        Cal/Mol-Kelvin    Cal/Mol-Kelvin
 Total                   67.900             22.328             76.402
 Electronic               0.000              0.000              0.000
 Translational            0.889              2.981             38.782
 Rotational               0.889              2.981             25.714
 Vibrational             66.123             16.367             11.906
 Vibration     1          0.620              1.895              2.590
 Vibration     2          0.649              1.805              1.927
 Vibration     3          0.678              1.717              1.555
 Vibration     4          0.691              1.679              1.433
 Vibration     5          0.717              1.604              1.231
 Vibration     6          0.785              1.422              0.884
 Vibration     7          0.811              1.357              0.790
 Vibration     8          0.928              1.093              0.501

 Normal termination of Gaussian 09 at Thu Sep  8 15:24:56 2022.
