 Gaussian 09, Revision E.01,
 Gaussian 09:  ES64L-G09RevE.01 30-Nov-2015

 --------------------------------
 #P OPT=calcfc Freq B3LYP/6-31G**
 --------------------------------

 --------
 Frag_200
 --------
 Symbolic Z-matrix:
 Charge =  0 Multiplicity = 1

 SCF Done:  E(RB3LYP) =  -205.293446847     A.U. after   14 cycles
 SCF Done:  E(RB3LYP) =  -205.311275009     A.U. after   15 cycles
 SCF Done:  E(RB3LYP) =  -205.311702205     A.U. after   14 cycles
 SCF Done:  E(RB3LYP) =  -205.312724014     A.U. after   15 cycles
 SCF Done:  E(RB3LYP) =  -205.314342728     A.U. after   13 cycles
 SCF Done:  E(RB3LYP) =  -205.314508168     A.U. after   13 cycles
 SCF Done:  E(RB3LYP) =  -205.314543879     A.U. after   10 cycles
 SCF Done:  E(RB3LYP) =  -205.314545946     A.U. after    9 cycles
 Optimization completed.
    -- Stationary point found.
 Normal termination of Gaussian 09 at Sat Aug 21 02:19:57 2021.

 ----------------------------------------------------------------------
 #P Geom=AllCheck Guess=TCheck SCRF=Check GenChk RB3LYP/6-31G(d,p) Freq
 ----------------------------------------------------------------------

 Structure from the checkpoint file:  "/public/home/users/caep010/.cache/gau_scr/Gau-82948.chk"
 --------
 Frag_200
 --------
 Charge =  0 Multiplicity = 1

                         Standard orientation:
 ---------------------------------------------------------------------
 Center     Atomic      Atomic             Coordinates (Angstroms)
 Number     Number       Type             X           Y           Z
 ---------------------------------------------------------------------
      1          6           0        1.754733   -0.079890   -0.004782
      2          7           0        0.399356    0.466996   -0.009093
      3          7           0       -0.466977   -0.434117    0.003272
      4          7           0       -1.737401    0.054502    0.085612
      5          1           0        2.293866    0.312477   -0.874127
      6          1           0        1.765553   -1.175432   -0.023176
      7          1           0        2.276731    0.278062    0.889846
      8          1           0       -1.828384    1.032920   -0.185948
      9          1           0       -2.401002   -0.580350   -0.336438
 ---------------------------------------------------------------------

 SCF Done:  E(RB3LYP) =  -205.314545946     A.U. after    1 cycles

 The electronic state is 1-A.
 Alpha  occ. eigenvalues --  -14.40616 -14.36744 -14.35378 -10.20104  -1.05540
 Alpha  occ. eigenvalues --   -0.88897  -0.72367  -0.60215  -0.53135  -0.48583
 Alpha  occ. eigenvalues --   -0.44681  -0.41212  -0.38126  -0.35958  -0.24848
 Alpha  occ. eigenvalues --   -0.23530
 Alpha virt. eigenvalues --   -0.01086   0.08759   0.12812   0.14231   0.17352
 Alpha virt. eigenvalues --    0.17674   0.19910   0.24100   0.37870   0.54660
 Alpha virt. eigenvalues --    0.55185   0.57762   0.64143   0.66363   0.68366

 Mulliken charges:
               1
     1  C   -0.171056
     2  N   -0.245413
     3  N   -0.068908
     4  N   -0.390174
     5  H    0.118077
     6  H    0.111073
     7  H    0.121995
     8  H    0.251017
     9  H    0.273387
 Sum of Mulliken charges =  -0.00000

 Dipole moment (field-independent basis, Debye):
    X=             -0.6868    Y=             -0.0322    Z=             -1.0452  Tot=              1.2510
 Quadrupole moment (field-independent basis, Debye-Ang):
   XX=            -17.4363   YY=            -25.3136   ZZ=            -24.8699
   XY=             -0.5494   XZ=              2.5717   YZ=              0.0306

  Exact polarizability:  55.769   1.612  28.735   0.626  -0.080  20.794
 Approx polarizability:  78.858   8.572  43.785  -0.835  -0.403  28.677

                      1                      2                      3
                      A                      A                      A
 Frequencies --    187.8430               305.6235               361.3704
 Red. masses --      1.2935                 2.5529                 2.5391
 Frc consts  --      0.0269                 0.1405                 0.1954
 IR Inten    --      2.7657                15.4340                44.5815

                      4                      5                      6
                      A                      A                      A
 Frequencies --    516.1550               618.4327               682.3663
 Red. masses --      1.2769                 3.1708                 1.5839
 Frc consts  --      0.2004                 0.7145                 0.4345
 IR Inten    --     91.7762                79.6507               191.2354

                      7                      8                      9
                      A                      A                      A
 Frequencies --    997.2886              1112.9871              1128.3389
 Red. masses --      2.3133                 1.3854                 2.5500
 Frc consts  --      1.3556                 1.0111                 1.9128
 IR Inten    --      3.9068                 1.2100                22.8794

                     10                     11                     12
                      A                      A                      A
 Frequencies --   1205.2097              1312.0214              1434.3652
 Red. masses --      2.1114                 1.8114                 1.2172
 Frc consts  --      1.8069                 1.8372                 1.4755
 IR Inten    --     25.5607                32.2142                 6.7816

                     13                     14                     15
                      A                      A                      A
 Frequencies --   1490.7630              1499.3499              1622.2136
 Red. masses --      1.0456                 1.0617                 1.2533
 Frc consts  --      1.3691                 1.4062                 1.9433
 IR Inten    --      4.7314                 5.3090                71.2396

                     16                     17                     18
                      A                      A                      A
 Frequencies --   1644.5813              3026.8108              3099.6347
 Red. masses --      4.1348                 1.0312                 1.1024
 Frc consts  --      6.5890                 5.5664                 6.2405
 IR Inten    --     39.8781                42.1475                23.7895

                     19                     20                     21
                      A                      A                      A
 Frequencies --   3113.2469              3463.9167              3661.7588
 Red. masses --      1.1059                 1.0492                 1.0953
 Frc consts  --      6.3155                 7.4175                 8.6533
 IR Inten    --     24.1684                 1.5432                23.6611

 - Thermochemistry -
 -------------------
 Temperature   298.150 Kelvin.  Pressure   1.00000 Atm.
 Atom     1 has atomic number  6 and mass  12.00000

 Molecular mass:    59.04835 amu.
 Principal axes and moments of inertia in atomic units:
                           1         2         3
     Eigenvalues --    37.79913 389.64081 414.54408
           X            0.99987  -0.01234   0.01045
           Y            0.01235   0.99992  -0.00098
           Z           -0.01043   0.00111   0.99994
 This molecule is an asymmetric top.
 Rotational symmetry number  1.
 Rotational temperatures (Kelvin)      2.29142     0.22229     0.20894
 Rotational constants (GHZ):          47.74558     4.63181     4.35356
 Zero-point vibrational energy     194299.1 (Joules/Mol)
                                   46.43861 (Kcal/Mol)
 Warning -- explicit consideration of   5 degrees of freedom as
           vibrations may cause significant error
 Vibrational temperatures:    270.26   439.72   519.93   742.63   889.79
          (Kelvin)            981.77  1434.87  1601.34  1623.43  1734.03
                             1887.70  2063.73  2144.87  2157.23  2334.00
                             2366.18  4354.90  4459.68  4479.26  4983.80
                             5268.45

 Zero-point correction=                           0.074005 (Hartree/Particle)
 Thermal correction to Energy=                    0.078794
 Thermal correction to Enthalpy=                  0.079738
 Thermal correction to Gibbs Free Energy=         0.047467
 Sum of electronic and zero-point Energies=           -205.240541
 Sum of electronic and thermal Energies=              -205.235752
 Sum of electronic and thermal Enthalpies=            -205.234808
 Sum of electronic and thermal Free Energies=         -205.267079

                     E (Thermal)             CV                S
                      KCal/Mol        Cal/Mol-Kelvin    Cal/Mol-Kelvin
 Total                   49.444             15.694             67.921
 Electronic               0.000              0.000              0.000
 Translational            0.889              2.981             38.148
 Rotational               0.889              2.981             23.328
 Vibrational             47.667              9.732              6.445
 Vibration     1          0.633              1.857              2.249
 Vibration     2          0.696              1.663              1.386
 Vibration     3          0.736              1.552              1.116
 Vibration     4          0.871              1.214              0.619
 Vibration     5          0.978              0.993              0.419

 Optimization completed.
    -- Stationary point found.
 Normal termination of Gaussian 09 at Sat Aug 21 02:20:03 2021.
