 Gaussian 09, Revision D.01,
 Gaussian 09:  ES64L-G09RevD.01 24-Apr-2013

 -------------------------
 #P OPT Freq B3LYP/6-31G**
 -------------------------

 --------
 Frag_112
 --------
 Symbolic Z-matrix:
 Charge =  0 Multiplicity = 1

 SCF Done:  E(RB3LYP) =  -212.596515009     A.U. after   13 cycles
 Optimization completed.
    -- Stationary point found.
 Normal termination of Gaussian 09 at Thu Jul 22 19:37:10 2021.

 ----------------------------------------------------------------------
 #P Geom=AllCheck Guess=TCheck SCRF=Check GenChk RB3LYP/6-31G(d,p) Freq
 ----------------------------------------------------------------------

 Structure from the checkpoint file:  "/vol2/users/liuj201281/HOFBenchmark/IsodesmicSplit/Sample60/Ring26/Running/Gau-396283.chk"
 --------
 Frag_112
 --------
 Charge =  0 Multiplicity = 1

                         Standard orientation:
 ---------------------------------------------------------------------
 Center     Atomic      Atomic             Coordinates (Angstroms)
 Number     Number       Type             X           Y           Z
 ---------------------------------------------------------------------
      1          6           0       -2.082699   -0.105427   -0.008512
      2          6           0       -0.702391   -0.702609   -0.008912
      3          6           0        0.454900   -0.015094    0.001988
      4          6           0        1.798109   -0.696577   -0.001212
      5          7           0        0.539882    1.384107    0.095288
      6          1           0       -2.113811    0.882573   -0.486713
      7          1           0       -2.785290   -0.742236   -0.557013
      8          1           0       -2.490700    0.018668    1.004688
      9          1           0       -0.636077   -1.786308    0.018788
     10          1           0        2.374106   -0.429569    0.892788
     11          1           0        2.395505   -0.389869   -0.871313
     12          1           0        1.689923   -1.782178   -0.035713
     13          1           0        1.304777    1.785717   -0.434413
     14          1           0       -0.325124    1.872696   -0.098213
 ---------------------------------------------------------------------

 SCF Done:  E(RB3LYP) =  -212.596515009     A.U. after    1 cycles

 The electronic state is 1-A.
 Alpha  occ. eigenvalues --  -14.32745 -10.20753 -10.17783 -10.17323 -10.15493
 Alpha  occ. eigenvalues --   -0.89942  -0.75784  -0.71950  -0.63403  -0.53745
 Alpha  occ. eigenvalues --   -0.50367  -0.44222  -0.42157  -0.40874  -0.39375
 Alpha  occ. eigenvalues --   -0.37963  -0.35344  -0.33881  -0.30184  -0.18893
 Alpha virt. eigenvalues --    0.05418   0.07838   0.11327   0.13459   0.15137
 Alpha virt. eigenvalues --    0.15930   0.18399   0.18742   0.20926   0.22630
 Alpha virt. eigenvalues --    0.24965   0.25696   0.35940   0.44825   0.51802

 Mulliken charges:
               1
     1  C   -0.352159
     2  C   -0.136130
     3  C    0.277725
     4  C   -0.366647
     5  N   -0.633239
     6  H    0.085796
     7  H    0.107337
     8  H    0.116168
     9  H    0.065277
    10  H    0.123569
    11  H    0.101849
    12  H    0.115281
    13  H    0.245922
    14  H    0.249250
 Sum of Mulliken charges =   0.00000

 Dipole moment (field-independent basis, Debye):
    X=              0.3877    Y=              0.7337    Z=             -0.9992  Tot=              1.2989
 Quadrupole moment (field-independent basis, Debye-Ang):
   XX=            -30.1217   YY=            -29.5877   ZZ=            -34.2302
   XY=             -0.1366   XZ=             -1.0953   YZ=             -2.2158

  Exact polarizability:  68.273   6.002  52.589  -0.955  -0.597  33.312
 Approx polarizability:  91.401  15.834  76.674  -0.888   0.054  46.589

                      1                      2                      3
                      A                      A                      A
 Frequencies --     98.9959               176.6121               232.5644
 Red. masses --      1.1119                 1.2073                 1.6686
 Frc consts  --      0.0064                 0.0222                 0.0532
 IR Inten    --      1.0887                 1.2649                 5.0699

                      4                      5                      6
                      A                      A                      A
 Frequencies --    282.7182               354.7401               409.3296
 Red. masses --      2.3351                 1.1333                 2.5106
 Frc consts  --      0.1100                 0.0840                 0.2478
 IR Inten    --      0.3125                38.8095                 1.3341

                      7                      8                      9
                      A                      A                      A
 Frequencies --    541.3168               552.8308               683.1405
 Red. masses --      2.1213                 2.8157                 1.5358
 Frc consts  --      0.3662                 0.5070                 0.4223
 IR Inten    --     56.9742                 1.1318               239.4355

                     10                     11                     12
                      A                      A                      A
 Frequencies --    778.4622               825.0093               995.2435
 Red. masses --      1.1461                 2.5584                 1.7896
 Frc consts  --      0.4092                 1.0260                 1.0444
 IR Inten    --      8.7378                 0.1391                 6.9280

                     13                     14                     15
                      A                      A                      A
 Frequencies --   1030.8877              1045.5930              1077.1635
 Red. masses --      1.3306                 1.4773                 1.5111
 Frc consts  --      0.8331                 0.9515                 1.0330
 IR Inten    --      1.8426                 6.7199                 3.9202

                     16                     17                     18
                      A                      A                      A
 Frequencies --   1093.0682              1173.3583              1296.6508
 Red. masses --      2.0953                 1.5724                 1.8440
 Frc consts  --      1.4750                 1.2755                 1.8267
 IR Inten    --      3.6516                 6.4166                11.4340

                     19                     20                     21
                      A                      A                      A
 Frequencies --   1389.3142              1426.0872              1442.2772
 Red. masses --      1.5294                 1.2793                 1.4447
 Frc consts  --      1.7393                 1.5329                 1.7706
 IR Inten    --     34.5498                 4.3970                 7.8640

                     22                     23                     24
                      A                      A                      A
 Frequencies --   1490.2823              1500.2704              1504.6942
 Red. masses --      1.0446                 1.0493                 1.0629
 Frc consts  --      1.3669                 1.3915                 1.4179
 IR Inten    --      6.4795                 3.7729                 1.3824

                     25                     26                     27
                      A                      A                      A
 Frequencies --   1514.5297              1661.1882              1753.7998
 Red. masses --      1.0557                 1.1509                 5.8121
 Frc consts  --      1.4267                 1.8712                10.5328
 IR Inten    --      5.9158                46.3777                65.3705

                     28                     29                     30
                      A                      A                      A
 Frequencies --   3010.4331              3021.6536              3056.4085
 Red. masses --      1.0400                 1.0445                 1.0988
 Frc consts  --      5.5530                 5.6191                 6.0476
 IR Inten    --     55.0426                38.8347                41.1949

                     31                     32                     33
                      A                      A                      A
 Frequencies --   3076.6916              3092.2278              3144.2728
 Red. masses --      1.0947                 1.0979                 1.0985
 Frc consts  --      6.1053                 6.1855                 6.3989
 IR Inten    --     26.0681                29.5872                14.8554

                     34                     35                     36
                      A                      A                      A
 Frequencies --   3184.1698              3538.5338              3645.9713
 Red. masses --      1.0891                 1.0479                 1.0965
 Frc consts  --      6.5061                 7.7307                 8.5879
 IR Inten    --     19.5645                 1.1611                 2.2054

 - Thermochemistry -
 -------------------
 Temperature   298.150 Kelvin.  Pressure   1.00000 Atm.
 Atom     1 has atomic number  6 and mass  12.00000

 Molecular mass:    71.07350 amu.
 Principal axes and moments of inertia in atomic units:
                           1         2         3
     Eigenvalues --   203.43144 506.96778 685.80598
           X            0.99973  -0.02288  -0.00334
           Y            0.02281   0.99956  -0.01902
           Z            0.00377   0.01894   0.99981
 This molecule is an asymmetric top.
 Rotational symmetry number  1.
 Rotational temperatures (Kelvin)      0.42576     0.17085     0.12629
 Rotational constants (GHZ):           8.87150     3.55987     2.63156
 Zero-point vibrational energy     329574.1 (Joules/Mol)
                                   78.77011 (Kcal/Mol)
 Warning -- explicit consideration of   8 degrees of freedom as
           vibrations may cause significant error
 Vibrational temperatures:    142.43   254.11   334.61   406.77   510.39
          (Kelvin)            588.93   778.83   795.40   982.89  1120.03
                             1187.00  1431.93  1483.22  1504.37  1549.80
                             1572.68  1688.20  1865.59  1998.91  2051.82
                             2075.11  2144.18  2158.55  2164.92  2179.07
                             2390.08  2523.32  4331.34  4347.48  4397.48
                             4426.67  4449.02  4523.90  4581.30  5091.15
                             5245.73

 Zero-point correction=                           0.125528 (Hartree/Particle)
 Thermal correction to Energy=                    0.132193
 Thermal correction to Enthalpy=                  0.133137
 Thermal correction to Gibbs Free Energy=         0.096001
 Sum of electronic and zero-point Energies=           -212.470987
 Sum of electronic and thermal Energies=              -212.464322
 Sum of electronic and thermal Enthalpies=            -212.463378
 Sum of electronic and thermal Free Energies=         -212.500514

                     E (Thermal)             CV                S
                      KCal/Mol        Cal/Mol-Kelvin    Cal/Mol-Kelvin
 Total                   82.952             23.431             78.160
 Electronic               0.000              0.000              0.000
 Translational            0.889              2.981             38.700
 Rotational               0.889              2.981             25.762
 Vibrational             81.175             17.469             13.698
 Vibration     1          0.604              1.950              3.474
 Vibration     2          0.628              1.871              2.364
 Vibration     3          0.653              1.791              1.859
 Vibration     4          0.682              1.706              1.517
 Vibration     5          0.731              1.566              1.145
 Vibration     6          0.774              1.450              0.929
 Vibration     7          0.896              1.159              0.562
 Vibration     8          0.908              1.133              0.538

 Optimization completed.
    -- Stationary point found.
 Normal termination of Gaussian 09 at Thu Jul 22 19:37:23 2021.
