 Gaussian 09, Revision E.01,
 Gaussian 09:  ES64L-G09RevE.01 30-Nov-2015

 ----------------------------
 #P OPT Freq B3LYP/6-31G(d,p)
 ----------------------------

 --------
 Frag_981
 --------
 Symbolic Z-matrix:
 Charge =  0 Multiplicity = 1

 SCF Done:  E(RB3LYP) =  -359.553984828     A.U. after   15 cycles
 SCF Done:  E(RB3LYP) =  -359.553681009     A.U. after   13 cycles
 SCF Done:  E(RB3LYP) =  -359.554020328     A.U. after    7 cycles
 SCF Done:  E(RB3LYP) =  -359.552337124     A.U. after   14 cycles
 SCF Done:  E(RB3LYP) =  -359.554128586     A.U. after    8 cycles
 SCF Done:  E(RB3LYP) =  -359.554137835     A.U. after   10 cycles
 SCF Done:  E(RB3LYP) =  -359.554142624     A.U. after   12 cycles
 SCF Done:  E(RB3LYP) =  -359.554147913     A.U. after   11 cycles
 SCF Done:  E(RB3LYP) =  -359.554153002     A.U. after   10 cycles
 SCF Done:  E(RB3LYP) =  -359.554155569     A.U. after   10 cycles
 SCF Done:  E(RB3LYP) =  -359.554156200     A.U. after    8 cycles
 SCF Done:  E(RB3LYP) =  -359.554156365     A.U. after    8 cycles
 Optimization completed.
    -- Stationary point found.
 Normal termination of Gaussian 09 at Thu Sep  8 15:15:46 2022.

 ----------------------------------------------------------------------
 #P Geom=AllCheck Guess=TCheck SCRF=Check GenChk RB3LYP/6-31G(d,p) Freq
 ----------------------------------------------------------------------

 Structure from the checkpoint file:  "B3LYP6-31Gdp.Frag_981.chk"
 --------
 Frag_981
 --------
 Charge =  0 Multiplicity = 1

                         Standard orientation:
 ---------------------------------------------------------------------
 Center     Atomic      Atomic             Coordinates (Angstroms)
 Number     Number       Type             X           Y           Z
 ---------------------------------------------------------------------
      1          6           0        1.501995   -1.013875   -0.248225
      2          6           0        0.671496    0.078964    0.391853
      3          8           0        1.086698    1.325645   -0.028162
      4          7           0       -0.830819   -0.101299    0.027378
      5          8           0       -1.451033    0.929547   -0.229361
      6          8           0       -1.302896   -1.226321    0.083403
      7          1           0        1.455524   -0.927907   -1.336549
      8          1           0        1.147402   -1.997572    0.059402
      9          1           0        2.540609   -0.887924    0.066407
     10          1           0        0.643264   -0.023713    1.488473
     11          1           0        0.325837    1.924705    0.061821
 ---------------------------------------------------------------------

 SCF Done:  E(RB3LYP) =  -359.554156365     A.U. after    1 cycles

 The electronic state is 1-A.
 Alpha  occ. eigenvalues --  -19.20337 -19.20065 -19.17816 -14.57695 -10.30986
 Alpha  occ. eigenvalues --  -10.20434  -1.24026  -1.07905  -1.05828  -0.80937
 Alpha  occ. eigenvalues --   -0.71368  -0.61105  -0.58246  -0.55919  -0.52536
 Alpha  occ. eigenvalues --   -0.50088  -0.44222  -0.42069  -0.41415  -0.39473
 Alpha  occ. eigenvalues --   -0.33283  -0.32245  -0.31300  -0.29480
 Alpha virt. eigenvalues --   -0.07752   0.07928   0.10331   0.11479   0.13001
 Alpha virt. eigenvalues --    0.16101   0.17213   0.18980   0.22273   0.27041
 Alpha virt. eigenvalues --    0.36988   0.48178   0.51160   0.52282   0.55085

 Mulliken charges:
               1
     1  C   -0.323201
     2  C    0.257744
     3  O   -0.512576
     4  N    0.437912
     5  O   -0.382888
     6  O   -0.359260
     7  H    0.137001
     8  H    0.142880
     9  H    0.137454
    10  H    0.135935
    11  H    0.328999
 Sum of Mulliken charges =   0.00000

 Dipole moment (field-independent basis, Debye):
    X=              1.9314    Y=             -0.0908    Z=              0.9905  Tot=              2.1725
 Quadrupole moment (field-independent basis, Debye-Ang):
   XX=            -39.1508   YY=            -35.0551   ZZ=            -32.8089
   XY=             -3.3693   XZ=             -0.0995   YZ=              1.0807

  Exact polarizability:  41.523  -1.490  46.822   0.978  -1.873  29.159
 Approx polarizability:  56.161  -1.414  88.027   2.290  -7.205  41.620

                      1                      2                      3
                      A                      A                      A
 Frequencies --     67.2744               202.6623               281.9818
 Red. masses --      6.8416                 1.0707                 2.7411
 Frc consts  --      0.0182                 0.0259                 0.1284
 IR Inten    --      2.9622                 1.2934                30.7517

                      4                      5                      6
                      A                      A                      A
 Frequencies --    312.4053               401.8548               449.3582
 Red. masses --      1.6344                 3.2553                 2.3233
 Frc consts  --      0.0940                 0.3097                 0.2764
 IR Inten    --     82.9756                58.3697                 9.3154

                      7                      8                      9
                      A                      A                      A
 Frequencies --    506.7549               576.0327               732.7792
 Red. masses --      6.2152                 5.6520                 3.5544
 Frc consts  --      0.9404                 1.1050                 1.1245
 IR Inten    --      2.9737                20.7347                 4.2327

                     10                     11                     12
                      A                      A                      A
 Frequencies --    854.2505               931.9162              1046.5143
 Red. masses --      8.9854                 2.1623                 1.6175
 Frc consts  --      3.8633                 1.1064                 1.0437
 IR Inten    --     21.4604                 1.2976                32.3808

                     13                     14                     15
                      A                      A                      A
 Frequencies --   1127.5539              1218.5024              1296.1608
 Red. masses --      1.9561                 2.5601                 1.1780
 Frc consts  --      1.4653                 2.2395                 1.1661
 IR Inten    --     21.0797                75.0572                85.8478

                     16                     17                     18
                      A                      A                      A
 Frequencies --   1360.4294              1406.5492              1424.3864
 Red. masses --      1.2611                 1.4277                 3.6405
 Frc consts  --      1.3752                 1.6642                 4.3517
 IR Inten    --     84.0572                23.2607                35.8641

                     19                     20                     21
                      A                      A                      A
 Frequencies --   1456.2944              1500.2870              1505.2931
 Red. masses --      1.8329                 1.0716                 1.0571
 Frc consts  --      2.2903                 1.4212                 1.4112
 IR Inten    --     66.4297                 8.6162                 1.1861

                     22                     23                     24
                      A                      A                      A
 Frequencies --   1677.4763              3003.5496              3075.6014
 Red. masses --     12.7586                 1.0837                 1.0354
 Frc consts  --     21.1526                 5.7602                 5.7706
 IR Inten    --    218.6435                33.2390                 5.5366

                     25                     26                     27
                      A                      A                      A
 Frequencies --   3152.4983              3178.1724              3730.3886
 Red. masses --      1.1037                 1.1035                 1.0640
 Frc consts  --      6.4627                 6.5672                 8.7237
 IR Inten    --      9.0073                 4.3406                68.8217

 - Thermochemistry -
 -------------------
 Temperature   298.150 Kelvin.  Pressure   1.00000 Atm.
 Atom     1 has atomic number  6 and mass  12.00000

 Molecular mass:    91.02694 amu.
 Principal axes and moments of inertia in atomic units:
                           1         2         3
     Eigenvalues --   338.79046 500.59679 785.24292
           X            0.99288  -0.11897  -0.00627
           Y            0.11905   0.99278   0.01446
           Z            0.00450  -0.01511   0.99988
 This molecule is an asymmetric top.
 Rotational symmetry number  1.
 Rotational temperatures (Kelvin)      0.25566     0.17302     0.11030
 Rotational constants (GHZ):           5.32701     3.60518     2.29832
 Zero-point vibrational energy     218180.5 (Joules/Mol)
                                   52.14639 (Kcal/Mol)
 Warning -- explicit consideration of   8 degrees of freedom as
           vibrations may cause significant error
 Vibrational temperatures:     96.79   291.59   405.71   449.48   578.18
          (Kelvin)            646.53   729.11   828.78  1054.30  1229.07
                             1340.82  1505.70  1622.30  1753.15  1864.88
                             1957.35  2023.71  2049.37  2095.28  2158.58
                             2165.78  2413.51  4321.43  4425.10  4535.74
                             4572.68  5367.19

 Zero-point correction=                           0.083101 (Hartree/Particle)
 Thermal correction to Energy=                    0.089434
 Thermal correction to Enthalpy=                  0.090379
 Thermal correction to Gibbs Free Energy=         0.052946
 Sum of electronic and zero-point Energies=           -359.471056
 Sum of electronic and thermal Energies=              -359.464722
 Sum of electronic and thermal Enthalpies=            -359.463778
 Sum of electronic and thermal Free Energies=         -359.501211

                     E (Thermal)             CV                S
                      KCal/Mol        Cal/Mol-Kelvin    Cal/Mol-Kelvin
 Total                   56.121             21.589             78.785
 Electronic               0.000              0.000              0.000
 Translational            0.889              2.981             39.438
 Rotational               0.889              2.981             26.390
 Vibrational             54.344             15.628             12.956
 Vibration     1          0.598              1.970              4.232
 Vibration     2          0.639              1.836              2.109
 Vibration     3          0.681              1.707              1.522
 Vibration     4          0.701              1.650              1.350
 Vibration     5          0.767              1.466              0.956
 Vibration     6          0.808              1.362              0.798
 Vibration     7          0.862              1.235              0.641
 Vibration     8          0.932              1.083              0.493

 Optimization completed.
    -- Stationary point found.
 Normal termination of Gaussian 09 at Thu Sep  8 15:15:55 2022.
