 Gaussian 09, Revision E.01,
 Gaussian 09:  ES64L-G09RevE.01 30-Nov-2015

 ----------------------------
 #P OPT Freq B3LYP/6-31G(d,p)
 ----------------------------

 --------
 Frag_952
 --------
 Symbolic Z-matrix:
 Charge =  0 Multiplicity = 1

 SCF Done:  E(RB3LYP) =  -246.051678220     A.U. after   15 cycles
 SCF Done:  E(RB3LYP) =  -246.051812749     A.U. after   12 cycles
 SCF Done:  E(RB3LYP) =  -246.051815549     A.U. after    9 cycles
 Optimization completed.
    -- Stationary point found.
 Normal termination of Gaussian 09 at Thu Sep  8 15:07:47 2022.

 ----------------------------------------------------------------------
 #P Geom=AllCheck Guess=TCheck SCRF=Check GenChk RB3LYP/6-31G(d,p) Freq
 ----------------------------------------------------------------------

 Structure from the checkpoint file:  "B3LYP6-31Gdp.Frag_952.chk"
 --------
 Frag_952
 --------
 Charge =  0 Multiplicity = 1

                         Standard orientation:
 ---------------------------------------------------------------------
 Center     Atomic      Atomic             Coordinates (Angstroms)
 Number     Number       Type             X           Y           Z
 ---------------------------------------------------------------------
      1          6           0       -1.200782   -1.141006    0.000000
      2          6           0       -0.442077   -0.038526   -0.000001
      3          8           0       -0.990195    1.214707   -0.000001
      4          6           0        0.996148   -0.106477   -0.000001
      5          7           0        2.159636   -0.100148    0.000000
      6          1           0       -0.744002   -2.121065    0.000001
      7          1           0       -2.281095   -1.060136    0.000002
      8          1           0       -0.290530    1.880626    0.000006
 ---------------------------------------------------------------------

 SCF Done:  E(RB3LYP) =  -246.051815549     A.U. after    1 cycles

 The electronic state is 1-A.
 Alpha  occ. eigenvalues --  -19.20692 -14.35811 -10.30010 -10.24761 -10.20979
 Alpha  occ. eigenvalues --   -1.08880  -0.92168  -0.80304  -0.65978  -0.60527
 Alpha  occ. eigenvalues --   -0.48632  -0.43805  -0.43503  -0.41521  -0.37394
 Alpha  occ. eigenvalues --   -0.35505  -0.35261  -0.25960
 Alpha virt. eigenvalues --   -0.04550  -0.00128   0.05922   0.11408   0.13564
 Alpha virt. eigenvalues --    0.14418   0.18479   0.29482   0.31166   0.36071
 Alpha virt. eigenvalues --    0.50129   0.54910   0.55582   0.58331   0.59858

 Mulliken charges:
               1
     1  C   -0.262444
     2  C    0.371428
     3  O   -0.522897
     4  C    0.268433
     5  N   -0.455134
     6  H    0.133741
     7  H    0.131995
     8  H    0.334879
 Sum of Mulliken charges =   0.00000

 Dipole moment (field-independent basis, Debye):
    X=             -1.9417    Y=              0.4015    Z=              0.0000  Tot=              1.9828
 Quadrupole moment (field-independent basis, Debye-Ang):
   XX=            -35.8944   YY=            -23.0182   ZZ=            -29.3156
   XY=              2.8414   XZ=             -0.0000   YZ=              0.0000

  Exact polarizability:  55.086   8.453  41.062   0.000   0.000  16.657
 Approx polarizability:  96.450  18.053  64.802   0.000  -0.000  23.228

                      1                      2                      3
                      A                      A                      A
 Frequencies --    193.2116               194.2239               299.3192
 Red. masses --      1.1382                 5.7092                 5.5236
 Frc consts  --      0.0250                 0.1269                 0.2916
 IR Inten    --    116.6849                 9.8254                 8.3159

                      4                      5                      6
                      A                      A                      A
 Frequencies --    423.7072               612.5912               645.1334
 Red. masses --      2.8711                 7.0324                 6.4441
 Frc consts  --      0.3037                 1.5549                 1.5802
 IR Inten    --      2.4319                 2.1836                 6.4415

                      7                      8                      9
                      A                      A                      A
 Frequencies --    731.8098               803.3669               876.6737
 Red. masses --      1.0823                 4.7607                 1.3649
 Frc consts  --      0.3415                 1.8103                 0.6181
 IR Inten    --      2.9408                 9.7565                56.9876

                     10                     11                     12
                      A                      A                      A
 Frequencies --    984.2568              1236.2075              1342.0531
 Red. masses --      1.9109                 1.3926                 3.2133
 Frc consts  --      1.0907                 1.2539                 3.4099
 IR Inten    --     42.4445                29.6303               246.6237

                     13                     14                     15
                      A                      A                      A
 Frequencies --   1438.8421              1725.7632              2343.5641
 Red. masses --      1.1629                 5.2579                12.6866
 Frc consts  --      1.4185                 9.2263                41.0534
 IR Inten    --      3.6209                47.6198                13.2851

                     16                     17                     18
                      A                      A                      A
 Frequencies --   3197.5673              3300.1587              3835.1709
 Red. masses --      1.0601                 1.1190                 1.0671
 Frc consts  --      6.3862                 7.1803                 9.2475
 IR Inten    --      2.5600                 0.1151                85.9245

 - Thermochemistry -
 -------------------
 Temperature   298.150 Kelvin.  Pressure   1.00000 Atm.
 Atom     1 has atomic number  6 and mass  12.00000

 Molecular mass:    69.02146 amu.
 Principal axes and moments of inertia in atomic units:
                           1         2         3
     Eigenvalues --   173.38065 422.99853 596.37918
           X            0.99876   0.04983  -0.00000
           Y           -0.04983   0.99876   0.00000
           Z            0.00000  -0.00000   1.00000
 This molecule is an asymmetric top.
 Rotational symmetry number  1.
 Rotational temperatures (Kelvin)      0.49956     0.20476     0.14523
 Rotational constants (GHZ):          10.40913     4.26654     3.02616
 Zero-point vibrational energy     144650.2 (Joules/Mol)
                                   34.57222 (Kcal/Mol)
 Warning -- explicit consideration of   5 degrees of freedom as
           vibrations may cause significant error
 Vibrational temperatures:    277.99   279.44   430.65   609.62   881.38
          (Kelvin)            928.20  1052.91  1155.86  1261.34  1416.12
                             1778.62  1930.91  2070.17  2482.99  3371.86
                             4600.58  4748.19  5517.95

 Zero-point correction=                           0.055094 (Hartree/Particle)
 Thermal correction to Energy=                    0.060374
 Thermal correction to Enthalpy=                  0.061319
 Thermal correction to Gibbs Free Energy=         0.027017
 Sum of electronic and zero-point Energies=           -245.996721
 Sum of electronic and thermal Energies=              -245.991441
 Sum of electronic and thermal Enthalpies=            -245.990497
 Sum of electronic and thermal Free Energies=         -246.024799

                     E (Thermal)             CV                S
                      KCal/Mol        Cal/Mol-Kelvin    Cal/Mol-Kelvin
 Total                   37.886             17.478             72.194
 Electronic               0.000              0.000              0.000
 Translational            0.889              2.981             38.613
 Rotational               0.889              2.981             25.284
 Vibrational             36.108             11.516              8.297
 Vibration     1          0.635              1.849              2.197
 Vibration     2          0.635              1.848              2.187
 Vibration     3          0.692              1.675              1.421
 Vibration     4          0.786              1.419              0.879
 Vibration     5          0.972              1.005              0.429

 Optimization completed.
    -- Stationary point found.
 Normal termination of Gaussian 09 at Thu Sep  8 15:07:53 2022.
