 Gaussian 09, Revision E.01,
 Gaussian 09:  ES64L-G09RevE.01 30-Nov-2015

 ----------------------------
 #P OPT Freq B3LYP/6-31G(d,p)
 ----------------------------

 --------
 Frag_867
 --------
 Symbolic Z-matrix:
 Charge =  0 Multiplicity = 1

 SCF Done:  E(RB3LYP) =  -287.760132295     A.U. after   15 cycles
 SCF Done:  E(RB3LYP) =  -287.760209097     A.U. after    9 cycles
 SCF Done:  E(RB3LYP) =  -287.760213398     A.U. after    8 cycles
 Optimization completed.
    -- Stationary point found.
 Normal termination of Gaussian 09 at Thu Sep  8 15:18:18 2022.

 ----------------------------------------------------------------------
 #P Geom=AllCheck Guess=TCheck SCRF=Check GenChk RB3LYP/6-31G(d,p) Freq
 ----------------------------------------------------------------------

 Structure from the checkpoint file:  "B3LYP6-31Gdp.Frag_867.chk"
 --------
 Frag_867
 --------
 Charge =  0 Multiplicity = 1

                         Standard orientation:
 ---------------------------------------------------------------------
 Center     Atomic      Atomic             Coordinates (Angstroms)
 Number     Number       Type             X           Y           Z
 ---------------------------------------------------------------------
      1          6           0        1.830016   -0.000359   -0.765047
      2          7           0        0.814089   -0.000037    0.057047
      3          8           0        0.900908    0.000588    1.323041
      4          6           0       -0.592873   -0.000177   -0.494046
      5          6           0       -1.291830    1.273323   -0.021803
      6          6           0       -1.291904   -1.273324   -0.020968
      7          1           0        1.652730   -0.000784   -1.829815
      8          1           0        2.822354   -0.000152   -0.337064
      9          1           0       -0.500448   -0.000539   -1.584305
     10          1           0       -1.293074    1.307939    1.069519
     11          1           0       -0.783033    2.165318   -0.399143
     12          1           0       -2.324239    1.286052   -0.382578
     13          1           0       -0.783151   -2.165597   -0.397709
     14          1           0       -1.293165   -1.307219    1.070377
     15          1           0       -2.324308   -1.286232   -0.381752
 ---------------------------------------------------------------------

 SCF Done:  E(RB3LYP) =  -287.760213398     A.U. after    1 cycles

 The electronic state is 1-A.
 Alpha  occ. eigenvalues --  -19.11526 -14.46990 -10.23989 -10.21612 -10.18518
 Alpha  occ. eigenvalues --  -10.18517  -1.09685  -0.85734  -0.79654  -0.69799
 Alpha  occ. eigenvalues --   -0.64925  -0.56479  -0.51716  -0.48179  -0.46348
 Alpha  occ. eigenvalues --   -0.44663  -0.42470  -0.39954  -0.38388  -0.37763
 Alpha  occ. eigenvalues --   -0.35126  -0.35125  -0.23931  -0.21810
 Alpha virt. eigenvalues --   -0.01520   0.08112   0.11512   0.12471   0.14896
 Alpha virt. eigenvalues --    0.15085   0.15619   0.17711   0.18704   0.18714
 Alpha virt. eigenvalues --    0.19169   0.21771   0.25152   0.28335   0.31792

 Mulliken charges:
               1
     1  C   -0.108525
     2  N    0.122924
     3  O   -0.495279
     4  C    0.022369
     5  C   -0.308609
     6  C   -0.308612
     7  H    0.113420
     8  H    0.132022
     9  H    0.097440
    10  H    0.146306
    11  H    0.111954
    12  H    0.108168
    13  H    0.111953
    14  H    0.146299
    15  H    0.108173
 Sum of Mulliken charges =  -0.00000

 Dipole moment (field-independent basis, Debye):
    X=             -1.1089    Y=             -0.0013    Z=             -3.0705  Tot=              3.2646
 Quadrupole moment (field-independent basis, Debye-Ang):
   XX=            -34.8755   YY=            -37.4077   ZZ=            -39.5046
   XY=             -0.0013   XZ=             -3.0389   YZ=             -0.0010

  Exact polarizability:  63.909  -0.003  43.563  -6.668   0.007  57.045
 Approx polarizability:  85.840  -0.008  56.130 -18.782   0.024 109.706

                      1                      2                      3
                      A                      A                      A
 Frequencies --     79.4686               204.5432               241.1211
 Red. masses --      3.5798                 1.0407                 1.0482
 Frc consts  --      0.0133                 0.0257                 0.0359
 IR Inten    --      4.6549                 0.0056                 2.1035

                      4                      5                      6
                      A                      A                      A
 Frequencies --    267.4832               315.8120               341.2467
 Red. masses --      2.7253                 3.2626                 2.4036
 Frc consts  --      0.1149                 0.1917                 0.1649
 IR Inten    --      2.7846                 7.9332                 1.1397

                      7                      8                      9
                      A                      A                      A
 Frequencies --    506.3075               609.1903               630.3821
 Red. masses --      2.6521                 2.8246                 1.5116
 Frc consts  --      0.4006                 0.6176                 0.3539
 IR Inten    --      7.1450                 4.1821                 0.0834

                     10                     11                     12
                      A                      A                      A
 Frequencies --    703.7088               752.0807               790.0831
 Red. masses --      1.5805                 2.7448                 1.6735
 Frc consts  --      0.4611                 0.9147                 0.6155
 IR Inten    --     25.2286                 2.2671                37.2753

                     13                     14                     15
                      A                      A                      A
 Frequencies --    913.5712               943.1208               965.9433
 Red. masses --      2.3622                 1.1446                 1.5313
 Frc consts  --      1.1616                 0.5998                 0.8418
 IR Inten    --      0.0890                 1.9643                 0.0315

                     16                     17                     18
                      A                      A                      A
 Frequencies --   1094.7381              1129.4107              1148.6376
 Red. masses --      1.6311                 1.8186                 2.0580
 Frc consts  --      1.1517                 1.3668                 1.5998
 IR Inten    --     16.6337                36.4063                 2.7175

                     19                     20                     21
                      A                      A                      A
 Frequencies --   1211.2302              1339.1406              1351.1786
 Red. masses --      1.9430                 1.7964                 1.7338
 Frc consts  --      1.6794                 1.8980                 1.8650
 IR Inten    --      4.0079                60.4946                 6.6516

                     22                     23                     24
                      A                      A                      A
 Frequencies --   1357.2848              1406.8210              1425.2782
 Red. masses --      1.3983                 1.3014                 1.2386
 Frc consts  --      1.5177                 1.5175                 1.4825
 IR Inten    --      3.0406                10.6119                 7.8959

                     25                     26                     27
                      A                      A                      A
 Frequencies --   1489.2126              1491.9056              1507.7688
 Red. masses --      1.4059                 1.0428                 1.0469
 Frc consts  --      1.8371                 1.3676                 1.4022
 IR Inten    --      7.3382                 0.4914                 0.5725

                     28                     29                     30
                      A                      A                      A
 Frequencies --   1508.3776              1530.5038              1651.4614
 Red. masses --      1.0535                 1.0540                 6.0520
 Frc consts  --      1.4122                 1.4546                 9.7249
 IR Inten    --     10.9038                 7.8956               117.8011

                     31                     32                     33
                      A                      A                      A
 Frequencies --   3057.2840              3060.8173              3081.7192
 Red. masses --      1.0352                 1.0368                 1.0850
 Frc consts  --      5.7009                 5.7231                 6.0710
 IR Inten    --     22.4602                 9.7096                16.0601

                     34                     35                     36
                      A                      A                      A
 Frequencies --   3128.8788              3132.0552              3154.0448
 Red. masses --      1.1034                 1.1029                 1.1027
 Frc consts  --      6.3646                 6.3746                 6.4630
 IR Inten    --     15.0406                28.9713                 1.8775

                     37                     38                     39
                      A                      A                      A
 Frequencies --   3158.8118              3203.2201              3329.9182
 Red. masses --      1.1019                 1.0514                 1.1252
 Frc consts  --      6.4780                 6.3561                 7.3512
 IR Inten    --     14.6239                 0.8192                 1.1269

 - Thermochemistry -
 -------------------
 Temperature   298.150 Kelvin.  Pressure   1.00000 Atm.
 Atom     1 has atomic number  6 and mass  12.00000

 Molecular mass:    87.06841 amu.
 Principal axes and moments of inertia in atomic units:
                           1         2         3
     Eigenvalues --   363.71131 642.15626 672.29598
           X            0.99925  -0.00003  -0.03871
           Y            0.00002   1.00000  -0.00022
           Z            0.03871   0.00022   0.99925
 This molecule is an asymmetric top.
 Rotational symmetry number  1.
 Rotational temperatures (Kelvin)      0.23814     0.13488     0.12883
 Rotational constants (GHZ):           4.96202     2.81044     2.68444
 Zero-point vibrational energy     342214.3 (Joules/Mol)
                                   81.79118 (Kcal/Mol)
 Warning -- explicit consideration of   8 degrees of freedom as
           vibrations may cause significant error
 Vibrational temperatures:    114.34   294.29   346.92   384.85   454.38
          (Kelvin)            490.98   728.46   876.49   906.98  1012.48
                             1082.07  1136.75  1314.42  1356.94  1389.78
                             1575.08  1624.97  1652.63  1742.69  1926.72
                             1944.04  1952.83  2024.10  2050.65  2142.64
                             2146.52  2169.34  2170.22  2202.05  2376.08
                             4398.74  4403.83  4433.90  4501.75  4506.32
                             4537.96  4544.82  4608.71  4791.00

 Zero-point correction=                           0.130343 (Hartree/Particle)
 Thermal correction to Energy=                    0.137333
 Thermal correction to Enthalpy=                  0.138277
 Thermal correction to Gibbs Free Energy=         0.099898
 Sum of electronic and zero-point Energies=           -287.629871
 Sum of electronic and thermal Energies=              -287.622881
 Sum of electronic and thermal Enthalpies=            -287.621937
 Sum of electronic and thermal Free Energies=         -287.660316

                     E (Thermal)             CV                S
                      KCal/Mol        Cal/Mol-Kelvin    Cal/Mol-Kelvin
 Total                   86.177             25.254             80.775
 Electronic               0.000              0.000              0.000
 Translational            0.889              2.981             39.305
 Rotational               0.889              2.981             26.554
 Vibrational             84.400             19.292             14.916
 Vibration     1          0.600              1.963              3.904
 Vibration     2          0.640              1.833              2.092
 Vibration     3          0.658              1.777              1.795
 Vibration     4          0.673              1.733              1.612
 Vibration     5          0.703              1.643              1.332
 Vibration     6          0.721              1.593              1.206
 Vibration     7          0.862              1.236              0.643
 Vibration     8          0.968              1.012              0.434

 Optimization completed.
    -- Stationary point found.
 Normal termination of Gaussian 09 at Thu Sep  8 15:18:30 2022.
