 Gaussian 09, Revision D.01,
 Gaussian 09:  ES64L-G09RevD.01 24-Apr-2013

 -------------------------
 #P OPT Freq B3LYP/6-31G**
 -------------------------

 -------
 Frag_63
 -------
 Symbolic Z-matrix:
 Charge =  0 Multiplicity = 1

 SCF Done:  E(RB3LYP) =  -190.538047045     A.U. after   12 cycles
 Optimization completed.
    -- Stationary point found.

 1\1\GINC-FN16\FOpt\RB3LYP\6-31G(d,p)\C2H8N2\LIUJ201281\23-Jul-2021\0\\
 #P OPT Freq B3LYP/6-31G**\\Frag_63\\0,1\C,-1.4293,-0.0516,-0.1071\C,0.
 0302,0.0003,0.3622\N,0.666,1.1931,-0.1947\N,0.8556,-1.1306,-0.0626\H,-
 1.4698,-0.0484,-1.2014\H,-1.9217,-0.9568,0.2636\H,-2.0027,0.8099,0.256
 9\H,0.0348,-0.0225,1.468\H,1.6236,1.2404,0.1453\H,0.186,2.0315,0.1225\
 H,0.8281,-1.1844,-1.0802\H,0.4657,-1.9992,0.2964\\Version=ES64L-G09Rev
 D.01\State=1-A\HF=-190.538047\RMSD=3.610e-09\RMSF=3.913e-05\Dipole=-0.
 4227837,-0.0141309,0.3018088\Quadrupole=-1.7461459,2.3476705,-0.601524

 Normal termination of Gaussian 09 at Fri Jul 23 04:27:21 2021.

 ----------------------------------------------------------------------
 #P Geom=AllCheck Guess=TCheck SCRF=Check GenChk RB3LYP/6-31G(d,p) Freq
 ----------------------------------------------------------------------

 Structure from the checkpoint file:  "/vol2/users/liuj201281/HOFBenchmark/IsodesmicSplit/Sample60/Ring26/Running/Gau-169168.chk"
 -------
 Frag_63
 -------
 Charge =  0 Multiplicity = 1

                         Standard orientation:
 ---------------------------------------------------------------------
 Center     Atomic      Atomic             Coordinates (Angstroms)
 Number     Number       Type             X           Y           Z
 ---------------------------------------------------------------------
      1          6           0       -1.429326   -0.051362   -0.107118
      2          6           0        0.030182    0.000289    0.362182
      3          7           0        0.666186    1.192981   -0.194718
      4          7           0        0.855390   -1.130752   -0.062618
      5          1           0       -1.469826   -0.048155   -1.201418
      6          1           0       -1.921881   -0.956478    0.263582
      7          1           0       -2.002580    0.810236    0.256882
      8          1           0        0.034779   -0.022512    1.467982
      9          1           0        1.623794    1.240117    0.145282
     10          1           0        0.186329    2.031462    0.122482
     11          1           0        0.827880   -1.184547   -1.080218
     12          1           0        0.465342   -1.999285    0.296382
 ---------------------------------------------------------------------

 SCF Done:  E(RB3LYP) =  -190.538047045     A.U. after    1 cycles

 The electronic state is 1-A.
 Alpha  occ. eigenvalues --  -14.30560 -14.30526 -10.23347 -10.17094  -0.90892
 Alpha  occ. eigenvalues --   -0.82702  -0.71319  -0.58677  -0.50393  -0.48159
 Alpha  occ. eigenvalues --   -0.42259  -0.41254  -0.38587  -0.36458  -0.35608
 Alpha  occ. eigenvalues --   -0.23897  -0.22860
 Alpha virt. eigenvalues --    0.07596   0.11812   0.14386   0.15047   0.15210
 Alpha virt. eigenvalues --    0.16939   0.18438   0.20178   0.24010   0.25198
 Alpha virt. eigenvalues --    0.28280   0.54087   0.55671   0.55942   0.58289

 Mulliken charges:
               1
     1  C   -0.308203
     2  C    0.168693
     3  N   -0.590949
     4  N   -0.584992
     5  H    0.110368
     6  H    0.092674
     7  H    0.092903
     8  H    0.073088
     9  H    0.244840
    10  H    0.232020
    11  H    0.238861
    12  H    0.230697
 Sum of Mulliken charges =   0.00000

 Dipole moment (field-independent basis, Debye):
    X=             -1.0746    Y=             -0.0357    Z=              0.7671  Tot=              1.3208
 Quadrupole moment (field-independent basis, Debye-Ang):
   XX=            -28.1683   YY=            -22.6629   ZZ=            -26.6292
   XY=              1.4916   XZ=              0.0977   YZ=              2.4211

  Exact polarizability:  38.010  -0.235  40.954  -1.244  -0.055  33.374
 Approx polarizability:  48.160  -1.085  53.434  -2.533  -0.964  46.742

                      1                      2                      3
                      A                      A                      A
 Frequencies --    252.3331               276.9991               322.3522
 Red. masses --      1.0541                 1.0516                 1.1270
 Frc consts  --      0.0395                 0.0475                 0.0690
 IR Inten    --      5.7467                55.9555                25.0536

                      4                      5                      6
                      A                      A                      A
 Frequencies --    387.0220               445.2313               517.7850
 Red. masses --      2.2379                 2.4091                 2.2872
 Frc consts  --      0.1975                 0.2814                 0.3613
 IR Inten    --     11.5464                 5.6501                 3.8932

                      7                      8                      9
                      A                      A                      A
 Frequencies --    838.9114               862.0666               904.0622
 Red. masses --      2.7118                 1.4168                 1.2050
 Frc consts  --      1.1244                 0.6204                 0.5803
 IR Inten    --     20.3402               148.9086               164.1606

                     10                     11                     12
                      A                      A                      A
 Frequencies --    980.9268              1018.3947              1035.0960
 Red. masses --      1.5664                 2.0092                 1.4271
 Frc consts  --      0.8880                 1.2277                 0.9009
 IR Inten    --      6.4971                18.0643                12.9722

                     13                     14                     15
                      A                      A                      A
 Frequencies --   1184.9477              1234.3312              1308.2588
 Red. masses --      1.8415                 1.4595                 1.4340
 Frc consts  --      1.5234                 1.3101                 1.4461
 IR Inten    --     23.9613                 8.7212                 8.8553

                     16                     17                     18
                      A                      A                      A
 Frequencies --   1395.9673              1422.0982              1431.3725
 Red. masses --      1.3335                 1.3761                 1.3183
 Frc consts  --      1.5311                 1.6397                 1.5914
 IR Inten    --     15.6991                28.2286                22.1322

                     19                     20                     21
                      A                      A                      A
 Frequencies --   1502.3359              1511.5968              1646.5397
 Red. masses --      1.0584                 1.0606                 1.1059
 Frc consts  --      1.4075                 1.4279                 1.7665
 IR Inten    --      1.4113                 1.7594                45.1786

                     22                     23                     24
                      A                      A                      A
 Frequencies --   1649.2244              2933.3150              3032.4347
 Red. masses --      1.1056                 1.0831                 1.0363
 Frc consts  --      1.7718                 5.4908                 5.6148
 IR Inten    --     23.2275                93.7326                21.4854

                     25                     26                     27
                      A                      A                      A
 Frequencies --   3100.8512              3121.2155              3475.0308
 Red. masses --      1.1002                 1.1035                 1.0494
 Frc consts  --      6.2328                 6.3338                 7.4664
 IR Inten    --     37.7025                31.8933                 0.9950

                     28                     29                     30
                      A                      A                      A
 Frequencies --   3494.8827              3571.3782              3587.6629
 Red. masses --      1.0492                 1.0921                 1.0931
 Frc consts  --      7.5505                 8.2067                 8.2899
 IR Inten    --      1.0233                 0.0810                 0.0454

 - Thermochemistry -
 -------------------
 Temperature   298.150 Kelvin.  Pressure   1.00000 Atm.
 Atom     1 has atomic number  6 and mass  12.00000

 Molecular mass:    60.06875 amu.
 Principal axes and moments of inertia in atomic units:
                           1         2         3
     Eigenvalues --   206.46542 221.14071 375.24682
           X            0.98215   0.18797   0.00651
           Y           -0.18808   0.98183   0.02525
           Z           -0.00164  -0.02602   0.99966
 This molecule is an asymmetric top.
 Rotational symmetry number  1.
 Rotational temperatures (Kelvin)      0.41951     0.39167     0.23082
 Rotational constants (GHZ):           8.74113     8.16105     4.80948
 Zero-point vibrational energy     289763.2 (Joules/Mol)
                                   69.25507 (Kcal/Mol)
 Warning -- explicit consideration of   6 degrees of freedom as
           vibrations may cause significant error
 Vibrational temperatures:    363.05   398.54   463.79   556.84   640.59
          (Kelvin)            744.98  1207.00  1240.32  1300.74  1411.33
                             1465.24  1489.27  1704.87  1775.93  1882.29
                             2008.48  2046.08  2059.42  2161.52  2174.85
                             2369.00  2372.86  4220.38  4362.99  4461.43
                             4490.73  4999.79  5028.35  5138.41  5161.84

 Zero-point correction=                           0.110365 (Hartree/Particle)
 Thermal correction to Energy=                    0.115693
 Thermal correction to Enthalpy=                  0.116637
 Thermal correction to Gibbs Free Energy=         0.083144
 Sum of electronic and zero-point Energies=           -190.427682
 Sum of electronic and thermal Energies=              -190.422354
 Sum of electronic and thermal Enthalpies=            -190.421410
 Sum of electronic and thermal Free Energies=         -190.454903

                     E (Thermal)             CV                S
                      KCal/Mol        Cal/Mol-Kelvin    Cal/Mol-Kelvin
 Total                   72.599             18.959             70.492
 Electronic               0.000              0.000              0.000
 Translational            0.889              2.981             38.199
 Rotational               0.889              2.981             24.353
 Vibrational             70.821             12.997              7.940
 Vibration     1          0.664              1.759              1.714
 Vibration     2          0.678              1.716              1.552
 Vibration     3          0.707              1.631              1.298
 Vibration     4          0.755              1.498              1.012
 Vibration     5          0.805              1.371              0.810
 Vibration     6          0.873              1.211              0.615

 Optimization completed.
    -- Stationary point found.

 1\1\GINC-FN16\Freq\RB3LYP\6-31G(d,p)\C2H8N2\LIUJ201281\23-Jul-2021\0\\
 #P Geom=AllCheck Guess=TCheck SCRF=Check GenChk RB3LYP/6-31G(d,p) Freq
 \\Frag_63\\0,1\C,-1.4293,-0.0516,-0.1071\C,0.0302,0.0003,0.3622\N,0.66
 6,1.1931,-0.1947\N,0.8556,-1.1306,-0.0626\H,-1.4698,-0.0484,-1.2014\H,
 -1.9217,-0.9568,0.2636\H,-2.0027,0.8099,0.2569\H,0.0348,-0.0225,1.468\
 H,1.6236,1.2404,0.1453\H,0.186,2.0315,0.1225\H,0.8281,-1.1844,-1.0802\
 H,0.4657,-1.9992,0.2964\\Version=ES64L-G09RevD.01\State=1-A\HF=-190.53
 8047\RMSD=1.330e-09\RMSF=3.913e-05\ZeroPoint=0.110365\Thermal=0.115693

 Normal termination of Gaussian 09 at Fri Jul 23 04:27:37 2021.
