 Gaussian 09, Revision E.01,
 Gaussian 09:  ES64L-G09RevE.01 30-Nov-2015

 --------------------------------
 #P OPT=calcfc Freq B3LYP/6-31G**
 --------------------------------

 --------
 Frag_168
 --------
 Symbolic Z-matrix:
 Charge =  0 Multiplicity = 1

 SCF Done:  E(RB3LYP) =  -173.260025800     A.U. after   13 cycles
 SCF Done:  E(RB3LYP) =  -173.262134981     A.U. after   12 cycles
 SCF Done:  E(RB3LYP) =  -173.268975849     A.U. after   13 cycles
 SCF Done:  E(RB3LYP) =  -173.242465598     A.U. after   13 cycles
 SCF Done:  E(RB3LYP) =  -173.269019077     A.U. after    8 cycles
 SCF Done:  E(RB3LYP) =  -173.272474174     A.U. after   12 cycles
 SCF Done:  E(RB3LYP) =  -173.272350236     A.U. after   12 cycles
 SCF Done:  E(RB3LYP) =  -173.272822415     A.U. after   10 cycles
 SCF Done:  E(RB3LYP) =  -173.273776478     A.U. after   11 cycles
 SCF Done:  E(RB3LYP) =  -173.274084132     A.U. after   11 cycles
 SCF Done:  E(RB3LYP) =  -173.274124263     A.U. after    9 cycles
 SCF Done:  E(RB3LYP) =  -173.274125872     A.U. after    8 cycles
 SCF Done:  E(RB3LYP) =  -173.274126039     A.U. after    7 cycles
 Optimization completed.
    -- Stationary point found.
 Normal termination of Gaussian 09 at Sat Aug 21 02:19:25 2021.

 ----------------------------------------------------------------------
 #P Geom=AllCheck Guess=TCheck SCRF=Check GenChk RB3LYP/6-31G(d,p) Freq
 ----------------------------------------------------------------------

 Structure from the checkpoint file:  "/public/home/users/caep010/.cache/gau_scr/Gau-148855.chk"
 --------
 Frag_168
 --------
 Charge =  0 Multiplicity = 1

                         Standard orientation:
 ---------------------------------------------------------------------
 Center     Atomic      Atomic             Coordinates (Angstroms)
 Number     Number       Type             X           Y           Z
 ---------------------------------------------------------------------
      1          6           0       -1.921109   -0.097311   -0.000867
      2          6           0       -0.510741    0.418291    0.022828
      3          6           0        0.575588   -0.365205   -0.000434
      4          7           0        1.908740    0.055681   -0.096558
      5          1           0       -2.466494    0.237583   -0.893618
      6          1           0       -2.498244    0.250811    0.866107
      7          1           0       -1.944256   -1.192247    0.004785
      8          1           0       -0.379707    1.501242    0.039149
      9          1           0        0.463447   -1.448676   -0.017662
     10          1           0        2.043363    1.037998    0.113225
     11          1           0        2.558276   -0.511122    0.434760
 ---------------------------------------------------------------------

 SCF Done:  E(RB3LYP) =  -173.274126039     A.U. after    1 cycles

 The electronic state is 1-A.
 Alpha  occ. eigenvalues --  -14.33108 -10.20360 -10.17137 -10.16096  -0.89613
 Alpha  occ. eigenvalues --   -0.75600  -0.65724  -0.56114  -0.49506  -0.46786
 Alpha  occ. eigenvalues --   -0.39659  -0.39294  -0.37276  -0.34254  -0.31930
 Alpha  occ. eigenvalues --   -0.19159
 Alpha virt. eigenvalues --    0.05526   0.08887   0.11528   0.12884   0.17291
 Alpha virt. eigenvalues --    0.18078   0.18546   0.19133   0.26100   0.33554
 Alpha virt. eigenvalues --    0.41880   0.51081   0.54328   0.55447   0.60073

 Mulliken charges:
               1
     1  C   -0.345034
     2  C   -0.088446
     3  C    0.080301
     4  N   -0.602219
     5  H    0.107297
     6  H    0.104234
     7  H    0.100238
     8  H    0.056845
     9  H    0.083794
    10  H    0.249900
    11  H    0.253088
 Sum of Mulliken charges =  -0.00000

 Dipole moment (field-independent basis, Debye):
    X=              0.8499    Y=              0.0584    Z=              1.1238  Tot=              1.4102
 Quadrupole moment (field-independent basis, Debye-Ang):
   XX=            -22.6795   YY=            -23.0627   ZZ=            -27.9238
   XY=              0.2770   XZ=              3.0871   YZ=             -0.1685

  Exact polarizability:  59.742  -4.566  38.849   0.687  -0.159  23.467
 Approx polarizability:  81.512 -12.145  56.233  -0.518  -0.013  32.128

                      1                      2                      3
                      A                      A                      A
 Frequencies --    202.6193               247.1290               290.3333
 Red. masses --      1.2704                 1.6864                 2.3926
 Frc consts  --      0.0307                 0.0607                 0.1188
 IR Inten    --      1.8137                14.2962                12.0086

                      4                      5                      6
                      A                      A                      A
 Frequencies --    368.4380               528.0116               688.2453
 Red. masses --      1.2903                 3.0879                 1.2596
 Frc consts  --      0.1032                 0.5072                 0.3515
 IR Inten    --     51.1952                 2.2727               273.5262

                      7                      8                      9
                      A                      A                      A
 Frequencies --    802.3185               925.4325               978.1970
 Red. masses --      1.7512                 1.6278                 1.0990
 Frc consts  --      0.6642                 0.8214                 0.6196
 IR Inten    --     47.4998                 4.4564                33.9079

                     10                     11                     12
                      A                      A                      A
 Frequencies --   1065.7125              1072.3069              1140.3082
 Red. masses --      1.4186                 1.3302                 2.3792
 Frc consts  --      0.9493                 0.9012                 1.8228
 IR Inten    --      0.7501                 2.0657                15.4505

                     13                     14                     15
                      A                      A                      A
 Frequencies --   1247.1214              1340.0844              1376.5954
 Red. masses --      2.1701                 1.3150                 1.2806
 Frc consts  --      1.9886                 1.3914                 1.4298
 IR Inten    --     59.8113                 2.0117                 1.1097

                     16                     17                     18
                      A                      A                      A
 Frequencies --   1434.0876              1492.6388              1515.2341
 Red. masses --      1.2877                 1.0447                 1.0495
 Frc consts  --      1.5604                 1.3714                 1.4197
 IR Inten    --      3.0422                 4.2092                 4.7811

                     19                     20                     21
                      A                      A                      A
 Frequencies --   1657.8531              1764.2546              3015.0515
 Red. masses --      1.1362                 4.9448                 1.0377
 Frc consts  --      1.8400                 9.0683                 5.5578
 IR Inten    --     30.3435                81.6984                59.2033

                     22                     23                     24
                      A                      A                      A
 Frequencies --   3058.2112              3100.8845              3133.9592
 Red. masses --      1.1006                 1.0982                 1.0898
 Frc consts  --      6.0646                 6.2218                 6.3066
 IR Inten    --     38.8313                19.6949                33.5327

                     25                     26                     27
                      A                      A                      A
 Frequencies --   3158.9249              3538.2331              3641.5448
 Red. masses --      1.0891                 1.0477                 1.0970
 Frc consts  --      6.4033                 7.7278                 8.5712
 IR Inten    --     26.6423                 3.4673                 3.9130

 - Thermochemistry -
 -------------------
 Temperature   298.150 Kelvin.  Pressure   1.00000 Atm.
 Atom     1 has atomic number  6 and mass  12.00000

 Molecular mass:    57.05785 amu.
 Principal axes and moments of inertia in atomic units:
                           1         2         3
     Eigenvalues --    46.51535 470.03657 503.09541
           X            0.99993   0.00572   0.01032
           Y           -0.00571   0.99998  -0.00163
           Z           -0.01033   0.00157   0.99995
 This molecule is an asymmetric top.
 Rotational symmetry number  1.
 Rotational temperatures (Kelvin)      1.86205     0.18427     0.17216
 Rotational constants (GHZ):          38.79883     3.83958     3.58727
 Zero-point vibrational energy     255903.5 (Joules/Mol)
                                   61.16241 (Kcal/Mol)
 Warning -- explicit consideration of   5 degrees of freedom as
           vibrations may cause significant error
 Vibrational temperatures:    291.52   355.56   417.72   530.10   759.69
          (Kelvin)            990.23  1154.36  1331.49  1407.41  1533.32
                             1542.81  1640.65  1794.33  1928.08  1980.61
                             2063.33  2147.57  2180.08  2385.28  2538.37
                             4337.98  4400.08  4461.48  4509.06  4544.98
                             5090.72  5239.36

 Zero-point correction=                           0.097469 (Hartree/Particle)
 Thermal correction to Energy=                    0.102740
 Thermal correction to Enthalpy=                  0.103684
 Thermal correction to Gibbs Free Energy=         0.070405
 Sum of electronic and zero-point Energies=           -173.176658
 Sum of electronic and thermal Energies=              -173.171386
 Sum of electronic and thermal Enthalpies=            -173.170442
 Sum of electronic and thermal Free Energies=         -173.203721

                     E (Thermal)             CV                S
                      KCal/Mol        Cal/Mol-Kelvin    Cal/Mol-Kelvin
 Total                   64.470             17.946             70.042
 Electronic               0.000              0.000              0.000
 Translational            0.889              2.981             38.046
 Rotational               0.889              2.981             23.913
 Vibrational             62.693             11.984              8.084
 Vibration     1          0.639              1.836              2.109
 Vibration     2          0.661              1.768              1.751
 Vibration     3          0.686              1.692              1.472
 Vibration     4          0.741              1.537              1.086
 Vibration     5          0.883              1.188              0.592

 Optimization completed.
    -- Stationary point found.
 Normal termination of Gaussian 09 at Sat Aug 21 02:19:34 2021.
