 Gaussian 09, Revision E.01,
 Gaussian 09:  ES64L-G09RevE.01 30-Nov-2015

 ----------------------------
 #P OPT Freq B3LYP/6-31G(d,p)
 ----------------------------

 --------
 Frag_823
 --------
 Symbolic Z-matrix:
 Charge =  0 Multiplicity = 1

 SCF Done:  E(RB3LYP) =  -190.500441388     A.U. after   12 cycles
 SCF Done:  E(RB3LYP) =  -190.500464074     A.U. after    8 cycles
 SCF Done:  E(RB3LYP) =  -190.500466349     A.U. after    7 cycles
 SCF Done:  E(RB3LYP) =  -190.500466629     A.U. after    7 cycles
 Optimization completed.
    -- Stationary point found.
 Normal termination of Gaussian 09 at Thu Sep  8 15:22:23 2022.

 ----------------------------------------------------------------------
 #P Geom=AllCheck Guess=TCheck SCRF=Check GenChk RB3LYP/6-31G(d,p) Freq
 ----------------------------------------------------------------------

 Structure from the checkpoint file:  "B3LYP6-31Gdp.Frag_823.chk"
 --------
 Frag_823
 --------
 Charge =  0 Multiplicity = 1

                         Standard orientation:
 ---------------------------------------------------------------------
 Center     Atomic      Atomic             Coordinates (Angstroms)
 Number     Number       Type             X           Y           Z
 ---------------------------------------------------------------------
      1          6           0       -1.556795   -0.527387   -0.094405
      2          6           0       -0.620120    0.622543    0.262036
      3          7           0        0.673565    0.493496   -0.414717
      4          7           0        1.433220   -0.577433    0.154826
      5          1           0       -2.515086   -0.422283    0.425205
      6          1           0       -1.742993   -0.548536   -1.172449
      7          1           0       -1.106858   -1.480289    0.194270
      8          1           0       -1.049058    1.576979   -0.068856
      9          1           0       -0.511227    0.683941    1.360775
     10          1           0        1.174423    1.379260   -0.334159
     11          1           0        1.980443   -0.266756    0.960750
     12          1           0        2.084351   -0.905691   -0.552081
 ---------------------------------------------------------------------

 SCF Done:  E(RB3LYP) =  -190.500466629     A.U. after    1 cycles

 The electronic state is 1-A.
 Alpha  occ. eigenvalues --  -14.33723 -14.33501 -10.19894 -10.15809  -0.94962
 Alpha  occ. eigenvalues --   -0.78435  -0.70107  -0.58432  -0.50552  -0.48444
 Alpha  occ. eigenvalues --   -0.44889  -0.40992  -0.36045  -0.35512  -0.33234
 Alpha  occ. eigenvalues --   -0.24470  -0.22445
 Alpha virt. eigenvalues --    0.07476   0.11514   0.13408   0.15441   0.16835
 Alpha virt. eigenvalues --    0.17547   0.18508   0.20625   0.22826   0.24662
 Alpha virt. eigenvalues --    0.26615   0.52904   0.56068   0.56415   0.58192

 Mulliken charges:
               1
     1  C   -0.302817
     2  C   -0.020043
     3  N   -0.397713
     4  N   -0.471662
     5  H    0.089187
     6  H    0.106347
     7  H    0.128070
     8  H    0.087248
     9  H    0.068843
    10  H    0.228621
    11  H    0.228751
    12  H    0.255168
 Sum of Mulliken charges =   0.00000

 Dipole moment (field-independent basis, Debye):
    X=              1.4121    Y=              1.2235    Z=              0.7095  Tot=              1.9986
 Quadrupole moment (field-independent basis, Debye-Ang):
   XX=            -21.4645   YY=            -25.9944   ZZ=            -27.2256
   XY=              0.3182   XZ=              0.4253   YZ=              0.9769

  Exact polarizability:  43.128  -2.074  36.291   0.225   0.201  33.936
 Approx polarizability:  51.104  -3.709  48.372   0.067  -0.405  47.134

                      1                      2                      3
                      A                      A                      A
 Frequencies --    158.5690               235.3200               273.4139
 Red. masses --      2.0211                 1.1883                 1.1231
 Frc consts  --      0.0299                 0.0388                 0.0495
 IR Inten    --      6.0449                 3.6701                41.5914

                      4                      5                      6
                      A                      A                      A
 Frequencies --    366.6831               504.4816               769.6502
 Red. masses --      2.2008                 2.2999                 1.8194
 Frc consts  --      0.1743                 0.3449                 0.6350
 IR Inten    --      2.5643                16.6024                34.9492

                      7                      8                      9
                      A                      A                      A
 Frequencies --    822.1313               880.4463               956.2237
 Red. masses --      1.1605                 1.9458                 1.6751
 Frc consts  --      0.4621                 0.8887                 0.9024
 IR Inten    --      5.4690                29.6660                94.7279

                     10                     11                     12
                      A                      A                      A
 Frequencies --   1032.0543              1129.9812              1171.6317
 Red. masses --      1.5908                 1.7511                 2.1030
 Frc consts  --      0.9983                 1.3174                 1.7009
 IR Inten    --      7.0346                19.3932                 3.6400

                     13                     14                     15
                      A                      A                      A
 Frequencies --   1182.1825              1295.0758              1338.8723
 Red. masses --      1.8931                 1.2182                 1.1951
 Frc consts  --      1.5588                 1.2038                 1.2622
 IR Inten    --      6.3930                 6.5939                 2.3964

                     16                     17                     18
                      A                      A                      A
 Frequencies --   1399.0093              1419.4840              1496.3210
 Red. masses --      1.2769                 1.3180                 1.0592
 Frc consts  --      1.4725                 1.5647                 1.3972
 IR Inten    --      3.4489                16.1271                 3.9192

                     19                     20                     21
                      A                      A                      A
 Frequencies --   1500.5784              1508.9824              1528.7456
 Red. masses --      1.0992                 1.1510                 1.0641
 Frc consts  --      1.4583                 1.5441                 1.4653
 IR Inten    --      5.1993                 1.7381                 1.9884

                     22                     23                     24
                      A                      A                      A
 Frequencies --   1675.3489              2943.1456              3050.5443
 Red. masses --      1.0858                 1.0725                 1.0417
 Frc consts  --      1.7956                 5.4738                 5.7117
 IR Inten    --      8.6863                88.2909                25.9760

                     25                     26                     27
                      A                      A                      A
 Frequencies --   3057.0576              3121.3347              3143.0929
 Red. masses --      1.0830                 1.1022                 1.1018
 Frc consts  --      5.9632                 6.3272                 6.4134
 IR Inten    --     34.5984                35.6639                23.0835

                     28                     29                     30
                      A                      A                      A
 Frequencies --   3409.1484              3435.3057              3561.2991
 Red. masses --      1.0574                 1.0723                 1.0875
 Frc consts  --      7.2407                 7.4557                 8.1265
 IR Inten    --     26.3753                12.1119                 0.2345

 - Thermochemistry -
 -------------------
 Temperature   298.150 Kelvin.  Pressure   1.00000 Atm.
 Atom     1 has atomic number  6 and mass  12.00000

 Molecular mass:    60.06875 amu.
 Principal axes and moments of inertia in atomic units:
                           1         2         3
     Eigenvalues --   117.95090 353.52578 411.12473
           X            0.99990   0.01254   0.00621
           Y           -0.01282   0.99874   0.04846
           Z           -0.00559  -0.04853   0.99881
 This molecule is an asymmetric top.
 Rotational symmetry number  1.
 Rotational temperatures (Kelvin)      0.73432     0.24500     0.21068
 Rotational constants (GHZ):          15.30078     5.10498     4.38977
 Zero-point vibrational energy     289293.6 (Joules/Mol)
                                   69.14283 (Kcal/Mol)
 Warning -- explicit consideration of   5 degrees of freedom as
           vibrations may cause significant error
 Vibrational temperatures:    228.15   338.57   393.38   527.57   725.84
          (Kelvin)           1107.35  1182.86  1266.76  1375.79  1484.89
                             1625.79  1685.71  1700.89  1863.32  1926.34
                             2012.86  2042.32  2152.87  2158.99  2171.09
                             2199.52  2410.45  4234.52  4389.05  4398.42
                             4490.90  4522.20  4905.00  4942.63  5123.91

 Zero-point correction=                           0.110186 (Hartree/Particle)
 Thermal correction to Energy=                    0.115583
 Thermal correction to Enthalpy=                  0.116527
 Thermal correction to Gibbs Free Energy=         0.082639
 Sum of electronic and zero-point Energies=           -190.390281
 Sum of electronic and thermal Energies=              -190.384884
 Sum of electronic and thermal Enthalpies=            -190.383940
 Sum of electronic and thermal Free Energies=         -190.417828

                     E (Thermal)             CV                S
                      KCal/Mol        Cal/Mol-Kelvin    Cal/Mol-Kelvin
 Total                   72.529             18.274             71.323
 Electronic               0.000              0.000              0.000
 Translational            0.889              2.981             38.199
 Rotational               0.889              2.981             24.353
 Vibrational             70.752             12.312              8.771
 Vibration     1          0.621              1.893              2.567
 Vibration     2          0.655              1.787              1.838
 Vibration     3          0.676              1.722              1.575
 Vibration     4          0.740              1.541              1.094
 Vibration     5          0.860              1.240              0.647

 Optimization completed.
    -- Stationary point found.
 Normal termination of Gaussian 09 at Thu Sep  8 15:22:31 2022.
