 Gaussian 09, Revision E.01,
 Gaussian 09:  ES64L-G09RevE.01 30-Nov-2015

 -------------------------
 #P OPT Freq B3LYP/6-31G**
 -------------------------

 --------
 Frag_225
 --------
 Symbolic Z-matrix:
 Charge =  0 Multiplicity = 1

 SCF Done:  E(RB3LYP) =  -213.818990666     A.U. after   12 cycles
 SCF Done:  E(RB3LYP) =  -213.822232299     A.U. after   11 cycles
 SCF Done:  E(RB3LYP) =  -213.822282730     A.U. after    9 cycles
 SCF Done:  E(RB3LYP) =  -213.822286046     A.U. after    7 cycles
 Optimization completed.
    -- Stationary point found.
 Normal termination of Gaussian 09 at Sat Aug 21 01:38:19 2021.

 ----------------------------------------------------------------------
 #P Geom=AllCheck Guess=TCheck SCRF=Check GenChk RB3LYP/6-31G(d,p) Freq
 ----------------------------------------------------------------------

 Structure from the checkpoint file:  "/public/home/users/caep010/.cache/gau_scr/Gau-186927.chk"
 --------
 Frag_225
 --------
 Charge =  0 Multiplicity = 1

                         Standard orientation:
 ---------------------------------------------------------------------
 Center     Atomic      Atomic             Coordinates (Angstroms)
 Number     Number       Type             X           Y           Z
 ---------------------------------------------------------------------
      1          6           0       -0.000021   -1.358217   -0.707866
      2          6           0        0.000001    0.005018    0.016552
      3          6           0       -1.258616    0.799384   -0.365226
      4          6           0        1.258650    0.799338   -0.365212
      5          7           0       -0.000010   -0.137771    1.486998
      6          1           0       -0.000010   -1.241458   -1.797842
      7          1           0       -0.886243   -1.943512   -0.435379
      8          1           0        0.886171   -1.943550   -0.435364
      9          1           0       -2.166673    0.253369   -0.082464
     10          1           0       -1.270685    1.763803    0.150217
     11          1           0       -1.300255    0.976420   -1.444785
     12          1           0        1.300314    0.976365   -1.444772
     13          1           0        2.166685    0.253296   -0.082431
     14          1           0        1.270744    1.763760    0.150226
     15          1           0        0.812449   -0.683642    1.772064
     16          1           0       -0.812508   -0.683588    1.772057
 ---------------------------------------------------------------------

 SCF Done:  E(RB3LYP) =  -213.822286046     A.U. after    1 cycles

 The electronic state is 1-A.
 Alpha  occ. eigenvalues --  -14.30376 -10.21603 -10.17046 -10.16745 -10.16745
 Alpha  occ. eigenvalues --   -0.88263  -0.75533  -0.68132  -0.68106  -0.54385
 Alpha  occ. eigenvalues --   -0.47606  -0.45605  -0.43324  -0.41200  -0.38767
 Alpha  occ. eigenvalues --   -0.37156  -0.35937  -0.35269  -0.32820  -0.32175
 Alpha  occ. eigenvalues --   -0.22970
 Alpha virt. eigenvalues --    0.06876   0.12806   0.13094   0.14030   0.15922
 Alpha virt. eigenvalues --    0.16487   0.16911   0.18222   0.19981   0.21919
 Alpha virt. eigenvalues --    0.22058   0.22675   0.25168   0.25242   0.26675

 Mulliken charges:
               1
     1  C   -0.298319
     2  C    0.133321
     3  C   -0.289736
     4  C   -0.289735
     5  N   -0.580528
     6  H    0.096776
     7  H    0.089789
     8  H    0.089789
     9  H    0.088693
    10  H    0.113386
    11  H    0.095734
    12  H    0.095733
    13  H    0.088693
    14  H    0.113385
    15  H    0.226509
    16  H    0.226509
 Sum of Mulliken charges =   0.00000

 Dipole moment (field-independent basis, Debye):
    X=             -0.0000    Y=             -1.1459    Z=             -0.4563  Tot=              1.2334
 Quadrupole moment (field-independent basis, Debye-Ang):
   XX=            -32.8292   YY=            -33.8462   ZZ=            -34.8949
   XY=             -0.0000   XZ=             -0.0001   YZ=             -2.9466

  Exact polarizability:  52.620  -0.000  50.265  -0.000  -1.275  51.219
 Approx polarizability:  70.394  -0.000  65.959  -0.000  -1.797  71.051

                      1                      2                      3
                      A                      A                      A
 Frequencies --    216.2545               275.6044               277.9240
 Red. masses --      1.0138                 1.0390                 1.0602
 Frc consts  --      0.0279                 0.0465                 0.0483
 IR Inten    --      4.3048                 0.0113                10.1045

                      4                      5                      6
                      A                      A                      A
 Frequencies --    295.8756               337.0511               345.2400
 Red. masses --      1.0385                 2.2721                 2.2020
 Frc consts  --      0.0536                 0.1521                 0.1546
 IR Inten    --     25.1612                 1.1057                 5.3435

                      7                      8                      9
                      A                      A                      A
 Frequencies --    421.2832               447.9728               451.7134
 Red. masses --      2.1165                 2.3655                 2.3258
 Frc consts  --      0.2213                 0.2797                 0.2796
 IR Inten    --      0.0936                 8.3762                 5.4265

                     10                     11                     12
                      A                      A                      A
 Frequencies --    743.6127               885.6367               914.8878
 Red. masses --      3.7234                 1.5722                 1.8014
 Frc consts  --      1.2131                 0.7266                 0.8884
 IR Inten    --      1.4955               138.8445                 1.0434

                     13                     14                     15
                      A                      A                      A
 Frequencies --    933.2367               958.4771               961.8007
 Red. masses --      1.7877                 1.6460                 1.2068
 Frc consts  --      0.9173                 0.8909                 0.6577
 IR Inten    --      0.2326                 4.9993                 0.0107

                     16                     17                     18
                      A                      A                      A
 Frequencies --   1014.7395              1062.4032              1136.0433
 Red. masses --      1.3002                 1.3894                 1.3698
 Frc consts  --      0.7888                 0.9239                 1.0416
 IR Inten    --      1.1647                10.5608                 2.1877

                     19                     20                     21
                      A                      A                      A
 Frequencies --   1244.8157              1282.2272              1355.6441
 Red. masses --      2.6025                 2.7470                 1.8022
 Frc consts  --      2.3761                 2.6610                 1.9514
 IR Inten    --     35.0917                19.0804                 2.5106

                     22                     23                     24
                      A                      A                      A
 Frequencies --   1411.5708              1414.5214              1439.4163
 Red. masses --      1.2564                 1.3428                 1.2350
 Frc consts  --      1.4750                 1.5830                 1.5076
 IR Inten    --      8.1448                 9.1736                 3.3054

                     25                     26                     27
                      A                      A                      A
 Frequencies --   1491.6109              1496.2268              1501.6312
 Red. masses --      1.0485                 1.0455                 1.0435
 Frc consts  --      1.3744                 1.3790                 1.3863
 IR Inten    --      0.0006                 0.1521                 0.0310

                     28                     29                     30
                      A                      A                      A
 Frequencies --   1512.9905              1520.0759              1531.1826
 Red. masses --      1.0555                 1.0751                 1.0584
 Frc consts  --      1.4236                 1.4636                 1.4620
 IR Inten    --      1.6972                 3.7401                 5.3233

                     31                     32                     33
                      A                      A                      A
 Frequencies --   1666.7408              3025.0248              3035.9359
 Red. masses --      1.0961                 1.0350                 1.0368
 Frc consts  --      1.7941                 5.5804                 5.6305
 IR Inten    --     25.0951                26.1901                43.7215

                     34                     35                     36
                      A                      A                      A
 Frequencies --   3042.3396              3096.3220              3097.4277
 Red. masses --      1.0383                 1.1024                 1.1018
 Frc consts  --      5.6624                 6.2269                 6.2283
 IR Inten    --      2.8553                20.0847                 7.4843

                     37                     38                     39
                      A                      A                      A
 Frequencies --   3104.6546              3108.6040              3127.4205
 Red. masses --      1.1004                 1.0989                 1.1031
 Frc consts  --      6.2495                 6.2565                 6.3571
 IR Inten    --     33.3303                76.9303                 0.6723

                     40                     41                     42
                      A                      A                      A
 Frequencies --   3133.0372              3461.3653              3545.4096
 Red. masses --      1.1025                 1.0493                 1.0919
 Frc consts  --      6.3760                 7.4069                 8.0867
 IR Inten    --     51.0252                 3.8275                 2.0189

 - Thermochemistry -
 -------------------
 Temperature   298.150 Kelvin.  Pressure   1.00000 Atm.
 Atom     1 has atomic number  6 and mass  12.00000

 Molecular mass:    73.08915 amu.
 Principal axes and moments of inertia in atomic units:
                           1         2         3
     Eigenvalues --   394.72446 396.79744 405.44587
           X            1.00000  -0.00001  -0.00000
           Y            0.00001   0.93329  -0.35913
           Z            0.00001   0.35913   0.93329
 This molecule is an asymmetric top.
 Rotational symmetry number  1.
 Rotational temperatures (Kelvin)      0.21943     0.21828     0.21363
 Rotational constants (GHZ):           4.57215     4.54827     4.45125
 Zero-point vibrational energy     390736.0 (Joules/Mol)
                                   93.38814 (Kcal/Mol)
 Warning -- explicit consideration of   9 degrees of freedom as
           vibrations may cause significant error
 Vibrational temperatures:    311.14   396.53   399.87   425.70   484.94
          (Kelvin)            496.72   606.13   644.53   649.91  1069.89
                             1274.23  1316.32  1342.72  1379.03  1383.81
                             1459.98  1528.56  1634.51  1791.01  1844.84
                             1950.47  2030.93  2035.18  2071.00  2146.09
                             2152.73  2160.51  2176.85  2187.05  2203.03
                             2398.07  4352.33  4368.03  4377.24  4454.91
                             4456.50  4466.90  4472.58  4499.65  4507.74
                             4980.13  5101.05

 Zero-point correction=                           0.148823 (Hartree/Particle)
 Thermal correction to Energy=                    0.155586
 Thermal correction to Enthalpy=                  0.156530
 Thermal correction to Gibbs Free Energy=         0.119863
 Sum of electronic and zero-point Energies=           -213.673463
 Sum of electronic and thermal Energies=              -213.666700
 Sum of electronic and thermal Enthalpies=            -213.665756
 Sum of electronic and thermal Free Energies=         -213.702423

                     E (Thermal)             CV                S
                      KCal/Mol        Cal/Mol-Kelvin    Cal/Mol-Kelvin
 Total                   97.632             25.432             77.173
 Electronic               0.000              0.000              0.000
 Translational            0.889              2.981             38.784
 Rotational               0.889              2.981             25.655
 Vibrational             95.854             19.470             12.735
 Vibration     1          0.645              1.816              1.990
 Vibration     2          0.677              1.718              1.561
 Vibration     3          0.679              1.714              1.546
 Vibration     4          0.690              1.681              1.440
 Vibration     5          0.718              1.601              1.226
 Vibration     6          0.724              1.585              1.188
 Vibration     7          0.784              1.424              0.888
 Vibration     8          0.807              1.365              0.802
 Vibration     9          0.810              1.357              0.791

 Optimization completed.
    -- Stationary point found.
 Normal termination of Gaussian 09 at Sat Aug 21 01:38:31 2021.
