 Gaussian 09, Revision E.01,
 Gaussian 09:  ES64L-G09RevE.01 30-Nov-2015

 ----------------------------
 #P OPT Freq B3LYP/6-31G(d,p)
 ----------------------------

 ---------
 Frag_1160
 ---------
 Symbolic Z-matrix:
 Charge =  0 Multiplicity = 1

 SCF Done:  E(RB3LYP) =  -323.606075831     A.U. after   14 cycles
 SCF Done:  E(RB3LYP) =  -323.606158963     A.U. after   10 cycles
 SCF Done:  E(RB3LYP) =  -323.606166893     A.U. after   10 cycles
 SCF Done:  E(RB3LYP) =  -323.606169833     A.U. after    8 cycles
 SCF Done:  E(RB3LYP) =  -323.606170419     A.U. after    8 cycles
 SCF Done:  E(RB3LYP) =  -323.606170564     A.U. after    7 cycles
 SCF Done:  E(RB3LYP) =  -323.606170631     A.U. after    7 cycles
 SCF Done:  E(RB3LYP) =  -323.606170664     A.U. after    7 cycles
 Optimization completed.
    -- Stationary point found.
 Normal termination of Gaussian 09 at Thu Sep  8 14:47:31 2022.

 ----------------------------------------------------------------------
 #P Geom=AllCheck Guess=TCheck SCRF=Check GenChk RB3LYP/6-31G(d,p) Freq
 ----------------------------------------------------------------------

 Structure from the checkpoint file:  "B3LYP6-31Gdp.Frag_1160.chk"
 ---------
 Frag_1160
 ---------
 Charge =  0 Multiplicity = 1

                         Standard orientation:
 ---------------------------------------------------------------------
 Center     Atomic      Atomic             Coordinates (Angstroms)
 Number     Number       Type             X           Y           Z
 ---------------------------------------------------------------------
      1          6           0        0.981890    1.509807    0.192610
      2          6           0        0.671088    0.229992   -0.056743
      3          6           0        1.675600   -0.890024   -0.095134
      4          7           0       -0.653648   -0.164915   -0.424208
      5          8           0       -1.608454    0.816186   -0.151541
      6          8           0       -1.025937   -1.369038    0.225489
      7          1           0        2.010344    1.784812    0.394074
      8          1           0        0.254505    2.308558    0.132779
      9          1           0        1.611319   -1.418874   -1.051101
     10          1           0        1.496572   -1.631234    0.688899
     11          1           0        2.685220   -0.492154    0.021557
     12          1           0       -1.434305    1.136173    0.759797
     13          1           0       -0.944464   -1.208701    1.187475
 ---------------------------------------------------------------------

 SCF Done:  E(RB3LYP) =  -323.606170664     A.U. after    1 cycles

 The electronic state is 1-A.
 Alpha  occ. eigenvalues --  -19.19454 -19.19176 -14.44686 -10.23735 -10.19444
 Alpha  occ. eigenvalues --  -10.18698  -1.13203  -1.02015  -0.84483  -0.74191
 Alpha  occ. eigenvalues --   -0.70070  -0.59720  -0.55946  -0.50377  -0.47531
 Alpha  occ. eigenvalues --   -0.44677  -0.42580  -0.40481  -0.38880  -0.37619
 Alpha  occ. eigenvalues --   -0.33234  -0.30491  -0.29366  -0.23857
 Alpha virt. eigenvalues --    0.00171   0.05722   0.08481   0.10557   0.12466
 Alpha virt. eigenvalues --    0.14309   0.15043   0.17256   0.18605   0.20575
 Alpha virt. eigenvalues --    0.24335   0.30955   0.36070   0.51075   0.51916

 Mulliken charges:
               1
     1  C   -0.308442
     2  C    0.264441
     3  C   -0.342596
     4  N    0.013881
     5  O   -0.390755
     6  O   -0.400363
     7  H    0.101826
     8  H    0.111548
     9  H    0.145018
    10  H    0.120000
    11  H    0.114667
    12  H    0.281002
    13  H    0.289773
 Sum of Mulliken charges =  -0.00000

 Dipole moment (field-independent basis, Debye):
    X=              1.8499    Y=              0.5637    Z=              2.8647  Tot=              3.4564
 Quadrupole moment (field-independent basis, Debye-Ang):
   XX=            -37.1351   YY=            -36.0599   ZZ=            -34.7463
   XY=             -1.5841   XZ=             -3.7239   YZ=              0.0978

  Exact polarizability:  51.073   2.771  60.639  -0.517   2.274  33.921
 Approx polarizability:  67.991   8.041  95.220   2.313   6.294  52.035

                      1                      2                      3
                      A                      A                      A
 Frequencies --     95.6027               163.7171               308.5836
 Red. masses --      3.6935                 1.0898                 3.3292
 Frc consts  --      0.0199                 0.0172                 0.1868
 IR Inten    --      2.2833                 0.3958                 0.8617

                      4                      5                      6
                      A                      A                      A
 Frequencies --    338.0006               387.1842               420.8554
 Red. masses --      3.1738                 1.1162                 2.6940
 Frc consts  --      0.2136                 0.0986                 0.2811
 IR Inten    --     34.9241                43.0155                 5.8101

                      7                      8                      9
                      A                      A                      A
 Frequencies --    484.0929               539.2035               578.1290
 Red. masses --      1.6703                 3.2590                 2.3553
 Frc consts  --      0.2306                 0.5583                 0.4638
 IR Inten    --     24.1154                 7.5220               139.6642

                     10                     11                     12
                      A                      A                      A
 Frequencies --    587.5193               730.4911               786.5888
 Red. masses --      2.0102                 4.5993                 1.3633
 Frc consts  --      0.4088                 1.4460                 0.4970
 IR Inten    --     11.6303                19.5251                27.9416

                     13                     14                     15
                      A                      A                      A
 Frequencies --    884.9967               930.9854               967.2311
 Red. masses --      1.3487                 1.9807                 5.0714
 Frc consts  --      0.6224                 1.0115                 2.7953
 IR Inten    --     45.8901                 7.3225                67.0901

                     16                     17                     18
                      A                      A                      A
 Frequencies --   1034.2104              1069.2197              1085.6070
 Red. masses --      1.7356                 2.2609                 1.9863
 Frc consts  --      1.0938                 1.5229                 1.3793
 IR Inten    --      3.9460                13.4240                 3.5456

                     19                     20                     21
                      A                      A                      A
 Frequencies --   1310.7591              1368.0179              1420.2671
 Red. masses --      3.4083                 1.1059                 1.2083
 Frc consts  --      3.4502                 1.2194                 1.4361
 IR Inten    --     16.5186                32.1088                 3.2539

                     22                     23                     24
                      A                      A                      A
 Frequencies --   1450.1743              1464.3016              1487.8550
 Red. masses --      1.2754                 1.2140                 1.0480
 Frc consts  --      1.5803                 1.5336                 1.3669
 IR Inten    --      6.8560                33.0636                10.5169

                     25                     26                     27
                      A                      A                      A
 Frequencies --   1504.1906              1713.8138              3060.1239
 Red. masses --      1.0543                 5.1790                 1.0361
 Frc consts  --      1.4054                 8.9623                 5.7164
 IR Inten    --     10.6561                38.4516                12.2843

                     28                     29                     30
                      A                      A                      A
 Frequencies --   3120.9176              3151.5679              3190.0079
 Red. masses --      1.1007                 1.1032                 1.0604
 Frc consts  --      6.3163                 6.4559                 6.3579
 IR Inten    --     11.1699                12.6746                 0.9079

                     31                     32                     33
                      A                      A                      A
 Frequencies --   3279.8249              3546.3265              3596.1149
 Red. masses --      1.1161                 1.0663                 1.0676
 Frc consts  --      7.0740                 7.9007                 8.1343
 IR Inten    --      4.1810                13.7510                 6.3682

 - Thermochemistry -
 -------------------
 Temperature   298.150 Kelvin.  Pressure   1.00000 Atm.
 Atom     1 has atomic number  6 and mass  12.00000

 Molecular mass:    89.04768 amu.
 Principal axes and moments of inertia in atomic units:
                           1         2         3
     Eigenvalues --   366.62792 506.73442 816.38940
           X            0.99817  -0.05860  -0.01481
           Y            0.05875   0.99823   0.00958
           Z            0.01423  -0.01043   0.99984
 This molecule is an asymmetric top.
 Rotational symmetry number  1.
 Rotational temperatures (Kelvin)      0.23624     0.17093     0.10609
 Rotational constants (GHZ):           4.92254     3.56151     2.21064
 Zero-point vibrational energy     275478.9 (Joules/Mol)
                                   65.84105 (Kcal/Mol)
 Warning -- explicit consideration of  10 degrees of freedom as
           vibrations may cause significant error
 Vibrational temperatures:    137.55   235.55   443.98   486.31   557.07
          (Kelvin)            605.52   696.50   775.79   831.80   845.31
                             1051.01  1131.72  1273.31  1339.48  1391.63
                             1488.00  1538.37  1561.94  1885.89  1968.27
                             2043.44  2086.47  2106.80  2140.69  2164.19
                             2465.79  4402.83  4490.30  4534.40  4589.70
                             4718.93  5102.37  5174.00

 Zero-point correction=                           0.104924 (Hartree/Particle)
 Thermal correction to Energy=                    0.111755
 Thermal correction to Enthalpy=                  0.112699
 Thermal correction to Gibbs Free Energy=         0.074752
 Sum of electronic and zero-point Energies=           -323.501246
 Sum of electronic and thermal Energies=              -323.494416
 Sum of electronic and thermal Enthalpies=            -323.493472
 Sum of electronic and thermal Free Energies=         -323.531418

                     E (Thermal)             CV                S
                      KCal/Mol        Cal/Mol-Kelvin    Cal/Mol-Kelvin
 Total                   70.127             25.068             79.866
 Electronic               0.000              0.000              0.000
 Translational            0.889              2.981             39.372
 Rotational               0.889              2.981             26.520
 Vibrational             68.350             19.106             13.974
 Vibration     1          0.603              1.952              3.542
 Vibration     2          0.623              1.887              2.506
 Vibration     3          0.698              1.657              1.370
 Vibration     4          0.718              1.600              1.222
 Vibration     5          0.756              1.498              1.011
 Vibration     6          0.783              1.425              0.889
 Vibration     7          0.840              1.285              0.699
 Vibration     8          0.894              1.163              0.567
 Vibration     9          0.935              1.079              0.489
 Vibration    10          0.945              1.058              0.472

 Optimization completed.
    -- Stationary point found.
 Normal termination of Gaussian 09 at Thu Sep  8 14:47:42 2022.
