 Gaussian 09, Revision E.01,
 Gaussian 09:  ES64L-G09RevE.01 30-Nov-2015

 ----------------------------
 #P OPT Freq B3LYP/6-31G(d,p)
 ----------------------------

 ---------
 Frag_1077
 ---------
 Symbolic Z-matrix:
 Charge =  0 Multiplicity = 1

 SCF Done:  E(RB3LYP) =  -148.786050994     A.U. after   12 cycles
 SCF Done:  E(RB3LYP) =  -148.786098061     A.U. after   11 cycles
 SCF Done:  E(RB3LYP) =  -148.785296107     A.U. after   12 cycles
 SCF Done:  E(RB3LYP) =  -148.786126216     A.U. after    8 cycles
 SCF Done:  E(RB3LYP) =  -148.786135991     A.U. after    9 cycles
 SCF Done:  E(RB3LYP) =  -148.786140383     A.U. after    9 cycles
 SCF Done:  E(RB3LYP) =  -148.786142224     A.U. after    8 cycles
 Optimization completed.
    -- Stationary point found.
 Normal termination of Gaussian 09 at Thu Sep  8 14:54:02 2022.

 ----------------------------------------------------------------------
 #P Geom=AllCheck Guess=TCheck SCRF=Check GenChk RB3LYP/6-31G(d,p) Freq
 ----------------------------------------------------------------------

 Structure from the checkpoint file:  "B3LYP6-31Gdp.Frag_1077.chk"
 ---------
 Frag_1077
 ---------
 Charge =  0 Multiplicity = 1

                         Standard orientation:
 ---------------------------------------------------------------------
 Center     Atomic      Atomic             Coordinates (Angstroms)
 Number     Number       Type             X           Y           Z
 ---------------------------------------------------------------------
      1          7           0       -1.219526    0.077494    0.104570
      2          6           0       -0.000005   -0.020861   -0.000780
      3          7           0        1.219568    0.085232   -0.098413
      4          1           0       -1.806429   -0.488628   -0.498872
      5          1           0        1.806161   -0.525285    0.460455
 ---------------------------------------------------------------------

 SCF Done:  E(RB3LYP) =  -148.786142224     A.U. after    1 cycles

 The electronic state is 1-A.
 Alpha  occ. eigenvalues --  -14.34787 -14.34786 -10.29366  -0.95965  -0.89578
 Alpha  occ. eigenvalues --   -0.59240  -0.54480  -0.40903  -0.40028  -0.28355
 Alpha  occ. eigenvalues --   -0.28238
 Alpha virt. eigenvalues --    0.02652   0.02731   0.08518   0.12913   0.27301
 Alpha virt. eigenvalues --    0.46430   0.53624   0.54738   0.60116   0.60365
 Alpha virt. eigenvalues --    0.65224   0.75881   0.75899   0.82602   0.85527

 Mulliken charges:
               1
     1  N   -0.590437
     2  C    0.620580
     3  N   -0.590428
     4  H    0.280154
     5  H    0.280131
 Sum of Mulliken charges =  -0.00000

 Dipole moment (field-independent basis, Debye):
    X=             -0.0011    Y=             -2.1536    Z=             -0.0817  Tot=              2.1551
 Quadrupole moment (field-independent basis, Debye-Ang):
   XX=            -15.3911   YY=            -16.9752   ZZ=            -17.1086
   XY=             -0.1566   XZ=              4.1135   YZ=              0.0047

  Exact polarizability:  40.229  -0.020  12.170   0.513   0.001  12.111
 Approx polarizability:  79.293   0.136  16.232  -3.583  -0.006  16.349

                      1                      2                      3
                      A                      A                      A
 Frequencies --    521.1372               522.0740               739.4175
 Red. masses --      3.2459                 2.9824                 1.1246
 Frc consts  --      0.5194                 0.4789                 0.3623
 IR Inten    --      0.0085                69.4868               101.6831

                      4                      5                      6
                      A                      A                      A
 Frequencies --    925.9710               927.9354              1291.3991
 Red. masses --      1.4490                 1.4037                 8.6577
 Frc consts  --      0.7320                 0.7121                 8.5070
 IR Inten    --    434.2805                16.7434                 0.0579

                      7                      8                      9
                      A                      A                      A
 Frequencies --   2244.5323              3598.1802              3598.7909
 Red. masses --      8.8944                 1.0798                 1.0799
 Frc consts  --     26.4009                 8.2370                 8.2402
 IR Inten    --    538.2729                81.5525                29.1307

 - Thermochemistry -
 -------------------
 Temperature   298.150 Kelvin.  Pressure   1.00000 Atm.
 Atom     1 has atomic number  7 and mass  14.00307

 Molecular mass:    42.02180 amu.
 Principal axes and moments of inertia in atomic units:
                           1         2         3
     Eigenvalues --     4.91570 174.90253 174.92215
           X            0.99935   0.03616   0.00139
           Y            0.00138  -0.07646   0.99707
           Z           -0.03616   0.99642   0.07646
 This molecule is an asymmetric top.
 Rotational symmetry number  1.
 Rotational temperatures (Kelvin)     17.61985     0.49521     0.49516
 Rotational constants (GHZ):         367.13849    10.31855    10.31740
 Zero-point vibrational energy      85948.3 (Joules/Mol)
                                   20.54214 (Kcal/Mol)
 Warning -- explicit consideration of   2 degrees of freedom as
           vibrations may cause significant error
 Vibrational temperatures:    749.80   751.15  1063.86  1332.26  1335.09
          (Kelvin)           1858.03  3229.38  5176.97  5177.85

 Zero-point correction=                           0.032736 (Hartree/Particle)
 Thermal correction to Energy=                    0.036193
 Thermal correction to Enthalpy=                  0.037137
 Thermal correction to Gibbs Free Energy=         0.009325
 Sum of electronic and zero-point Energies=           -148.753406
 Sum of electronic and thermal Energies=              -148.749949
 Sum of electronic and thermal Enthalpies=            -148.749005
 Sum of electronic and thermal Free Energies=         -148.776818

                     E (Thermal)             CV                S
                      KCal/Mol        Cal/Mol-Kelvin    Cal/Mol-Kelvin
 Total                   22.711             10.207             58.536
 Electronic               0.000              0.000              0.000
 Translational            0.889              2.981             37.134
 Rotational               0.889              2.981             19.648
 Vibrational             20.934              4.245              1.755
 Vibration     1          0.876              1.203              0.607
 Vibration     2          0.877              1.201              0.605

 Optimization completed.
    -- Stationary point found.
 Normal termination of Gaussian 09 at Thu Sep  8 14:54:07 2022.
