 Gaussian 09, Revision E.01,
 Gaussian 09:  ES64L-G09RevE.01 30-Nov-2015

 -------------------------
 #P OPT Freq B3LYP/6-31G**
 -------------------------

 --------
 Frag_141
 --------
 Symbolic Z-matrix:
 Charge =  0 Multiplicity = 1

 SCF Done:  E(RB3LYP) =  -242.248993421     A.U. after   14 cycles
 SCF Done:  E(RB3LYP) =  -242.253689170     A.U. after   13 cycles
 SCF Done:  E(RB3LYP) =  -242.255737877     A.U. after   12 cycles
 SCF Done:  E(RB3LYP) =  -242.255828026     A.U. after   10 cycles
 SCF Done:  E(RB3LYP) =  -242.255839768     A.U. after    9 cycles
 SCF Done:  E(RB3LYP) =  -242.255840817     A.U. after    8 cycles
 Optimization completed.
    -- Stationary point found.
 Normal termination of Gaussian 09 at Sat Aug 21 01:39:45 2021.

 ----------------------------------------------------------------------
 #P Geom=AllCheck Guess=TCheck SCRF=Check GenChk RB3LYP/6-31G(d,p) Freq
 ----------------------------------------------------------------------

 Structure from the checkpoint file:  "/public/home/users/caep010/.cache/gau_scr/Gau-121926.chk"
 --------
 Frag_141
 --------
 Charge =  0 Multiplicity = 1

                         Standard orientation:
 ---------------------------------------------------------------------
 Center     Atomic      Atomic             Coordinates (Angstroms)
 Number     Number       Type             X           Y           Z
 ---------------------------------------------------------------------
      1          6           0        1.117877    0.032224    0.000038
      2          7           0        0.356735    1.165199   -0.000029
      3          6           0       -0.873456    0.684186    0.000011
      4          7           0       -0.839837   -0.666925    0.000007
      5          7           0        0.443829   -1.108916   -0.000028
      6          1           0        2.198638    0.048624    0.000025
      7          1           0       -1.790090    1.257335    0.000013
      8          1           0       -1.600163   -1.329922    0.000015
 ---------------------------------------------------------------------

 SCF Done:  E(RB3LYP) =  -242.255840817     A.U. after    1 cycles

 The electronic state is 1-A.
 Alpha  occ. eigenvalues --  -14.42673 -14.36260 -14.32860 -10.26216 -10.23492
 Alpha  occ. eigenvalues --   -1.07869  -0.89703  -0.83236  -0.64667  -0.61992
 Alpha  occ. eigenvalues --   -0.56959  -0.46928  -0.46232  -0.42429  -0.33109
 Alpha  occ. eigenvalues --   -0.30047  -0.27965  -0.27149
 Alpha virt. eigenvalues --    0.00402   0.05251   0.07033   0.12447   0.15395
 Alpha virt. eigenvalues --    0.20222   0.22703   0.29609   0.31538   0.42647
 Alpha virt. eigenvalues --    0.51526   0.52985   0.57984   0.59585   0.61884

 Mulliken charges:
               1
     1  C    0.219354
     2  N   -0.442296
     3  C    0.280946
     4  N   -0.320647
     5  N   -0.271749
     6  H    0.117322
     7  H    0.130194
     8  H    0.286876
 Sum of Mulliken charges =   0.00000

 Dipole moment (field-independent basis, Debye):
    X=             -2.7413    Y=             -0.8280    Z=              0.0001  Tot=              2.8636
 Quadrupole moment (field-independent basis, Debye-Ang):
   XX=            -20.7223   YY=            -32.3744   ZZ=            -29.3904
   XY=              1.2772   XZ=              0.0000   YZ=              0.0000

  Exact polarizability:  44.793  -0.404  38.484   0.000   0.000  16.759
 Approx polarizability:  71.531   1.554  70.614   0.000   0.000  25.335

                      1                      2                      3
                      A                      A                      A
 Frequencies --    550.1462               681.8265               700.4636
 Red. masses --      1.7432                 1.9692                 3.2875
 Frc consts  --      0.3109                 0.5394                 0.9504
 IR Inten    --     74.2726                 3.1233                45.2709

                      4                      5                      6
                      A                      A                      A
 Frequencies --    844.2243               901.7547               959.6169
 Red. masses --      1.3919                 1.3762                 6.0258
 Frc consts  --      0.5845                 0.6593                 3.2693
 IR Inten    --     15.7621                 7.2707                 6.7496

                      7                      8                      9
                      A                      A                      A
 Frequencies --    989.6042              1084.4946              1148.4659
 Red. masses --      6.4201                 2.4163                 1.7662
 Frc consts  --      3.7044                 1.6744                 1.3726
 IR Inten    --     19.1202                38.3042                12.9640

                     10                     11                     12
                      A                      A                      A
 Frequencies --   1189.9973              1282.1235              1329.2124
 Red. masses --      2.7234                 1.6291                 3.4927
 Frc consts  --      2.2722                 1.5778                 3.6358
 IR Inten    --     12.6265                 0.7645                20.1278

                     13                     14                     15
                      A                      A                      A
 Frequencies --   1403.9829              1476.4828              1566.1181
 Red. masses --      3.7548                 2.4964                 3.3571
 Frc consts  --      4.3607                 3.2064                 4.8513
 IR Inten    --     15.1972                18.3307                22.8210

                     16                     17                     18
                      A                      A                      A
 Frequencies --   3269.6158              3274.8284              3669.1821
 Red. masses --      1.0964                 1.0991                 1.0825
 Frc consts  --      6.9056                 6.9449                 8.5868
 IR Inten    --      2.8451                 2.3334                68.7912

 - Thermochemistry -
 -------------------
 Temperature   298.150 Kelvin.  Pressure   1.00000 Atm.
 Atom     1 has atomic number  6 and mass  12.00000

 Molecular mass:    69.03270 amu.
 Principal axes and moments of inertia in atomic units:
                           1         2         3
     Eigenvalues --   175.80194 183.79487 359.59681
           X            0.00748   0.99997   0.00000
           Y            0.99997  -0.00748  -0.00000
           Z            0.00000  -0.00000   1.00000
 This molecule is an asymmetric top.
 Rotational symmetry number  1.
 Rotational temperatures (Kelvin)      0.49268     0.47125     0.24086
 Rotational constants (GHZ):          10.26576     9.81932     5.01879
 Zero-point vibrational energy     157441.4 (Joules/Mol)
                                   37.62939 (Kcal/Mol)
 Warning -- explicit consideration of   1 degrees of freedom as
           vibrations may cause significant error
 Vibrational temperatures:    791.54   980.99  1007.81  1214.65  1297.42
          (Kelvin)           1380.67  1423.82  1560.34  1652.38  1712.14
                             1844.69  1912.44  2020.02  2124.33  2253.29
                             4704.24  4711.74  5279.13

 Zero-point correction=                           0.059966 (Hartree/Particle)
 Thermal correction to Energy=                    0.063526
 Thermal correction to Enthalpy=                  0.064470
 Thermal correction to Gibbs Free Energy=         0.033808
 Sum of electronic and zero-point Energies=           -242.195875
 Sum of electronic and thermal Energies=              -242.192315
 Sum of electronic and thermal Enthalpies=            -242.191371
 Sum of electronic and thermal Free Energies=         -242.222032

                     E (Thermal)             CV                S
                      KCal/Mol        Cal/Mol-Kelvin    Cal/Mol-Kelvin
 Total                   39.863             11.967             64.532
 Electronic               0.000              0.000              0.000
 Translational            0.889              2.981             38.613
 Rotational               0.889              2.981             23.967
 Vibrational             38.085              6.005              1.952
 Vibration     1          0.905              1.139              0.544

 Optimization completed.
    -- Stationary point found.
 Normal termination of Gaussian 09 at Sat Aug 21 01:39:51 2021.
