 Gaussian 09, Revision E.01,
 Gaussian 09:  ES64L-G09RevE.01 30-Nov-2015

 ----------------------------
 #P OPT Freq B3LYP/6-31G(d,p)
 ----------------------------

 --------
 Frag_731
 --------
 Symbolic Z-matrix:
 Charge =  0 Multiplicity = 1

 SCF Done:  E(RB3LYP) =  -243.455843565     A.U. after   14 cycles
 SCF Done:  E(RB3LYP) =  -243.455912416     A.U. after   11 cycles
 SCF Done:  E(RB3LYP) =  -243.455917940     A.U. after    9 cycles
 SCF Done:  E(RB3LYP) =  -243.455919346     A.U. after    9 cycles
 SCF Done:  E(RB3LYP) =  -243.455920074     A.U. after    9 cycles
 SCF Done:  E(RB3LYP) =  -243.455920481     A.U. after    8 cycles
 Optimization completed.
    -- Stationary point found.
 Normal termination of Gaussian 09 at Thu Sep  8 15:14:50 2022.

 ----------------------------------------------------------------------
 #P Geom=AllCheck Guess=TCheck SCRF=Check GenChk RB3LYP/6-31G(d,p) Freq
 ----------------------------------------------------------------------

 Structure from the checkpoint file:  "B3LYP6-31Gdp.Frag_731.chk"
 --------
 Frag_731
 --------
 Charge =  0 Multiplicity = 1

                         Standard orientation:
 ---------------------------------------------------------------------
 Center     Atomic      Atomic             Coordinates (Angstroms)
 Number     Number       Type             X           Y           Z
 ---------------------------------------------------------------------
      1          7           0       -1.918261    0.053340    0.040021
      2          6           0       -0.832476   -0.603536   -0.036704
      3          6           0        0.483151    0.124709   -0.004738
      4          7           0        0.610065    1.396542    0.005887
      5          7           0        1.587201   -0.710926   -0.058837
      6          1           0       -2.728686   -0.569265   -0.001911
      7          1           0       -0.778454   -1.697824   -0.133944
      8          1           0       -0.324122    1.812837   -0.033332
      9          1           0        2.463105   -0.235085    0.113357
     10          1           0        1.511077   -1.610403    0.394988
 ---------------------------------------------------------------------

 SCF Done:  E(RB3LYP) =  -243.455920481     A.U. after    1 cycles

 The electronic state is 1-A.
 Alpha  occ. eigenvalues --  -14.34908 -14.34502 -14.29320 -10.25740 -10.25283
 Alpha  occ. eigenvalues --   -0.95296  -0.91138  -0.84523  -0.67215  -0.57058
 Alpha  occ. eigenvalues --   -0.52812  -0.51277  -0.44582  -0.43728  -0.39290
 Alpha  occ. eigenvalues --   -0.32329  -0.28996  -0.25866  -0.23913
 Alpha virt. eigenvalues --   -0.05051   0.06778   0.08258   0.10087   0.14046
 Alpha virt. eigenvalues --    0.14501   0.18947   0.25302   0.31726   0.37768
 Alpha virt. eigenvalues --    0.41423   0.53141   0.54084   0.59212   0.60535

 Mulliken charges:
               1
     1  N   -0.473247
     2  C    0.109361
     3  C    0.438136
     4  N   -0.571214
     5  N   -0.613081
     6  H    0.245342
     7  H    0.083775
     8  H    0.248523
     9  H    0.275164
    10  H    0.257241
 Sum of Mulliken charges =  -0.00000

 Dipole moment (field-independent basis, Debye):
    X=             -0.4444    Y=             -3.8184    Z=              0.7421  Tot=              3.9151
 Quadrupole moment (field-independent basis, Debye-Ang):
   XX=            -25.1307   YY=            -29.3067   ZZ=            -31.0719
   XY=             -0.6435   XZ=              2.1584   YZ=             -1.5349

  Exact polarizability:  53.085  -2.784  48.584  -0.006   0.102  18.053
 Approx polarizability:  75.383  -8.535  82.351  -1.271   1.352  26.177

                      1                      2                      3
                      A                      A                      A
 Frequencies --    126.1930               297.3905               363.5055
 Red. masses --      2.8557                 3.6093                 1.1543
 Frc consts  --      0.0268                 0.1881                 0.0899
 IR Inten    --     13.3740                 2.2416                64.2416

                      4                      5                      6
                      A                      A                      A
 Frequencies --    469.2593               498.8510               623.2398
 Red. masses --      3.1653                 1.6866                 2.1941
 Frc consts  --      0.4107                 0.2473                 0.5021
 IR Inten    --      6.9242               117.2784                73.8528

                      7                      8                      9
                      A                      A                      A
 Frequencies --    658.1983               840.7144               851.5984
 Red. masses --      2.0861                 1.9844                 2.7315
 Frc consts  --      0.5325                 0.8264                 1.1671
 IR Inten    --    117.5672                15.1009                17.4873

                     10                     11                     12
                      A                      A                      A
 Frequencies --    897.8229              1107.4103              1119.5767
 Red. masses --      1.1985                 1.2297                 1.7823
 Frc consts  --      0.5692                 0.8885                 1.3162
 IR Inten    --     94.2029                 8.2317                29.3687

                     13                     14                     15
                      A                      A                      A
 Frequencies --   1164.8974              1224.3176              1397.3705
 Red. masses --      1.2392                 1.2031                 1.5536
 Frc consts  --      0.9908                 1.0625                 1.7873
 IR Inten    --     55.6463               112.1148                37.9632

                     16                     17                     18
                      A                      A                      A
 Frequencies --   1463.7954              1634.7140              1708.8951
 Red. masses --      2.0775                 1.2671                 6.1635
 Frc consts  --      2.6227                 1.9950                10.6050
 IR Inten    --     65.1067                43.7713               118.6354

                     19                     20                     21
                      A                      A                      A
 Frequencies --   1754.4876              3026.5104              3471.4630
 Red. masses --      6.3394                 1.0882                 1.0740
 Frc consts  --     11.4973                 5.8730                 7.6260
 IR Inten    --     48.2273                60.1307                 6.3140

                     22                     23                     24
                      A                      A                      A
 Frequencies --   3473.5148              3570.4471              3688.6361
 Red. masses --      1.0760                 1.0468                 1.1000
 Frc consts  --      7.6491                 7.8623                 8.8184
 IR Inten    --      0.7225                20.3182                21.7423

 - Thermochemistry -
 -------------------
 Temperature   298.150 Kelvin.  Pressure   1.00000 Atm.
 Atom     1 has atomic number  7 and mass  14.00307

 Molecular mass:    71.04835 amu.
 Principal axes and moments of inertia in atomic units:
                           1         2         3
     Eigenvalues --   172.78793 428.69399 599.61042
           X            0.99992  -0.00994   0.00835
           Y            0.01003   0.99989  -0.01061
           Z           -0.00824   0.01069   0.99991
 This molecule is an asymmetric top.
 Rotational symmetry number  1.
 Rotational temperatures (Kelvin)      0.50127     0.20204     0.14445
 Rotational constants (GHZ):          10.44483     4.20986     3.00986
 Zero-point vibrational energy     211935.3 (Joules/Mol)
                                   50.65374 (Kcal/Mol)
 Warning -- explicit consideration of   5 degrees of freedom as
           vibrations may cause significant error
 Vibrational temperatures:    181.56   427.88   523.00   675.16   717.73
          (Kelvin)            896.70   947.00  1209.60  1225.26  1291.77
                             1593.31  1610.82  1676.03  1761.52  2010.50
                             2106.07  2351.99  2458.72  2524.31  4354.47
                             4994.65  4997.61  5137.07  5307.12

 Zero-point correction=                           0.080722 (Hartree/Particle)
 Thermal correction to Energy=                    0.086049
 Thermal correction to Enthalpy=                  0.086994
 Thermal correction to Gibbs Free Energy=         0.052571
 Sum of electronic and zero-point Energies=           -243.375199
 Sum of electronic and thermal Energies=              -243.369871
 Sum of electronic and thermal Enthalpies=            -243.368927
 Sum of electronic and thermal Free Energies=         -243.403350

                     E (Thermal)             CV                S
                      KCal/Mol        Cal/Mol-Kelvin    Cal/Mol-Kelvin
 Total                   53.997             18.498             72.449
 Electronic               0.000              0.000              0.000
 Translational            0.889              2.981             38.699
 Rotational               0.889              2.981             25.299
 Vibrational             52.219             12.536              8.451
 Vibration     1          0.611              1.927              3.003
 Vibration     2          0.691              1.679              1.432
 Vibration     3          0.737              1.547              1.107
 Vibration     4          0.826              1.318              0.740
 Vibration     5          0.854              1.253              0.661

 Optimization completed.
    -- Stationary point found.
 Normal termination of Gaussian 09 at Thu Sep  8 15:14:57 2022.
