 Gaussian 09, Revision E.01,
 Gaussian 09:  ES64L-G09RevE.01 30-Nov-2015

 -------------------------
 #P OPT Freq B3LYP/6-31G**
 -------------------------

 --------
 Frag_278
 --------
 Symbolic Z-matrix:
 Charge =  0 Multiplicity = 1

 SCF Done:  E(RB3LYP) =  -211.351621206     A.U. after   14 cycles
 SCF Done:  E(RB3LYP) =  -211.355343150     A.U. after   12 cycles
 SCF Done:  E(RB3LYP) =  -211.355932054     A.U. after   12 cycles
 SCF Done:  E(RB3LYP) =  -211.355987926     A.U. after   10 cycles
 SCF Done:  E(RB3LYP) =  -211.355989067     A.U. after    8 cycles
 Optimization completed.
    -- Stationary point found.
 Normal termination of Gaussian 09 at Sat Aug 21 01:35:48 2021.

 ----------------------------------------------------------------------
 #P Geom=AllCheck Guess=TCheck SCRF=Check GenChk RB3LYP/6-31G(d,p) Freq
 ----------------------------------------------------------------------

 Structure from the checkpoint file:  "/public/home/users/caep010/.cache/gau_scr/Gau-158723.chk"
 --------
 Frag_278
 --------
 Charge =  0 Multiplicity = 1

                         Standard orientation:
 ---------------------------------------------------------------------
 Center     Atomic      Atomic             Coordinates (Angstroms)
 Number     Number       Type             X           Y           Z
 ---------------------------------------------------------------------
      1          6           0        1.864181   -0.077782   -0.000004
      2          7           0        0.782677   -0.754467    0.000003
      3          6           0       -0.472576   -0.102266    0.000007
      4          6           0       -1.552506   -0.898775   -0.000001
      5          6           0       -0.576101    1.404187    0.000000
      6          1           0        2.812822   -0.615490    0.000001
      7          1           0        1.924391    1.017071   -0.000007
      8          1           0       -1.429453   -1.975783   -0.000008
      9          1           0       -2.559346   -0.495236   -0.000012
     10          1           0       -0.091617    1.840610    0.881809
     11          1           0       -0.091624    1.840603   -0.881817
     12          1           0       -1.621909    1.717311    0.000003
 ---------------------------------------------------------------------

 SCF Done:  E(RB3LYP) =  -211.355989067     A.U. after    1 cycles

 The electronic state is 1-A.
 Alpha  occ. eigenvalues --  -14.33383 -10.22555 -10.22039 -10.18809 -10.18046
 Alpha  occ. eigenvalues --   -0.92503  -0.77789  -0.69737  -0.62887  -0.53044
 Alpha  occ. eigenvalues --   -0.48525  -0.46328  -0.42659  -0.40346  -0.38955
 Alpha  occ. eigenvalues --   -0.37122  -0.34865  -0.25110  -0.24257
 Alpha virt. eigenvalues --   -0.03503   0.06607   0.09969   0.13067   0.14622
 Alpha virt. eigenvalues --    0.15619   0.17386   0.19023   0.19164   0.24789
 Alpha virt. eigenvalues --    0.26435   0.35515   0.36973   0.51519   0.51615

 Mulliken charges:
               1
     1  C   -0.037658
     2  N   -0.374943
     3  C    0.288028
     4  C   -0.257314
     5  C   -0.379176
     6  H    0.106958
     7  H    0.087599
     8  H    0.113397
     9  H    0.095967
    10  H    0.121790
    11  H    0.121791
    12  H    0.113559
 Sum of Mulliken charges =   0.00000

 Dipole moment (field-independent basis, Debye):
    X=              0.0138    Y=              1.6791    Z=             -0.0000  Tot=              1.6791
 Quadrupole moment (field-independent basis, Debye-Ang):
   XX=            -26.8643   YY=            -31.4071   ZZ=            -32.3973
   XY=              1.2572   XZ=              0.0000   YZ=              0.0000

  Exact polarizability:  77.631  10.131  51.417   0.000   0.000  25.538
 Approx polarizability: 125.028  27.182  74.814   0.000  -0.000  36.768

                      1                      2                      3
                      A                      A                      A
 Frequencies --    133.9720               238.5179               327.2720
 Red. masses --      2.8305                 1.0336                 2.6021
 Frc consts  --      0.0299                 0.0346                 0.1642
 IR Inten    --     10.9068                 0.0357                 1.1871

                      4                      5                      6
                      A                      A                      A
 Frequencies --    432.2837               436.4784               556.4411
 Red. masses --      2.1622                 1.8513                 2.9346
 Frc consts  --      0.2381                 0.2078                 0.5353
 IR Inten    --      0.4753                 0.3847                 5.1546

                      7                      8                      9
                      A                      A                      A
 Frequencies --    680.2747               808.8776               819.2693
 Red. masses --      1.0667                 3.9176                 1.3310
 Frc consts  --      0.2908                 1.5102                 0.5264
 IR Inten    --      0.8977                 1.6089                 0.0599

                     10                     11                     12
                      A                      A                      A
 Frequencies --    941.6854               962.7665              1024.0758
 Red. masses --      1.3461                 1.7357                 1.4053
 Frc consts  --      0.7033                 0.9479                 0.8683
 IR Inten    --     38.7995                 4.4538                 4.7268

                     13                     14                     15
                      A                      A                      A
 Frequencies --   1035.9678              1072.8344              1216.2432
 Red. masses --      1.3599                 1.5694                 1.5492
 Frc consts  --      0.8599                 1.0643                 1.3502
 IR Inten    --     18.1707                 0.7783                 2.4699

                     16                     17                     18
                      A                      A                      A
 Frequencies --   1301.6807              1413.1235              1439.4580
 Red. masses --      2.8414                 1.2193                 1.2687
 Frc consts  --      2.8366                 1.4345                 1.5489
 IR Inten    --     23.1168                 5.2923                 3.6225

                     19                     20                     21
                      A                      A                      A
 Frequencies --   1494.7810              1499.4199              1519.2131
 Red. masses --      1.0445                 1.1030                 1.1516
 Frc consts  --      1.3750                 1.4610                 1.5659
 IR Inten    --      6.7240                 7.9103                 2.7455

                     22                     23                     24
                      A                      A                      A
 Frequencies --   1695.2187              1720.3914              3035.3305
 Red. masses --      5.1982                 4.8316                 1.0406
 Frc consts  --      8.8015                 8.4256                 5.6485
 IR Inten    --     14.9236                 2.7512                 6.7215

                     25                     26                     27
                      A                      A                      A
 Frequencies --   3051.5258              3088.5541              3140.8514
 Red. masses --      1.0583                 1.1001                 1.0993
 Frc consts  --      5.8064                 6.1830                 6.3894
 IR Inten    --     41.2554                20.4045                15.0464

                     28                     29                     30
                      A                      A                      A
 Frequencies --   3161.3040              3175.0373              3270.9297
 Red. masses --      1.1092                 1.0602                 1.1176
 Frc consts  --      6.5313                 6.2969                 7.0449
 IR Inten    --     31.1103                 4.1762                 6.7631

 - Thermochemistry -
 -------------------
 Temperature   298.150 Kelvin.  Pressure   1.00000 Atm.
 Atom     1 has atomic number  6 and mass  12.00000

 Molecular mass:    69.05785 amu.
 Principal axes and moments of inertia in atomic units:
                           1         2         3
     Eigenvalues --   208.24465 394.52154 591.57192
           X            0.99976   0.02181   0.00000
           Y           -0.02181   0.99976   0.00000
           Z           -0.00000  -0.00000   1.00000
 This molecule is an asymmetric top.
 Rotational symmetry number  1.
 Rotational temperatures (Kelvin)      0.41592     0.21954     0.14641
 Rotational constants (GHZ):           8.66645     4.57451     3.05076
 Zero-point vibrational energy     267328.2 (Joules/Mol)
                                   63.89296 (Kcal/Mol)
 Warning -- explicit consideration of   6 degrees of freedom as
           vibrations may cause significant error
 Vibrational temperatures:    192.76   343.17   470.87   621.96   627.99
          (Kelvin)            800.59   978.76  1163.79  1178.74  1354.87
                             1385.20  1473.41  1490.52  1543.57  1749.90
                             1872.83  2033.17  2071.06  2150.65  2157.33
                             2185.81  2439.04  2475.26  4367.16  4390.46
                             4443.73  4518.98  4548.41  4568.16  4706.13

 Zero-point correction=                           0.101820 (Hartree/Particle)
 Thermal correction to Energy=                    0.107465
 Thermal correction to Enthalpy=                  0.108409
 Thermal correction to Gibbs Free Energy=         0.073474
 Sum of electronic and zero-point Energies=           -211.254169
 Sum of electronic and thermal Energies=              -211.248524
 Sum of electronic and thermal Enthalpies=            -211.247580
 Sum of electronic and thermal Free Energies=         -211.282515

                     E (Thermal)             CV                S
                      KCal/Mol        Cal/Mol-Kelvin    Cal/Mol-Kelvin
 Total                   67.435             20.012             73.526
 Electronic               0.000              0.000              0.000
 Translational            0.889              2.981             38.614
 Rotational               0.889              2.981             25.389
 Vibrational             65.658             14.051              9.523
 Vibration     1          0.613              1.919              2.888
 Vibration     2          0.656              1.782              1.814
 Vibration     3          0.711              1.621              1.274
 Vibration     4          0.793              1.400              0.851
 Vibration     5          0.797              1.391              0.838
 Vibration     6          0.912              1.126              0.531

 Optimization completed.
    -- Stationary point found.
 Normal termination of Gaussian 09 at Sat Aug 21 01:35:56 2021.
