 Gaussian 09, Revision E.01,
 Gaussian 09:  ES64L-G09RevE.01 30-Nov-2015

 -------------------------
 #P OPT Freq B3LYP/6-31G**
 -------------------------

 --------
 Frag_243
 --------
 Symbolic Z-matrix:
 Charge =  0 Multiplicity = 1

 SCF Done:  E(RB3LYP) =  -273.000238361     A.U. after   13 cycles
 SCF Done:  E(RB3LYP) =  -273.003667168     A.U. after   10 cycles
 SCF Done:  E(RB3LYP) =  -273.003867058     A.U. after   10 cycles
 SCF Done:  E(RB3LYP) =  -273.003903979     A.U. after   10 cycles
 SCF Done:  E(RB3LYP) =  -273.003913396     A.U. after    9 cycles
 SCF Done:  E(RB3LYP) =  -273.003917443     A.U. after    7 cycles
 SCF Done:  E(RB3LYP) =  -273.003920783     A.U. after    8 cycles
 SCF Done:  E(RB3LYP) =  -273.003921772     A.U. after    7 cycles
 SCF Done:  E(RB3LYP) =  -273.003921960     A.U. after    6 cycles
 Optimization completed.
    -- Stationary point found.
 Normal termination of Gaussian 09 at Sat Aug 21 01:37:44 2021.

 ----------------------------------------------------------------------
 #P Geom=AllCheck Guess=TCheck SCRF=Check GenChk RB3LYP/6-31G(d,p) Freq
 ----------------------------------------------------------------------

 Structure from the checkpoint file:  "/public/home/users/caep010/.cache/gau_scr/Gau-205858.chk"
 --------
 Frag_243
 --------
 Charge =  0 Multiplicity = 1

                         Standard orientation:
 ---------------------------------------------------------------------
 Center     Atomic      Atomic             Coordinates (Angstroms)
 Number     Number       Type             X           Y           Z
 ---------------------------------------------------------------------
      1          6           0       -2.164568   -0.044277   -0.036296
      2          6           0       -0.851709   -0.702166   -0.473938
      3          6           0        0.439711   -0.002331    0.014634
      4          6           0        0.590910    1.408889   -0.574588
      5          6           0        1.657706   -0.859287   -0.340060
      6          8           0        0.450137    0.069775    1.451031
      7          1           0       -3.022365   -0.625849   -0.387538
      8          1           0       -2.238071    0.005535    1.055914
      9          1           0       -2.276314    0.970383   -0.432633
     10          1           0       -0.829972   -1.731735   -0.097193
     11          1           0       -0.821921   -0.767722   -1.569277
     12          1           0        0.627366    1.383286   -1.668781
     13          1           0        1.513701    1.868022   -0.208291
     14          1           0       -0.244082    2.057805   -0.286586
     15          1           0        2.575155   -0.379580    0.012759
     16          1           0        1.732894   -1.004525   -1.422168
     17          1           0        1.580904   -1.839884    0.138653
     18          1           0       -0.230695    0.701097    1.718382
 ---------------------------------------------------------------------

 SCF Done:  E(RB3LYP) =  -273.003921960     A.U. after    1 cycles

 The electronic state is 1-A.
 Alpha  occ. eigenvalues --  -19.13297 -10.23621 -10.17802 -10.17769 -10.17365
 Alpha  occ. eigenvalues --  -10.16732  -1.00765  -0.78998  -0.73450  -0.68727
 Alpha  occ. eigenvalues --   -0.62639  -0.55656  -0.48631  -0.45554  -0.43671
 Alpha  occ. eigenvalues --   -0.43268  -0.39804  -0.38565  -0.37450  -0.36252
 Alpha  occ. eigenvalues --   -0.34956  -0.34152  -0.33183  -0.30760  -0.25850
 Alpha virt. eigenvalues --    0.06744   0.10980   0.12044   0.13461   0.14100
 Alpha virt. eigenvalues --    0.15359   0.16723   0.17187   0.19376   0.20023
 Alpha virt. eigenvalues --    0.21235   0.22451   0.23134   0.24139   0.25490

 Mulliken charges:
               1
     1  C   -0.340817
     2  C   -0.155699
     3  C    0.260278
     4  C   -0.319995
     5  C   -0.299523
     6  O   -0.552994
     7  H    0.107988
     8  H    0.098337
     9  H    0.104473
    10  H    0.098586
    11  H    0.086044
    12  H    0.100167
    13  H    0.111689
    14  H    0.090180
    15  H    0.107089
    16  H    0.094857
    17  H    0.110235
    18  H    0.299104
 Sum of Mulliken charges =  -0.00000

 Dipole moment (field-independent basis, Debye):
    X=             -0.9410    Y=              0.7305    Z=             -0.9402  Tot=              1.5176
 Quadrupole moment (field-independent basis, Debye-Ang):
   XX=            -39.5625   YY=            -38.7598   ZZ=            -40.6662
   XY=             -0.2707   XZ=             -2.2286   YZ=              1.7028

  Exact polarizability:  63.009  -0.764  56.480  -1.118   0.589  54.749
 Approx polarizability:  78.376  -1.463  76.470  -0.263   0.744  80.477

                      1                      2                      3
                      A                      A                      A
 Frequencies --     88.9074               217.9087               238.7520
 Red. masses --      1.8476                 1.0554                 1.2198
 Frc consts  --      0.0086                 0.0295                 0.0410
 IR Inten    --      0.8315                 6.5635                 5.7902

                      4                      5                      6
                      A                      A                      A
 Frequencies --    255.3530               268.9853               318.5336
 Red. masses --      2.2443                 1.1007                 1.0918
 Frc consts  --      0.0862                 0.0469                 0.0653
 IR Inten    --      2.0189                 9.4088                90.6514

                      7                      8                      9
                      A                      A                      A
 Frequencies --    342.4592               369.4670               413.3583
 Red. masses --      2.2173                 2.3468                 2.2756
 Frc consts  --      0.1532                 0.1887                 0.2291
 IR Inten    --      0.8894                11.0082                 1.2439

                     10                     11                     12
                      A                      A                      A
 Frequencies --    458.3553               522.9218               724.5920
 Red. masses --      2.7478                 2.6726                 3.1624
 Frc consts  --      0.3401                 0.4306                 0.9783
 IR Inten    --     12.3249                 4.1188                 1.8399

                     13                     14                     15
                      A                      A                      A
 Frequencies --    784.7106               888.8684               935.5868
 Red. masses --      1.2242                 2.0479                 1.5434
 Frc consts  --      0.4441                 0.9533                 0.7959
 IR Inten    --      2.1083                 7.1862                 0.8601

                     16                     17                     18
                      A                      A                      A
 Frequencies --    956.0618              1006.2828              1011.4062
 Red. masses --      2.2730                 1.4059                 1.5001
 Frc consts  --      1.2241                 0.8388                 0.9041
 IR Inten    --     39.3064                 0.1539                 3.9927

                     19                     20                     21
                      A                      A                      A
 Frequencies --   1051.2945              1080.7491              1152.2651
 Red. masses --      1.5275                 1.8277                 1.5875
 Frc consts  --      0.9947                 1.2578                 1.2419
 IR Inten    --     13.2065                 3.0937                41.3370

                     22                     23                     24
                      A                      A                      A
 Frequencies --   1228.8480              1256.9479              1328.6438
 Red. masses --      2.2312                 2.4675                 1.2674
 Frc consts  --      1.9851                 2.2969                 1.3182
 IR Inten    --     25.5458                32.4709                 3.8289

                     25                     26                     27
                      A                      A                      A
 Frequencies --   1338.7102              1393.1641              1417.7819
 Red. masses --      1.5177                 1.3836                 1.3471
 Frc consts  --      1.6026                 1.5822                 1.5954
 IR Inten    --     33.2870                 8.8430                17.1358

                     28                     29                     30
                      A                      A                      A
 Frequencies --   1424.1472              1430.8097              1486.2652
 Red. masses --      1.3739                 1.2761                 1.0729
 Frc consts  --      1.6418                 1.5393                 1.3964
 IR Inten    --     10.0604                 4.7057                 0.0089

                     31                     32                     33
                      A                      A                      A
 Frequencies --   1497.4358              1504.5352              1513.4452
 Red. masses --      1.0530                 1.0607                 1.0721
 Frc consts  --      1.3911                 1.4147                 1.4469
 IR Inten    --      0.3898                 3.1548                 3.6204

                     34                     35                     36
                      A                      A                      A
 Frequencies --   1517.8468              1524.1062              1527.7423
 Red. masses --      1.0469                 1.0498                 1.0535
 Frc consts  --      1.4210                 1.4368                 1.4487
 IR Inten    --      6.0087                 4.7969                 1.9477

                     37                     38                     39
                      A                      A                      A
 Frequencies --   3034.1390              3039.8148              3043.0207
 Red. masses --      1.0577                 1.0384                 1.0365
 Frc consts  --      5.7370                 5.6532                 5.6548
 IR Inten    --     21.3349                 9.4544                34.9027

                     40                     41                     42
                      A                      A                      A
 Frequencies --   3052.7788              3074.5834              3106.5406
 Red. masses --      1.0362                 1.1025                 1.1010
 Frc consts  --      5.6898                 6.1403                 6.2604
 IR Inten    --     14.8606                 9.1120                43.0534

                     43                     44                     45
                      A                      A                      A
 Frequencies --   3109.8735              3117.1717              3124.0558
 Red. masses --      1.1012                 1.1016                 1.1028
 Frc consts  --      6.2747                 6.3067                 6.3416
 IR Inten    --     30.8044                33.6718                 3.4084

                     46                     47                     48
                      A                      A                      A
 Frequencies --   3129.7121              3131.7599              3812.2013
 Red. masses --      1.1027                 1.1026                 1.0660
 Frc consts  --      6.3639                 6.3716                 9.1274
 IR Inten    --     39.6765                44.0077                 5.5882

 - Thermochemistry -
 -------------------
 Temperature   298.150 Kelvin.  Pressure   1.00000 Atm.
 Atom     1 has atomic number  6 and mass  12.00000

 Molecular mass:    88.08882 amu.
 Principal axes and moments of inertia in atomic units:
                           1         2         3
     Eigenvalues --   399.60695 703.75074 721.55910
           X            0.99952  -0.00829  -0.02998
           Y            0.01002   0.99826   0.05805
           Z            0.02945  -0.05832   0.99786
 This molecule is an asymmetric top.
 Rotational symmetry number  1.
 Rotational temperatures (Kelvin)      0.21675     0.12307     0.12004
 Rotational constants (GHZ):           4.51629     2.56446     2.50117
 Zero-point vibrational energy     432168.3 (Joules/Mol)
                                  103.29071 (Kcal/Mol)
 Warning -- explicit consideration of  11 degrees of freedom as
           vibrations may cause significant error
 Vibrational temperatures:    127.92   313.52   343.51   367.40   387.01
          (Kelvin)            458.30   492.72   531.58   594.73   659.47
                              752.37  1042.52  1129.02  1278.88  1346.10
                             1375.56  1447.81  1455.19  1512.58  1554.95
                             1657.85  1768.04  1808.47  1911.62  1926.10
                             2004.45  2039.87  2049.03  2058.61  2138.40
                             2154.47  2164.69  2177.51  2183.84  2192.85
                             2198.08  4365.44  4373.61  4378.22  4392.26
                             4423.63  4469.61  4474.41  4484.91  4494.81
                             4502.95  4505.90  5484.90

 Zero-point correction=                           0.164604 (Hartree/Particle)
 Thermal correction to Energy=                    0.172627
 Thermal correction to Enthalpy=                  0.173571
 Thermal correction to Gibbs Free Energy=         0.133507
 Sum of electronic and zero-point Energies=           -272.839318
 Sum of electronic and thermal Energies=              -272.831295
 Sum of electronic and thermal Enthalpies=            -272.830351
 Sum of electronic and thermal Free Energies=         -272.870415

                     E (Thermal)             CV                S
                      KCal/Mol        Cal/Mol-Kelvin    Cal/Mol-Kelvin
 Total                  108.325             29.725             84.321
 Electronic               0.000              0.000              0.000
 Translational            0.889              2.981             39.340
 Rotational               0.889              2.981             26.809
 Vibrational            106.548             23.764             18.172
 Vibration     1          0.602              1.957              3.684
 Vibration     2          0.646              1.814              1.976
 Vibration     3          0.657              1.781              1.812
 Vibration     4          0.666              1.754              1.693
 Vibration     5          0.673              1.730              1.603
 Vibration     6          0.705              1.638              1.318
 Vibration     7          0.722              1.591              1.201
 Vibration     8          0.742              1.535              1.082
 Vibration     9          0.777              1.441              0.915
 Vibration    10          0.816              1.342              0.771
 Vibration    11          0.878              1.199              0.603

 Optimization completed.
    -- Stationary point found.
 Normal termination of Gaussian 09 at Sat Aug 21 01:38:00 2021.
