 Gaussian 09, Revision E.01,
 Gaussian 09:  ES64L-G09RevE.01 30-Nov-2015

 ----------------------------
 #P OPT Freq B3LYP/6-31G(d,p)
 ----------------------------

 --------
 Frag_983
 --------
 Symbolic Z-matrix:
 Charge =  0 Multiplicity = 1

 SCF Done:  E(RB3LYP) =  -244.602311440     A.U. after   14 cycles
 SCF Done:  E(RB3LYP) =  -244.602376869     A.U. after    9 cycles
 SCF Done:  E(RB3LYP) =  -244.602380050     A.U. after    8 cycles
 SCF Done:  E(RB3LYP) =  -244.602380835     A.U. after    8 cycles
 Optimization completed.
    -- Stationary point found.
 Normal termination of Gaussian 09 at Thu Sep  8 15:22:50 2022.

 ----------------------------------------------------------------------
 #P Geom=AllCheck Guess=TCheck SCRF=Check GenChk RB3LYP/6-31G(d,p) Freq
 ----------------------------------------------------------------------

 Structure from the checkpoint file:  "B3LYP6-31Gdp.Frag_983.chk"
 --------
 Frag_983
 --------
 Charge =  0 Multiplicity = 1

                         Standard orientation:
 ---------------------------------------------------------------------
 Center     Atomic      Atomic             Coordinates (Angstroms)
 Number     Number       Type             X           Y           Z
 ---------------------------------------------------------------------
      1          6           0       -1.880359   -0.128432   -0.000001
      2          7           0       -0.587515   -0.785756    0.000002
      3          7           0        0.381113    0.061127   -0.000001
      4          6           0        1.724319   -0.566990   -0.000000
      5          7           0        0.246738    1.355011    0.000001
      6          1           0       -2.002503    0.522654   -0.877938
      7          1           0       -2.646680   -0.905204    0.000004
      8          1           0       -2.002502    0.522662    0.877931
      9          1           0        2.259606   -0.238922    0.893527
     10          1           0        1.592824   -1.645799   -0.000002
     11          1           0        2.259608   -0.238919   -0.893526
     12          1           0        1.193534    1.743391    0.000000
 ---------------------------------------------------------------------

 SCF Done:  E(RB3LYP) =  -244.602380835     A.U. after    1 cycles

 The electronic state is 1-A.
 Alpha  occ. eigenvalues --  -14.48049 -14.33932 -14.32867 -10.24013 -10.19155
 Alpha  occ. eigenvalues --   -1.08314  -0.88216  -0.78867  -0.69663  -0.56938
 Alpha  occ. eigenvalues --   -0.53406  -0.49831  -0.48475  -0.43622  -0.42108
 Alpha  occ. eigenvalues --   -0.38743  -0.36275  -0.28566  -0.27263  -0.21445
 Alpha virt. eigenvalues --   -0.01776   0.07897   0.11743   0.14025   0.14826
 Alpha virt. eigenvalues --    0.15135   0.16452   0.18743   0.19459   0.21391
 Alpha virt. eigenvalues --    0.30368   0.37416   0.49448   0.51920   0.53192

 Mulliken charges:
               1
     1  C   -0.173080
     2  N   -0.298783
     3  N    0.030430
     4  C   -0.184992
     5  N   -0.403969
     6  H    0.123275
     7  H    0.108822
     8  H    0.123275
     9  H    0.144314
    10  H    0.162731
    11  H    0.144314
    12  H    0.223664
 Sum of Mulliken charges =  -0.00000

 Dipole moment (field-independent basis, Debye):
    X=              2.5469    Y=             -0.3065    Z=             -0.0000  Tot=              2.5652
 Quadrupole moment (field-independent basis, Debye-Ang):
   XX=            -24.1400   YY=            -34.6374   ZZ=            -31.2428
   XY=              0.5334   XZ=              0.0000   YZ=              0.0000

  Exact polarizability:  58.490   7.140  49.344   0.000  -0.000  29.617
 Approx polarizability:  77.441  23.045  98.831  -0.000  -0.000  41.204

                      1                      2                      3
                      A                      A                      A
 Frequencies --    110.4607               248.7989               254.2235
 Red. masses --      1.1149                 1.7964                 1.2290
 Frc consts  --      0.0080                 0.0655                 0.0468
 IR Inten    --      0.9731                14.8733                 2.1337

                      4                      5                      6
                      A                      A                      A
 Frequencies --    337.0408               472.7411               567.6473
 Red. masses --      2.8989                 2.8480                 2.5742
 Frc consts  --      0.1940                 0.3750                 0.4887
 IR Inten    --     13.5502                 0.3278                39.0226

                      7                      8                      9
                      A                      A                      A
 Frequencies --    641.4644               728.1209               914.6530
 Red. masses --      3.5854                 1.3922                 3.4911
 Frc consts  --      0.8692                 0.4349                 1.7208
 IR Inten    --      8.5950                25.3804                 3.5610

                     10                     11                     12
                      A                      A                      A
 Frequencies --   1030.3638              1093.4403              1131.3040
 Red. masses --      2.9315                 1.3867                 1.8481
 Frc consts  --      1.8337                 0.9768                 1.3936
 IR Inten    --     32.7263                 1.0053                 5.4302

                     13                     14                     15
                      A                      A                      A
 Frequencies --   1147.1023              1177.2264              1306.9167
 Red. masses --      1.3882                 1.6225                 2.4015
 Frc consts  --      1.0763                 1.3248                 2.4167
 IR Inten    --      0.0201                 4.1999                40.2622

                     16                     17                     18
                      A                      A                      A
 Frequencies --   1402.8894              1430.1992              1444.9181
 Red. masses --      2.4617                 1.2451                 1.2895
 Frc consts  --      2.8546                 1.5006                 1.5862
 IR Inten    --    175.4234                28.0068                 7.1291

                     19                     20                     21
                      A                      A                      A
 Frequencies --   1482.8927              1487.4406              1491.8365
 Red. masses --      1.0443                 1.0849                 1.0584
 Frc consts  --      1.3530                 1.4143                 1.3879
 IR Inten    --      7.1072                13.3298                 2.9065

                     22                     23                     24
                      A                      A                      A
 Frequencies --   1498.3437              1638.3911              3002.5787
 Red. masses --      1.0441                 2.8748                 1.0372
 Frc consts  --      1.3810                 4.5466                 5.5095
 IR Inten    --     10.3549                57.5886                25.5453

                     25                     26                     27
                      A                      A                      A
 Frequencies --   3047.3952              3075.6100              3143.9413
 Red. masses --      1.0999                 1.0328                 1.0996
 Frc consts  --      6.0180                 5.7564                 6.4035
 IR Inten    --     26.7314                13.6761                26.9592

                     28                     29                     30
                      A                      A                      A
 Frequencies --   3156.4700              3211.1462              3444.5649
 Red. masses --      1.1061                 1.1051                 1.0749
 Frc consts  --      6.4933                 6.7136                 7.5144
 IR Inten    --      8.8059                 0.8117                 0.7402

 - Thermochemistry -
 -------------------
 Temperature   298.150 Kelvin.  Pressure   1.00000 Atm.
 Atom     1 has atomic number  6 and mass  12.00000

 Molecular mass:    73.06400 amu.
 Principal axes and moments of inertia in atomic units:
                           1         2         3
     Eigenvalues --   174.57479 422.94551 574.93063
           X            0.99982  -0.01887   0.00000
           Y            0.01887   0.99982   0.00000
           Z           -0.00000  -0.00000   1.00000
 This molecule is an asymmetric top.
 Rotational symmetry number  1.
 Rotational temperatures (Kelvin)      0.49614     0.20479     0.15065
 Rotational constants (GHZ):          10.33793     4.26708     3.13906
 Zero-point vibrational energy     269878.3 (Joules/Mol)
                                   64.50245 (Kcal/Mol)
 Warning -- explicit consideration of   6 degrees of freedom as
           vibrations may cause significant error
 Vibrational temperatures:    158.93   357.97   365.77   484.93   680.17
          (Kelvin)            816.72   922.92  1047.60  1315.98  1482.46
                             1573.21  1627.69  1650.42  1693.76  1880.36
                             2018.44  2057.74  2078.91  2133.55  2140.09
                             2146.42  2155.78  2357.28  4320.04  4384.52
                             4425.11  4523.42  4541.45  4620.12  4955.95

 Zero-point correction=                           0.102791 (Hartree/Particle)
 Thermal correction to Energy=                    0.108572
 Thermal correction to Enthalpy=                  0.109516
 Thermal correction to Gibbs Free Energy=         0.074156
 Sum of electronic and zero-point Energies=           -244.499590
 Sum of electronic and thermal Energies=              -244.493809
 Sum of electronic and thermal Enthalpies=            -244.492865
 Sum of electronic and thermal Free Energies=         -244.528225

                     E (Thermal)             CV                S
                      KCal/Mol        Cal/Mol-Kelvin    Cal/Mol-Kelvin
 Total                   68.130             19.778             74.422
 Electronic               0.000              0.000              0.000
 Translational            0.889              2.981             38.783
 Rotational               0.889              2.981             25.254
 Vibrational             66.352             13.816             10.385
 Vibration     1          0.606              1.941              3.261
 Vibration     2          0.662              1.765              1.739
 Vibration     3          0.665              1.756              1.701
 Vibration     4          0.718              1.602              1.226
 Vibration     5          0.830              1.311              0.730
 Vibration     6          0.924              1.101              0.509

 Optimization completed.
    -- Stationary point found.
 Normal termination of Gaussian 09 at Thu Sep  8 15:22:58 2022.
