 Gaussian 09, Revision E.01,
 Gaussian 09:  ES64L-G09RevE.01 30-Nov-2015

 ----------------------------
 #P OPT Freq B3LYP/6-31G(d,p)
 ----------------------------

 ---------
 Frag_1035
 ---------
 Symbolic Z-matrix:
 Charge =  0 Multiplicity = 1

 SCF Done:  E(RB3LYP) =  -367.578253839     A.U. after   14 cycles
 SCF Done:  E(RB3LYP) =  -367.578309139     A.U. after   10 cycles
 SCF Done:  E(RB3LYP) =  -367.578314888     A.U. after    8 cycles
 SCF Done:  E(RB3LYP) =  -367.578315830     A.U. after    8 cycles
 SCF Done:  E(RB3LYP) =  -367.578316124     A.U. after    8 cycles
 SCF Done:  E(RB3LYP) =  -367.578317200     A.U. after    8 cycles
 Optimization completed.
    -- Stationary point found.
 Normal termination of Gaussian 09 at Thu Sep  8 14:45:49 2022.

 ----------------------------------------------------------------------
 #P Geom=AllCheck Guess=TCheck SCRF=Check GenChk RB3LYP/6-31G(d,p) Freq
 ----------------------------------------------------------------------

 Structure from the checkpoint file:  "B3LYP6-31Gdp.Frag_1035.chk"
 ---------
 Frag_1035
 ---------
 Charge =  0 Multiplicity = 1

                         Standard orientation:
 ---------------------------------------------------------------------
 Center     Atomic      Atomic             Coordinates (Angstroms)
 Number     Number       Type             X           Y           Z
 ---------------------------------------------------------------------
      1          6           0       -1.253362    0.000097    1.514401
      2          6           0       -0.803436    0.000002    0.048457
      3          6           0       -1.303337   -1.250389   -0.685115
      4          6           0       -1.303364    1.250282   -0.685287
      5          7           0        0.788978    0.000003   -0.103861
      6          6           0        1.402047   -1.214154    0.541008
      7          6           0        1.402051    1.214166    0.540993
      8          8           0        1.129894   -0.000005   -1.417821
      9          1           0       -0.921452    0.889031    2.057995
     10          1           0       -2.348230    0.000098    1.540173
     11          1           0       -0.921451   -0.888766    2.058111
     12          1           0       -2.377610   -1.161199   -0.868377
     13          1           0       -1.147448   -2.166135   -0.106919
     14          1           0       -0.775465   -1.324406   -1.637880
     15          1           0       -2.377631    1.161037   -0.868554
     16          1           0       -1.147510    2.166110   -0.107211
     17          1           0       -0.775482    1.324186   -1.638056
     18          1           0        2.471513   -1.141148    0.350366
     19          1           0        1.017296   -2.092897    0.031320
     20          1           0        1.204525   -1.263204    1.615131
     21          1           0        1.017321    2.092905    0.031282
     22          1           0        2.471519    1.141142    0.350371
     23          1           0        1.204511    1.263239    1.615112
 ---------------------------------------------------------------------

 SCF Done:  E(RB3LYP) =  -367.578317200     A.U. after    1 cycles

 The electronic state is 1-A.
 Alpha  occ. eigenvalues --  -19.04581 -14.45518 -10.23535 -10.21373 -10.21372
 Alpha  occ. eigenvalues --  -10.18975 -10.17039 -10.17039  -1.03257  -0.82563
 Alpha  occ. eigenvalues --   -0.78760  -0.72880  -0.69628  -0.67927  -0.64264
 Alpha  occ. eigenvalues --   -0.54637  -0.50055  -0.48182  -0.46021  -0.44742
 Alpha  occ. eigenvalues --   -0.44512  -0.41628  -0.40069  -0.39227  -0.39153
 Alpha  occ. eigenvalues --   -0.37846  -0.37527  -0.36392  -0.35223  -0.33358
 Alpha  occ. eigenvalues --   -0.32943  -0.18604  -0.18346
 Alpha virt. eigenvalues --    0.06712   0.08942   0.11634   0.11846   0.12073
 Alpha virt. eigenvalues --    0.14030   0.14675   0.15186   0.15836   0.15853
 Alpha virt. eigenvalues --    0.17789   0.18661   0.19380   0.20304   0.20595

 Mulliken charges:
               1
     1  C   -0.323271
     2  C    0.179017
     3  C   -0.326431
     4  C   -0.326426
     5  N   -0.124603
     6  C   -0.142841
     7  C   -0.142840
     8  O   -0.564634
     9  H    0.106291
    10  H    0.117438
    11  H    0.106289
    12  H    0.100045
    13  H    0.091091
    14  H    0.157800
    15  H    0.100042
    16  H    0.091089
    17  H    0.157805
    18  H    0.134312
    19  H    0.139589
    20  H    0.098169
    21  H    0.139588
    22  H    0.134312
    23  H    0.098169
 Sum of Mulliken charges =  -0.00000

 Dipole moment (field-independent basis, Debye):
    X=             -1.1287    Y=              0.0000    Z=              3.8464  Tot=              4.0086
 Quadrupole moment (field-independent basis, Debye-Ang):
   XX=            -50.6542   YY=            -49.3318   ZZ=            -56.8427
   XY=              0.0001   XZ=              5.2263   YZ=             -0.0000

  Exact polarizability:  81.966  -0.000  74.362   1.058  -0.000  74.233
 Approx polarizability: 111.408  -0.000 102.704  -3.583  -0.000 114.785

                      1                      2                      3
                      A                      A                      A
 Frequencies --     79.1823               185.2832               242.0065
 Red. masses --      2.4532                 1.0249                 1.1698
 Frc consts  --      0.0091                 0.0207                 0.0404
 IR Inten    --      3.2128                 0.0002                 0.4536

                      4                      5                      6
                      A                      A                      A
 Frequencies --    253.0677               266.7894               276.6433
 Red. masses --      1.0654                 1.2567                 1.1871
 Frc consts  --      0.0402                 0.0527                 0.0535
 IR Inten    --      2.4154                 0.1838                 1.3993

                      7                      8                      9
                      A                      A                      A
 Frequencies --    302.5690               322.6367               353.7566
 Red. masses --      2.5112                 1.9034                 2.2560
 Frc consts  --      0.1354                 0.1167                 0.1663
 IR Inten    --      4.8783                 0.4327                 1.6835

                     10                     11                     12
                      A                      A                      A
 Frequencies --    375.4298               392.4148               423.7266
 Red. masses --      3.3815                 2.5213                 2.0907
 Frc consts  --      0.2808                 0.2288                 0.2212
 IR Inten    --     14.6543                 2.5406                 3.2279

                     13                     14                     15
                      A                      A                      A
 Frequencies --    426.0190               481.1337               514.6990
 Red. masses --      2.7802                 2.7966                 2.3664
 Frc consts  --      0.2973                 0.3814                 0.3693
 IR Inten    --      5.1094                 6.2015                 5.0433

                     16                     17                     18
                      A                      A                      A
 Frequencies --    516.6936               622.4568               790.8163
 Red. masses --      3.7489                 3.1731                 3.0052
 Frc consts  --      0.5897                 0.7244                 1.1073
 IR Inten    --     10.8218                 3.2650                 1.1631

                     19                     20                     21
                      A                      A                      A
 Frequencies --    857.5704               930.3358               935.9249
 Red. masses --      3.3103                 1.9541                 1.5344
 Frc consts  --      1.4343                 0.9965                 0.7919
 IR Inten    --      4.6949                 0.0016                 0.5881

                     22                     23                     24
                      A                      A                      A
 Frequencies --    942.8277               970.9417               980.0818
 Red. masses --      1.5983                 1.2496                 4.3531
 Frc consts  --      0.8371                 0.6941                 2.4636
 IR Inten    --      0.1423                 2.2361                25.2584

                     25                     26                     27
                      A                      A                      A
 Frequencies --   1041.2562              1057.1458              1099.7157
 Red. masses --      1.3184                 1.4717                 1.2538
 Frc consts  --      0.8422                 0.9690                 0.8934
 IR Inten    --      1.1545                 1.1699                 2.6689

                     28                     29                     30
                      A                      A                      A
 Frequencies --   1193.8149              1206.4746              1210.3992
 Red. masses --      1.6930                 2.3861                 1.9561
 Frc consts  --      1.4216                 2.0464                 1.6885
 IR Inten    --     12.6324                 0.7811                44.2616

                     31                     32                     33
                      A                      A                      A
 Frequencies --   1254.3816              1281.0463              1288.4726
 Red. masses --      1.7861                 2.8217                 2.8488
 Frc consts  --      1.6558                 2.7283                 2.7865
 IR Inten    --      2.5231                 2.9258                 0.6512

                     34                     35                     36
                      A                      A                      A
 Frequencies --   1388.5191              1402.0307              1416.0961
 Red. masses --      1.2965                 1.2461                 1.1660
 Frc consts  --      1.4727                 1.4432                 1.3777
 IR Inten    --     15.9127                23.0442                 0.8618

                     37                     38                     39
                      A                      A                      A
 Frequencies --   1428.7206              1449.6784              1477.4738
 Red. masses --      1.2321                 1.1859                 1.0500
 Frc consts  --      1.4818                 1.4684                 1.3504
 IR Inten    --     17.1104                 0.8371                 1.0096

                     40                     41                     42
                      A                      A                      A
 Frequencies --   1483.6326              1498.0000              1504.2283
 Red. masses --      1.0498                 1.0514                 1.0497
 Frc consts  --      1.3615                 1.3901                 1.3994
 IR Inten    --      3.5655                 3.0871                 3.0571

                     43                     44                     45
                      A                      A                      A
 Frequencies --   1508.2357              1514.2696              1518.2804
 Red. masses --      1.0505                 1.0566                 1.0470
 Frc consts  --      1.4080                 1.4275                 1.4220
 IR Inten    --      5.6960                11.1214                 2.8194

                     46                     47                     48
                      A                      A                      A
 Frequencies --   1523.2959              1534.3873              1546.7047
 Red. masses --      1.0501                 1.0573                 1.0522
 Frc consts  --      1.4357                 1.4666                 1.4831
 IR Inten    --      1.0074                10.6170                 7.7778

                     49                     50                     51
                      A                      A                      A
 Frequencies --   3049.8465              3051.8832              3057.7979
 Red. masses --      1.0363                 1.0355                 1.0373
 Frc consts  --      5.6794                 5.6827                 5.7144
 IR Inten    --      5.0071                30.0260                18.4120

                     52                     53                     54
                      A                      A                      A
 Frequencies --   3063.2991              3074.9562              3114.3129
 Red. masses --      1.0417                 1.0409                 1.0993
 Frc consts  --      5.7592                 5.7988                 6.2819
 IR Inten    --     10.5692                46.5919                 8.1331

                     55                     56                     57
                      A                      A                      A
 Frequencies --   3116.5702              3124.8172              3132.9480
 Red. masses --      1.1024                 1.0998                 1.1016
 Frc consts  --      6.3087                 6.3270                 6.3709
 IR Inten    --      9.8596                59.5634                37.7049

                     58                     59                     60
                      A                      A                      A
 Frequencies --   3155.4642              3158.6544              3169.2235
 Red. masses --      1.1026                 1.1024                 1.0980
 Frc consts  --      6.4686                 6.4803                 6.4974
 IR Inten    --      0.5084                 1.7115                 0.0123

                     61                     62                     63
                      A                      A                      A
 Frequencies --   3176.3461              3214.4924              3215.9558
 Red. masses --      1.0982                 1.1026                 1.1033
 Frc consts  --      6.5282                 6.7128                 6.7231
 IR Inten    --     23.3539                 6.8204                 5.9267

 - Thermochemistry -
 -------------------
 Temperature   298.150 Kelvin.  Pressure   1.00000 Atm.
 Atom     1 has atomic number  6 and mass  12.00000

 Molecular mass:   117.11536 amu.
 Principal axes and moments of inertia in atomic units:
                           1         2         3
     Eigenvalues --   735.412751017.056471030.66403
           X            0.99815   0.00000   0.06081
           Y           -0.00000   1.00000  -0.00000
           Z           -0.06081   0.00000   0.99815
 This molecule is an asymmetric top.
 Rotational symmetry number  1.
 Warning -- assumption of classical behavior for rotation
           may cause significant error
 Rotational temperatures (Kelvin)      0.11778     0.08516     0.08404
 Rotational constants (GHZ):           2.45405     1.77447     1.75105
 Zero-point vibrational energy     551154.5 (Joules/Mol)
                                  131.72908 (Kcal/Mol)
 Warning -- explicit consideration of  16 degrees of freedom as
           vibrations may cause significant error
 Vibrational temperatures:    113.93   266.58   348.19   364.11   383.85
          (Kelvin)            398.03   435.33   464.20   508.98   540.16
                              564.60   609.65   612.95   692.24   740.54
                              743.41   895.58  1137.81  1233.85  1338.54
                             1346.59  1356.52  1396.97  1410.12  1498.13
                             1521.00  1582.24  1717.63  1735.85  1741.49
                             1804.77  1843.14  1853.82  1997.77  2017.21
                             2037.44  2055.61  2085.76  2125.75  2134.61
                             2155.29  2164.25  2170.01  2178.69  2184.46
                             2191.68  2207.64  2225.36  4388.04  4390.97
                             4399.48  4407.40  4424.17  4480.80  4484.04
                             4495.91  4507.61  4540.00  4544.59  4559.80
                             4570.05  4624.93  4627.04

 Zero-point correction=                           0.209924 (Hartree/Particle)
 Thermal correction to Energy=                    0.219832
 Thermal correction to Enthalpy=                  0.220776
 Thermal correction to Gibbs Free Energy=         0.176702
 Sum of electronic and zero-point Energies=           -367.368394
 Sum of electronic and thermal Energies=              -367.358485
 Sum of electronic and thermal Enthalpies=            -367.357541
 Sum of electronic and thermal Free Energies=         -367.401615

                     E (Thermal)             CV                S
                      KCal/Mol        Cal/Mol-Kelvin    Cal/Mol-Kelvin
 Total                  137.947             38.826             92.761
 Electronic               0.000              0.000              0.000
 Translational            0.889              2.981             40.189
 Rotational               0.889              2.981             28.135
 Vibrational            136.169             32.864             24.437
 Vibration     1          0.600              1.963              3.911
 Vibration     2          0.631              1.860              2.275
 Vibration     3          0.658              1.776              1.788
 Vibration     4          0.664              1.758              1.709
 Vibration     5          0.672              1.734              1.617
 Vibration     6          0.678              1.717              1.554
 Vibration     7          0.694              1.669              1.403
 Vibration     8          0.708              1.630              1.297
 Vibration     9          0.730              1.568              1.149
 Vibration    10          0.746              1.522              1.058
 Vibration    11          0.760              1.486              0.991
 Vibration    12          0.786              1.419              0.879
 Vibration    13          0.788              1.414              0.872
 Vibration    14          0.837              1.292              0.707
 Vibration    15          0.870              1.217              0.622
 Vibration    16          0.872              1.213              0.618

 Optimization completed.
    -- Stationary point found.
 Normal termination of Gaussian 09 at Thu Sep  8 14:46:17 2022.
