 Gaussian 09, Revision D.01,
 Gaussian 09:  ES64L-G09RevD.01 24-Apr-2013

 -------------------------
 #P OPT Freq B3LYP/6-31G**
 -------------------------

 -------
 Frag_18
 -------
 Symbolic Z-matrix:
 Charge =  0 Multiplicity = 1

 SCF Done:  E(RB3LYP) =  -119.155364917     A.U. after   11 cycles
 Optimization completed.
    -- Stationary point found.
 Normal termination of Gaussian 09 at Fri Jul 23 05:23:47 2021.

 ----------------------------------------------------------------------
 #P Geom=AllCheck Guess=TCheck SCRF=Check GenChk RB3LYP/6-31G(d,p) Freq
 ----------------------------------------------------------------------

 Structure from the checkpoint file:  "/vol2/users/liuj201281/HOFBenchmark/IsodesmicSplit/Sample60/Ring26/Running/Gau-90782.chk"
 -------
 Frag_18
 -------
 Charge =  0 Multiplicity = 1

                         Standard orientation:
 ---------------------------------------------------------------------
 Center     Atomic      Atomic             Coordinates (Angstroms)
 Number     Number       Type             X           Y           Z
 ---------------------------------------------------------------------
      1          6           0        0.000000    1.277100   -0.259823
      2          6           0        0.000000    0.000000    0.586377
      3          6           0        0.000000   -1.277100   -0.259823
      4          1           0        0.000000    2.175200    0.366577
      5          1           0       -0.883700    1.321800   -0.906623
      6          1           0        0.883700    1.321800   -0.906623
      7          1           0        0.876900    0.000000    1.246477
      8          1           0       -0.876900    0.000000    1.246477
      9          1           0       -0.883700   -1.321800   -0.906623
     10          1           0        0.000000   -2.175200    0.366577
     11          1           0        0.883700   -1.321800   -0.906623
 ---------------------------------------------------------------------

 SCF Done:  E(RB3LYP) =  -119.155364917     A.U. after    1 cycles

 The electronic state is 1-A1.
 Alpha  occ. eigenvalues --  -10.17850 -10.17018 -10.17017  -0.77424  -0.67581
 Alpha  occ. eigenvalues --   -0.58007  -0.45097  -0.43071  -0.39298  -0.37591
 Alpha  occ. eigenvalues --   -0.33318  -0.33209  -0.32352
 Alpha virt. eigenvalues --    0.09612   0.14847   0.15003   0.15045   0.17052
 Alpha virt. eigenvalues --    0.19345   0.19426   0.19699   0.22673   0.26586
 Alpha virt. eigenvalues --    0.50902   0.51343   0.54354   0.54924   0.57303

 Mulliken charges:
               1
     1  C   -0.310149
     2  C   -0.171951
     3  C   -0.310149
     4  H    0.099432
     5  H    0.101084
     6  H    0.101084
     7  H    0.094525
     8  H    0.094525
     9  H    0.101084
    10  H    0.099432
    11  H    0.101084
 Sum of Mulliken charges =   0.00000

 Dipole moment (field-independent basis, Debye):
    X=              0.0000    Y=              0.0000    Z=              0.0492  Tot=              0.0492
 Quadrupole moment (field-independent basis, Debye-Ang):
   XX=            -21.2565   YY=            -21.8304   ZZ=            -21.5677
   XY=              0.0000   XZ=              0.0000   YZ=              0.0000

  Exact polarizability:  32.252   0.000  36.843   0.000   0.000  33.053
 Approx polarizability:  44.270   0.000  43.410   0.000   0.000  43.613

                      1                      2                      3
                     A2                     B1                     A1
 Frequencies --    220.8612               272.1357               365.6976
 Red. masses --      1.0278                 1.1367                 2.0536
 Frc consts  --      0.0295                 0.0496                 0.1618
 IR Inten    --      0.0000                 0.0007                 0.1345

                      4                      5                      6
                     B1                     A1                     A2
 Frequencies --    754.7740               876.4245               915.0700
 Red. masses --      1.0792                 2.5676                 1.1004
 Frc consts  --      0.3622                 1.1620                 0.5429
 IR Inten    --      3.5750                 0.7473                 0.0000

                      7                      8                      9
                     B2                     B2                     A1
 Frequencies --    934.6234              1062.4343              1182.1927
 Red. masses --      1.1992                 2.4191                 1.7816
 Frc consts  --      0.6172                 1.6088                 1.4671
 IR Inten    --      2.1361                 0.4510                 1.2546

                     10                     11                     12
                     B1                     A2                     B2
 Frequencies --   1220.3065              1323.2100              1375.5822
 Red. masses --      1.6635                 1.1240                 1.3964
 Frc consts  --      1.4595                 1.1596                 1.5568
 IR Inten    --      0.2470                 0.0000                 5.0623

                     13                     14                     15
                     B2                     A1                     A2
 Frequencies --   1419.7477              1435.2596              1503.9913
 Red. masses --      1.2933                 1.2342                 1.0387
 Frc consts  --      1.5360                 1.4980                 1.3843
 IR Inten    --      3.0640                 1.3809                 0.0000

                     16                     17                     18
                     A1                     B2                     B1
 Frequencies --   1504.8210              1512.4958              1522.0133
 Red. masses --      1.0465                 1.0524                 1.0407
 Frc consts  --      1.3963                 1.4185                 1.4204
 IR Inten    --      0.0278                 1.3777                 9.8264

                     19                     20                     21
                     A1                     A1                     B2
 Frequencies --   1528.5363              3032.5945              3034.4658
 Red. masses --      1.0793                 1.0607                 1.0353
 Frc consts  --      1.4857                 5.7472                 5.6166
 IR Inten    --      2.8845                23.0592                35.5098

                     22                     23                     24
                     A1                     B1                     A2
 Frequencies --   3038.3951              3060.4078              3099.8654
 Red. masses --      1.0361                 1.1025                 1.1026
 Frc consts  --      5.6354                 6.0841                 6.2424
 IR Inten    --     25.5926                 6.6995                 0.0000

                     25                     26                     27
                     B2                     B1                     A1
 Frequencies --   3109.0167              3110.2656              3111.3798
 Red. masses --      1.1025                 1.1031                 1.1013
 Frc consts  --      6.2787                 6.2870                 6.2815
 IR Inten    --     29.4454               101.5059                54.6880

 - Thermochemistry -
 -------------------
 Temperature   298.150 Kelvin.  Pressure   1.00000 Atm.
 Atom     1 has atomic number  6 and mass  12.00000

 Molecular mass:    44.06260 amu.
 Principal axes and moments of inertia in atomic units:
                           1         2         3
     Eigenvalues --    61.26850 215.77109 243.48524
           X            0.00000   0.00000   1.00000
           Y            1.00000   0.00000   0.00000
           Z            0.00000   1.00000   0.00000
 This molecule is an asymmetric top.
 Rotational symmetry number  2.
 Rotational temperatures (Kelvin)      1.41368     0.40142     0.35573
 Rotational constants (GHZ):          29.45626     8.36415     7.41212
 Zero-point vibrational energy     272309.3 (Joules/Mol)
                                   65.08350 (Kcal/Mol)
 Warning -- explicit consideration of   3 degrees of freedom as
           vibrations may cause significant error
 Vibrational temperatures:    317.77   391.54   526.16  1085.95  1260.98
          (Kelvin)           1316.58  1344.71  1528.60  1700.91  1755.75
                             1903.80  1979.15  2042.70  2065.02  2163.91
                             2165.10  2176.14  2189.83  2199.22  4363.22
                             4365.91  4371.57  4403.24  4460.01  4473.18
                             4474.97  4476.58

 Zero-point correction=                           0.103717 (Hartree/Particle)
 Thermal correction to Energy=                    0.108246
 Thermal correction to Enthalpy=                  0.109190
 Thermal correction to Gibbs Free Energy=         0.078704
 Sum of electronic and zero-point Energies=           -119.051648
 Sum of electronic and thermal Energies=              -119.047119
 Sum of electronic and thermal Enthalpies=            -119.046175
 Sum of electronic and thermal Free Energies=         -119.076661

                     E (Thermal)             CV                S
                      KCal/Mol        Cal/Mol-Kelvin    Cal/Mol-Kelvin
 Total                   67.925             14.759             64.163
 Electronic               0.000              0.000              0.000
 Translational            0.889              2.981             37.275
 Rotational               0.889              2.981             21.314
 Vibrational             66.148              8.797              5.574
 Vibration     1          0.648              1.809              1.952
 Vibration     2          0.675              1.725              1.583
 Vibration     3          0.739              1.543              1.098

 Optimization completed.
    -- Stationary point found.
 Normal termination of Gaussian 09 at Fri Jul 23 05:24:02 2021.
