 Gaussian 09, Revision E.01,
 Gaussian 09:  ES64L-G09RevE.01 30-Nov-2015

 ----------------------------
 #P OPT Freq B3LYP/6-31G(d,p)
 ----------------------------

 --------
 Frag_677
 --------
 Symbolic Z-matrix:
 Charge =  0 Multiplicity = 1

 SCF Done:  E(RB3LYP) =  -289.033640645     A.U. after   13 cycles
 SCF Done:  E(RB3LYP) =  -289.033670354     A.U. after   10 cycles
 SCF Done:  E(RB3LYP) =  -289.033674325     A.U. after    9 cycles
 SCF Done:  E(RB3LYP) =  -289.033676766     A.U. after    8 cycles
 SCF Done:  E(RB3LYP) =  -289.033677303     A.U. after    7 cycles
 SCF Done:  E(RB3LYP) =  -289.033677492     A.U. after    7 cycles
 SCF Done:  E(RB3LYP) =  -289.033677588     A.U. after    7 cycles
 Optimization completed.
    -- Stationary point found.
 Normal termination of Gaussian 09 at Thu Sep  8 14:59:29 2022.

 ----------------------------------------------------------------------
 #P Geom=AllCheck Guess=TCheck SCRF=Check GenChk RB3LYP/6-31G(d,p) Freq
 ----------------------------------------------------------------------

 Structure from the checkpoint file:  "B3LYP6-31Gdp.Frag_677.chk"
 --------
 Frag_677
 --------
 Charge =  0 Multiplicity = 1

                         Standard orientation:
 ---------------------------------------------------------------------
 Center     Atomic      Atomic             Coordinates (Angstroms)
 Number     Number       Type             X           Y           Z
 ---------------------------------------------------------------------
      1          6           0        0.887010    1.339032    0.676111
      2          6           0        0.673927    0.291717   -0.422922
      3          6           0        1.778714   -0.773651   -0.409154
      4          6           0       -0.718267   -0.371258   -0.323616
      5          7           0       -1.768221    0.623217   -0.430329
      6          8           0       -0.933226   -0.999011    0.937759
      7          1           0        1.866537    1.817610    0.571926
      8          1           0        0.112185    2.107463    0.638483
      9          1           0        0.836194    0.867070    1.661816
     10          1           0        0.707603    0.793327   -1.403001
     11          1           0        2.763657   -0.319848   -0.554949
     12          1           0        1.805095   -1.297784    0.554037
     13          1           0        1.636416   -1.520528   -1.199514
     14          1           0       -0.775849   -1.150524   -1.113379
     15          1           0       -1.718868    1.087064   -1.333347
     16          1           0       -2.672325    0.162788   -0.366175
     17          1           0       -0.445594   -1.832103    0.931825
 ---------------------------------------------------------------------

 SCF Done:  E(RB3LYP) =  -289.033677588     A.U. after    1 cycles

 The electronic state is 1-A.
 Alpha  occ. eigenvalues --  -19.14083 -14.31052 -10.25538 -10.18344 -10.17619
 Alpha  occ. eigenvalues --  -10.15750  -1.02079  -0.87184  -0.78242  -0.67591
 Alpha  occ. eigenvalues --   -0.64475  -0.56552  -0.50799  -0.47898  -0.46138
 Alpha  occ. eigenvalues --   -0.42702  -0.42188  -0.38523  -0.37353  -0.35707
 Alpha  occ. eigenvalues --   -0.34053  -0.32842  -0.32012  -0.26981  -0.23306
 Alpha virt. eigenvalues --    0.06361   0.09637   0.12376   0.13733   0.14612
 Alpha virt. eigenvalues --    0.15641   0.17284   0.18383   0.19027   0.19805
 Alpha virt. eigenvalues --    0.20916   0.22115   0.25368   0.26402   0.26952

 Mulliken charges:
               1
     1  C   -0.298619
     2  C   -0.061994
     3  C   -0.328215
     4  C    0.294489
     5  N   -0.590259
     6  O   -0.535201
     7  H    0.085317
     8  H    0.120267
     9  H    0.112689
    10  H    0.073649
    11  H    0.107543
    12  H    0.096040
    13  H    0.093429
    14  H    0.046927
    15  H    0.235062
    16  H    0.244771
    17  H    0.304104
 Sum of Mulliken charges =  -0.00000

 Dipole moment (field-independent basis, Debye):
    X=              0.4046    Y=             -1.2771    Z=             -2.0440  Tot=              2.4439
 Quadrupole moment (field-independent basis, Debye-Ang):
   XX=            -37.6735   YY=            -36.8867   ZZ=            -38.8489
   XY=              0.2419   XZ=              3.8385   YZ=             -1.9745

  Exact polarizability:  58.713  -1.713  54.967   0.619  -0.866  50.075
 Approx polarizability:  74.068  -2.200  74.445  -1.037  -3.705  72.124

                      1                      2                      3
                      A                      A                      A
 Frequencies --     91.2678               204.3029               216.6669
 Red. masses --      2.7030                 1.0505                 1.2013
 Frc consts  --      0.0133                 0.0258                 0.0332
 IR Inten    --      3.4015                 3.4162                18.5016

                      4                      5                      6
                      A                      A                      A
 Frequencies --    238.4292               265.1081               278.4710
 Red. masses --      1.1930                 2.2878                 2.4230
 Frc consts  --      0.0400                 0.0947                 0.1107
 IR Inten    --     22.6144                 4.4029                24.6441

                      7                      8                      9
                      A                      A                      A
 Frequencies --    289.3344               360.5007               451.6903
 Red. masses --      1.1220                 2.3182                 2.8581
 Frc consts  --      0.0553                 0.1775                 0.3436
 IR Inten    --    100.7060                 0.6272                 1.3058

                     10                     11                     12
                      A                      A                      A
 Frequencies --    527.6133               644.5356               775.2823
 Red. masses --      3.1495                 2.8403                 2.1948
 Frc consts  --      0.5166                 0.6952                 0.7773
 IR Inten    --      8.0509                14.8768                37.9148

                     13                     14                     15
                      A                      A                      A
 Frequencies --    864.0855               927.3883               941.4744
 Red. masses --      1.5965                 1.5283                 1.4231
 Frc consts  --      0.7023                 0.7745                 0.7432
 IR Inten    --    110.0221                 5.1788                19.8313

                     16                     17                     18
                      A                      A                      A
 Frequencies --    971.5263              1002.0565              1062.9651
 Red. masses --      1.5198                 2.5315                 1.8619
 Frc consts  --      0.8452                 1.4977                 1.2395
 IR Inten    --      4.8890                48.8341                40.9237

                     19                     20                     21
                      A                      A                      A
 Frequencies --   1107.7057              1148.0840              1206.0284
 Red. masses --      1.5817                 2.1801                 1.8291
 Frc consts  --      1.1435                 1.6931                 1.5674
 IR Inten    --     21.6307                26.1299                 0.1618

                     22                     23                     24
                      A                      A                      A
 Frequencies --   1252.0354              1293.6782              1349.4716
 Red. masses --      1.3236                 1.2274                 1.3877
 Frc consts  --      1.2224                 1.2103                 1.4890
 IR Inten    --      8.5582                60.8737                 8.6253

                     25                     26                     27
                      A                      A                      A
 Frequencies --   1359.4869              1403.3769              1416.4650
 Red. masses --      1.5532                 1.2890                 1.3130
 Frc consts  --      1.6913                 1.4957                 1.5521
 IR Inten    --      7.8679                11.0135                 7.3809

                     28                     29                     30
                      A                      A                      A
 Frequencies --   1440.5954              1455.1360              1498.4401
 Red. masses --      1.4555                 1.3487                 1.0455
 Frc consts  --      1.7797                 1.6826                 1.3831
 IR Inten    --     34.0504                10.8122                 0.7950

                     31                     32                     33
                      A                      A                      A
 Frequencies --   1506.8148              1520.7770              1530.6213
 Red. masses --      1.0470                 1.0473                 1.0599
 Frc consts  --      1.4007                 1.4272                 1.4631
 IR Inten    --      0.3928                 7.1266                10.7763

                     34                     35                     36
                      A                      A                      A
 Frequencies --   1646.5237              2867.5260              2999.1770
 Red. masses --      1.1084                 1.0820                 1.0832
 Frc consts  --      1.7704                 5.2417                 5.7409
 IR Inten    --     38.7176               132.4079                36.2704

                     37                     38                     39
                      A                      A                      A
 Frequencies --   3030.1250              3051.9432              3093.7486
 Red. masses --      1.0371                 1.0378                 1.1019
 Frc consts  --      5.6104                 5.6954                 6.2139
 IR Inten    --     29.4985                24.5397                40.1876

                     40                     41                     42
                      A                      A                      A
 Frequencies --   3113.5707              3121.4255              3146.1854
 Red. masses --      1.0999                 1.1010                 1.1009
 Frc consts  --      6.2823                 6.3202                 6.4206
 IR Inten    --     17.6704                39.6934                17.4070

                     43                     44                     45
                      A                      A                      A
 Frequencies --   3503.7772              3596.7605              3834.3802
 Red. masses --      1.0492                 1.0933                 1.0660
 Frc consts  --      7.5891                 8.3332                 9.2342
 IR Inten    --      0.1153                 0.6397                14.3934

 - Thermochemistry -
 -------------------
 Temperature   298.150 Kelvin.  Pressure   1.00000 Atm.
 Atom     1 has atomic number  6 and mass  12.00000

 Molecular mass:    89.08406 amu.
 Principal axes and moments of inertia in atomic units:
                           1         2         3
     Eigenvalues --   396.73625 660.75741 779.16304
           X            0.99951  -0.02030   0.02402
           Y            0.01882   0.99801   0.06022
           Z           -0.02520  -0.05974   0.99790
 This molecule is an asymmetric top.
 Rotational symmetry number  1.
 Rotational temperatures (Kelvin)      0.21832     0.13108     0.11116
 Rotational constants (GHZ):           4.54897     2.73132     2.31626
 Zero-point vibrational energy     404377.0 (Joules/Mol)
                                   96.64843 (Kcal/Mol)
 Warning -- explicit consideration of  10 degrees of freedom as
           vibrations may cause significant error
 Vibrational temperatures:    131.31   293.95   311.73   343.05   381.43
          (Kelvin)            400.66   416.29   518.68   649.88   759.12
                              927.34  1115.46  1243.22  1334.30  1354.57
                             1397.81  1441.73  1529.37  1593.74  1651.83
                             1735.20  1801.40  1861.31  1941.59  1956.00
                             2019.14  2037.97  2072.69  2093.61  2155.92
                             2167.97  2188.06  2202.22  2368.98  4125.73
                             4315.14  4359.67  4391.06  4451.21  4479.73
                             4491.03  4526.65  5041.15  5174.93  5516.81

 Zero-point correction=                           0.154019 (Hartree/Particle)
 Thermal correction to Energy=                    0.161997
 Thermal correction to Enthalpy=                  0.162941
 Thermal correction to Gibbs Free Energy=         0.122782
 Sum of electronic and zero-point Energies=           -288.879659
 Sum of electronic and thermal Energies=              -288.871681
 Sum of electronic and thermal Enthalpies=            -288.870737
 Sum of electronic and thermal Free Energies=         -288.910896

                     E (Thermal)             CV                S
                      KCal/Mol        Cal/Mol-Kelvin    Cal/Mol-Kelvin
 Total                  101.654             28.784             84.523
 Electronic               0.000              0.000              0.000
 Translational            0.889              2.981             39.374
 Rotational               0.889              2.981             26.815
 Vibrational             99.877             22.822             18.334
 Vibration     1          0.602              1.955              3.633
 Vibration     2          0.640              1.834              2.094
 Vibration     3          0.646              1.816              1.987
 Vibration     4          0.656              1.782              1.815
 Vibration     5          0.671              1.737              1.628
 Vibration     6          0.679              1.713              1.543
 Vibration     7          0.686              1.694              1.478
 Vibration     8          0.735              1.554              1.120
 Vibration     9          0.810              1.357              0.791
 Vibration    10          0.883              1.189              0.593

 Normal termination of Gaussian 09 at Thu Sep  8 14:59:43 2022.
