 Gaussian 09, Revision E.01,
 Gaussian 09:  ES64L-G09RevE.01 30-Nov-2015

 ----------------------------
 #P OPT Freq B3LYP/6-31G(d,p)
 ----------------------------

 --------
 Frag_847
 --------
 Symbolic Z-matrix:
 Charge =  0 Multiplicity = 1

 SCF Done:  E(RB3LYP) =  -318.599287108     A.U. after   15 cycles
 SCF Done:  E(RB3LYP) =  -318.599387256     A.U. after   10 cycles
 SCF Done:  E(RB3LYP) =  -318.599391954     A.U. after    9 cycles
 Optimization completed.
    -- Stationary point found.
 Normal termination of Gaussian 09 at Thu Sep  8 15:25:22 2022.

 ----------------------------------------------------------------------
 #P Geom=AllCheck Guess=TCheck SCRF=Check GenChk RB3LYP/6-31G(d,p) Freq
 ----------------------------------------------------------------------

 Structure from the checkpoint file:  "B3LYP6-31Gdp.Frag_847.chk"
 --------
 Frag_847
 --------
 Charge =  0 Multiplicity = 1

                         Standard orientation:
 ---------------------------------------------------------------------
 Center     Atomic      Atomic             Coordinates (Angstroms)
 Number     Number       Type             X           Y           Z
 ---------------------------------------------------------------------
      1          6           0        1.570905    0.988867    0.000283
      2          6           0        0.694359   -0.230507    0.000011
      3          7           0        0.992734   -1.453009   -0.000344
      4          7           0       -0.794609    0.045568   -0.000002
      5          7           0       -1.093146    1.286828   -0.000397
      6          8           0       -1.572384   -0.918245    0.000394
      7          1           0        1.373020    1.609727   -0.876511
      8          1           0        1.372687    1.609605    0.877084
      9          1           0        2.618759    0.679627    0.000449
     10          1           0        2.009020   -1.564663   -0.000401
     11          1           0       -2.120851    1.305795   -0.000341
 ---------------------------------------------------------------------

 SCF Done:  E(RB3LYP) =  -318.599391954     A.U. after    1 cycles

 The electronic state is 1-A.
 Alpha  occ. eigenvalues --  -19.15823 -14.52987 -14.36733 -14.35387 -10.29726
 Alpha  occ. eigenvalues --  -10.21545  -1.16809  -0.96106  -0.94570  -0.77095
 Alpha  occ. eigenvalues --   -0.71911  -0.57539  -0.51960  -0.50694  -0.49966
 Alpha  occ. eigenvalues --   -0.48338  -0.43980  -0.43011  -0.34024  -0.33978
 Alpha  occ. eigenvalues --   -0.29895  -0.27023  -0.27014
 Alpha virt. eigenvalues --   -0.07643   0.01881   0.06986   0.10656   0.11820
 Alpha virt. eigenvalues --    0.14287   0.15992   0.18663   0.23554   0.27228
 Alpha virt. eigenvalues --    0.33965   0.39207   0.50832   0.51628   0.54540

 Mulliken charges:
               1
     1  C   -0.346078
     2  C    0.409767
     3  N   -0.451770
     4  N    0.204646
     5  N   -0.333965
     6  O   -0.422564
     7  H    0.160718
     8  H    0.160691
     9  H    0.113913
    10  H    0.248634
    11  H    0.256007
 Sum of Mulliken charges =  -0.00000

 Dipole moment (field-independent basis, Debye):
    X=              2.8380    Y=              2.1128    Z=              0.0002  Tot=              3.5381
 Quadrupole moment (field-independent basis, Debye-Ang):
   XX=            -28.9105   YY=            -39.9648   ZZ=            -34.3450
   XY=             -3.8980   XZ=              0.0009   YZ=              0.0012

  Exact polarizability:  52.567  -4.835  59.335  -0.001  -0.002  24.265
 Approx polarizability:  68.765  -2.980 123.611  -0.005  -0.012  35.467

                      1                      2                      3
                      A                      A                      A
 Frequencies --     26.0078               178.5838               329.9850
 Red. masses --      6.1105                 1.0397                 4.3533
 Frc consts  --      0.0024                 0.0195                 0.2793
 IR Inten    --      0.4766                 0.3056                 2.7056

                      4                      5                      6
                      A                      A                      A
 Frequencies --    405.3745               431.6859               547.1298
 Red. masses --      3.0372                 4.2784                 5.7899
 Frc consts  --      0.2941                 0.4698                 1.0212
 IR Inten    --      1.8829                 1.9498                10.6203

                      7                      8                      9
                      A                      A                      A
 Frequencies --    596.0023               656.4752               783.9961
 Red. masses --      3.3374                 2.6053                 3.6740
 Frc consts  --      0.6985                 0.6615                 1.3305
 IR Inten    --     48.8410                13.5229                18.4348

                     10                     11                     12
                      A                      A                      A
 Frequencies --    914.5336               938.3182               979.8040
 Red. masses --      1.4737                 1.2166                 2.8130
 Frc consts  --      0.7262                 0.6311                 1.5911
 IR Inten    --     93.6231                10.5098                10.3053

                     13                     14                     15
                      A                      A                      A
 Frequencies --   1056.9355              1079.0905              1269.5331
 Red. masses --      1.3007                 1.5295                 3.9875
 Frc consts  --      0.8561                 1.0493                 3.7865
 IR Inten    --     62.6943                17.2428                40.9436

                     16                     17                     18
                      A                      A                      A
 Frequencies --   1303.2716              1423.1934              1475.1349
 Red. masses --      1.7678                 1.2658                 1.0443
 Frc consts  --      1.7691                 1.5106                 1.3389
 IR Inten    --     93.6593                24.8224                 7.7319

                     19                     20                     21
                      A                      A                      A
 Frequencies --   1480.3635              1511.0810              1619.3725
 Red. masses --      1.1175                 1.6502                11.4868
 Frc consts  --      1.4429                 2.2200                17.7477
 IR Inten    --     24.5899                 2.1318               220.5222

                     22                     23                     24
                      A                      A                      A
 Frequencies --   1784.6542              3068.3929              3148.1558
 Red. masses --      9.3882                 1.0353                 1.1007
 Frc consts  --     17.6173                 5.7428                 6.4273
 IR Inten    --     51.0924                 5.4727                 1.4092

                     25                     26                     27
                      A                      A                      A
 Frequencies --   3152.4689              3422.3461              3491.0038
 Red. masses --      1.1049                 1.0718                 1.0758
 Frc consts  --      6.4694                 7.3959                 7.7248
 IR Inten    --     11.3879                 3.1980                 1.3124

 - Thermochemistry -
 -------------------
 Temperature   298.150 Kelvin.  Pressure   1.00000 Atm.
 Atom     1 has atomic number  6 and mass  12.00000

 Molecular mass:    87.04326 amu.
 Principal axes and moments of inertia in atomic units:
                           1         2         3
     Eigenvalues --   321.06497 481.64690 791.64451
           X            0.99993   0.01148   0.00001
           Y           -0.01148   0.99993   0.00002
           Z           -0.00001  -0.00002   1.00000
 This molecule is an asymmetric top.
 Rotational symmetry number  1.
 Rotational temperatures (Kelvin)      0.26977     0.17983     0.10941
 Rotational constants (GHZ):           5.62111     3.74702     2.27974
 Zero-point vibrational energy     221745.1 (Joules/Mol)
                                   52.99836 (Kcal/Mol)
 Warning -- explicit consideration of   7 degrees of freedom as
           vibrations may cause significant error
 Vibrational temperatures:     37.42   256.94   474.77   583.24   621.10
          (Kelvin)            787.20   857.51   944.52  1127.99  1315.81
                             1350.03  1409.72  1520.69  1552.57  1826.57
                             1875.11  2047.66  2122.39  2129.91  2174.11
                             2329.91  2567.72  4414.73  4529.49  4535.69
                             4923.99  5022.77

 Zero-point correction=                           0.084458 (Hartree/Particle)
 Thermal correction to Energy=                    0.090553
 Thermal correction to Enthalpy=                  0.091497
 Thermal correction to Gibbs Free Energy=         0.053805
 Sum of electronic and zero-point Energies=           -318.514934
 Sum of electronic and thermal Energies=              -318.508839
 Sum of electronic and thermal Enthalpies=            -318.507895
 Sum of electronic and thermal Free Energies=         -318.545587

                     E (Thermal)             CV                S
                      KCal/Mol        Cal/Mol-Kelvin    Cal/Mol-Kelvin
 Total                   56.823             20.734             79.330
 Electronic               0.000              0.000              0.000
 Translational            0.889              2.981             39.304
 Rotational               0.889              2.981             26.307
 Vibrational             55.045             14.773             13.719
 Vibration     1          0.593              1.985              6.113
 Vibration     2          0.629              1.869              2.343
 Vibration     3          0.713              1.616              1.260
 Vibration     4          0.770              1.459              0.943
 Vibration     5          0.793              1.401              0.853
 Vibration     6          0.902              1.146              0.550
 Vibration     7          0.954              1.040              0.457

 Optimization completed.
    -- Stationary point found.
 Normal termination of Gaussian 09 at Thu Sep  8 15:25:31 2022.
