 Gaussian 09, Revision E.01,
 Gaussian 09:  ES64L-G09RevE.01 30-Nov-2015

 ----------------------------
 #P OPT Freq B3LYP/6-31G(d,p)
 ----------------------------

 --------
 Frag_907
 --------
 Symbolic Z-matrix:
 Charge =  0 Multiplicity = 1

 SCF Done:  E(RB3LYP) =  -284.420369802     A.U. after   13 cycles
 SCF Done:  E(RB3LYP) =  -284.420445171     A.U. after    9 cycles
 SCF Done:  E(RB3LYP) =  -284.420448897     A.U. after    8 cycles
 Optimization completed.
    -- Stationary point found.
 Normal termination of Gaussian 09 at Thu Sep  8 15:20:19 2022.

 ----------------------------------------------------------------------
 #P Geom=AllCheck Guess=TCheck SCRF=Check GenChk RB3LYP/6-31G(d,p) Freq
 ----------------------------------------------------------------------

 Structure from the checkpoint file:  "B3LYP6-31Gdp.Frag_907.chk"
 --------
 Frag_907
 --------
 Charge =  0 Multiplicity = 1

                         Standard orientation:
 ---------------------------------------------------------------------
 Center     Atomic      Atomic             Coordinates (Angstroms)
 Number     Number       Type             X           Y           Z
 ---------------------------------------------------------------------
      1          6           0       -1.929029   -0.018967   -0.000010
      2          7           0       -0.652897   -0.714613    0.000010
      3          6           0        0.420981   -0.052959    0.000015
      4          8           0        1.639187   -0.655406   -0.000004
      5          8           0        0.551526    1.293890    0.000009
      6          1           0       -1.847756    1.074489   -0.000119
      7          1           0       -2.507372   -0.322182   -0.880455
      8          1           0       -2.507309   -0.322007    0.880538
      9          1           0        1.458892   -1.608095   -0.000031
     10          1           0        1.496411    1.503760   -0.000076
 ---------------------------------------------------------------------

 SCF Done:  E(RB3LYP) =  -284.420448897     A.U. after    1 cycles

 The electronic state is 1-A.
 Alpha  occ. eigenvalues --  -19.19504 -19.19265 -14.30285 -10.32608 -10.19696
 Alpha  occ. eigenvalues --   -1.11880  -1.04026  -0.89643  -0.69350  -0.62054
 Alpha  occ. eigenvalues --   -0.57764  -0.48912  -0.45922  -0.42623  -0.40221
 Alpha  occ. eigenvalues --   -0.40159  -0.38032  -0.34030  -0.25897  -0.24454
 Alpha virt. eigenvalues --    0.05916   0.06301   0.09660   0.13819   0.18387
 Alpha virt. eigenvalues --    0.18488   0.19686   0.23640   0.31088   0.45427
 Alpha virt. eigenvalues --    0.50828   0.54928   0.56881   0.58757   0.63276

 Mulliken charges:
               1
     1  C   -0.188261
     2  N   -0.482763
     3  C    0.693507
     4  O   -0.525565
     5  O   -0.506792
     6  H    0.112270
     7  H    0.113101
     8  H    0.113102
     9  H    0.335215
    10  H    0.336185
 Sum of Mulliken charges =   0.00000

 Dipole moment (field-independent basis, Debye):
    X=              1.2481    Y=              0.3630    Z=             -0.0002  Tot=              1.2998
 Quadrupole moment (field-independent basis, Debye-Ang):
   XX=            -26.0377   YY=            -27.4943   ZZ=            -29.7171
   XY=             -0.0749   XZ=             -0.0003   YZ=             -0.0001

  Exact polarizability:  48.664   2.456  35.228  -0.000  -0.000  21.946
 Approx polarizability:  66.803   7.666  52.120  -0.000   0.000  29.995

                      1                      2                      3
                      A                      A                      A
 Frequencies --     46.6990               232.6634               274.7865
 Red. masses --      1.0689                 2.9274                 3.4487
 Frc consts  --      0.0014                 0.0934                 0.1534
 IR Inten    --      0.8656                49.5346                11.0099

                      4                      5                      6
                      A                      A                      A
 Frequencies --    391.1744               503.9177               531.1354
 Red. masses --      1.1701                 3.6225                 1.1344
 Frc consts  --      0.1055                 0.5420                 0.1885
 IR Inten    --    149.7140                21.3144                57.8945

                      7                      8                      9
                      A                      A                      A
 Frequencies --    611.4168               701.5667               894.9436
 Red. masses --      4.6650                10.7029                 5.9199
 Frc consts  --      1.0275                 3.1038                 2.7936
 IR Inten    --      2.6527                24.5935                28.1430

                     10                     11                     12
                      A                      A                      A
 Frequencies --   1074.5281              1141.9289              1162.1564
 Red. masses --      3.0857                 1.3240                 1.5403
 Frc consts  --      2.0991                 1.0172                 1.2257
 IR Inten    --    134.5092                 0.0010                20.0490

                     13                     14                     15
                      A                      A                      A
 Frequencies --   1183.1985              1308.7596              1424.9362
 Red. masses --      1.5279                 1.6877                 2.9136
 Frc consts  --      1.2602                 1.7032                 3.4856
 IR Inten    --    132.5314               105.7898               210.6804

                     16                     17                     18
                      A                      A                      A
 Frequencies --   1462.1895              1510.5992              1517.9712
 Red. masses --      1.2132                 1.0430                 1.0536
 Frc consts  --      1.5283                 1.4023                 1.4303
 IR Inten    --     33.6319                 3.2302                 3.2486

                     19                     20                     21
                      A                      A                      A
 Frequencies --   1844.5762              3024.1158              3085.6792
 Red. masses --      7.5866                 1.0322                 1.1025
 Frc consts  --     15.2086                 5.5620                 6.1851
 IR Inten    --    486.6684                57.3074                34.1878

                     22                     23                     24
                      A                      A                      A
 Frequencies --   3094.3747              3794.8142              3810.2963
 Red. masses --      1.1047                 1.0644                 1.0655
 Frc consts  --      6.2323                 9.0313                 9.1141
 IR Inten    --     30.8877                59.6779                82.7250

 - Thermochemistry -
 -------------------
 Temperature   298.150 Kelvin.  Pressure   1.00000 Atm.
 Atom     1 has atomic number  6 and mass  12.00000

 Molecular mass:    75.03203 amu.
 Principal axes and moments of inertia in atomic units:
                           1         2         3
     Eigenvalues --   173.74489 437.36193 599.94594
           X            0.99998  -0.00654  -0.00000
           Y            0.00654   0.99998  -0.00000
           Z            0.00000   0.00000   1.00000
 This molecule is an asymmetric top.
 Rotational symmetry number  1.
 Rotational temperatures (Kelvin)      0.49851     0.19804     0.14437
 Rotational constants (GHZ):          10.38731     4.12643     3.00817
 Zero-point vibrational energy     207124.0 (Joules/Mol)
                                   49.50382 (Kcal/Mol)
 Warning -- explicit consideration of   7 degrees of freedom as
           vibrations may cause significant error
 Vibrational temperatures:     67.19   334.75   395.36   562.81   725.02
          (Kelvin)            764.18   879.69  1009.40  1287.62  1546.00
                             1642.98  1672.08  1702.36  1883.01  2050.16
                             2103.76  2173.41  2184.02  2653.93  4351.02
                             4439.60  4452.11  5459.88  5482.16

 Zero-point correction=                           0.078889 (Hartree/Particle)
 Thermal correction to Energy=                    0.084710
 Thermal correction to Enthalpy=                  0.085654
 Thermal correction to Gibbs Free Energy=         0.049560
 Sum of electronic and zero-point Energies=           -284.341560
 Sum of electronic and thermal Energies=              -284.335739
 Sum of electronic and thermal Enthalpies=            -284.334795
 Sum of electronic and thermal Free Energies=         -284.370889

                     E (Thermal)             CV                S
                      KCal/Mol        Cal/Mol-Kelvin    Cal/Mol-Kelvin
 Total                   53.156             19.190             75.965
 Electronic               0.000              0.000              0.000
 Translational            0.889              2.981             38.862
 Rotational               0.889              2.981             25.325
 Vibrational             51.379             13.229             11.778
 Vibration     1          0.595              1.979              4.953
 Vibration     2          0.653              1.791              1.858
 Vibration     3          0.677              1.720              1.566
 Vibration     4          0.759              1.489              0.996
 Vibration     5          0.859              1.241              0.648
 Vibration     6          0.886              1.181              0.585
 Vibration     7          0.971              1.008              0.430

 Optimization completed.
    -- Stationary point found.
 Normal termination of Gaussian 09 at Thu Sep  8 15:20:27 2022.
