 Gaussian 09, Revision E.01,
 Gaussian 09:  ES64L-G09RevE.01 30-Nov-2015

 -------------------------
 #P OPT Freq B3LYP/6-31G**
 -------------------------

 --------
 Frag_258
 --------
 Symbolic Z-matrix:
 Charge =  0 Multiplicity = 1

 SCF Done:  E(RB3LYP) =  -247.245209061     A.U. after   15 cycles
 SCF Done:  E(RB3LYP) =  -247.261593594     A.U. after   13 cycles
 SCF Done:  E(RB3LYP) =  -247.262626495     A.U. after   12 cycles
 SCF Done:  E(RB3LYP) =  -247.262675745     A.U. after    9 cycles
 SCF Done:  E(RB3LYP) =  -247.262679356     A.U. after    8 cycles
 Optimization completed.
    -- Stationary point found.
 Normal termination of Gaussian 09 at Sat Aug 21 01:33:15 2021.

 ----------------------------------------------------------------------
 #P Geom=AllCheck Guess=TCheck SCRF=Check GenChk RB3LYP/6-31G(d,p) Freq
 ----------------------------------------------------------------------

 Structure from the checkpoint file:  "/public/home/users/caep010/.cache/gau_scr/Gau-140575.chk"
 --------
 Frag_258
 --------
 Charge =  0 Multiplicity = 1

                         Standard orientation:
 ---------------------------------------------------------------------
 Center     Atomic      Atomic             Coordinates (Angstroms)
 Number     Number       Type             X           Y           Z
 ---------------------------------------------------------------------
      1          6           0        0.719434    1.361226   -0.000000
      2          6           0        0.475572    0.044841   -0.000000
      3          8           0        1.424823   -0.944619    0.000001
      4          6           0       -0.882434   -0.548001   -0.000001
      5          7           0       -1.935020    0.171452    0.000001
      6          1           0        1.727796    1.763759    0.000001
      7          1           0       -0.114461    2.050491   -0.000001
      8          1           0        2.301536   -0.537702   -0.000001
      9          1           0       -0.875476   -1.646242   -0.000001
     10          1           0       -2.768268   -0.421917    0.000001
 ---------------------------------------------------------------------

 SCF Done:  E(RB3LYP) =  -247.262679356     A.U. after    1 cycles

 The electronic state is 1-A.
 Alpha  occ. eigenvalues --  -19.18234 -14.32646 -10.25038 -10.23863 -10.17654
 Alpha  occ. eigenvalues --   -1.06179  -0.90564  -0.75775  -0.66513  -0.56198
 Alpha  occ. eigenvalues --   -0.51414  -0.47448  -0.45924  -0.40483  -0.38667
 Alpha  occ. eigenvalues --   -0.37182  -0.32627  -0.26961  -0.22953
 Alpha virt. eigenvalues --   -0.03994   0.06950   0.09244   0.09641   0.14512
 Alpha virt. eigenvalues --    0.16013   0.19014   0.27183   0.29920   0.35401
 Alpha virt. eigenvalues --    0.37224   0.52940   0.55853   0.56773   0.59221

 Mulliken charges:
               1
     1  C   -0.303132
     2  C    0.352085
     3  O   -0.550793
     4  C    0.112185
     5  N   -0.484373
     6  H    0.085505
     7  H    0.135086
     8  H    0.319108
     9  H    0.095834
    10  H    0.238495
 Sum of Mulliken charges =  -0.00000

 Dipole moment (field-independent basis, Debye):
    X=              1.2260    Y=             -0.7906    Z=             -0.0000  Tot=              1.4589
 Quadrupole moment (field-independent basis, Debye-Ang):
   XX=            -22.4941   YY=            -30.0499   ZZ=            -31.2740
   XY=              4.8123   XZ=             -0.0000   YZ=              0.0000

  Exact polarizability:  55.485   4.100  50.177  -0.000   0.000  17.215
 Approx polarizability:  78.724   2.245  82.780  -0.000   0.000  24.714

                      1                      2                      3
                      A                      A                      A
 Frequencies --    116.6619               290.5698               401.8559
 Red. masses --      2.8608                 3.4099                 1.1173
 Frc consts  --      0.0229                 0.1696                 0.1063
 IR Inten    --     16.4542                 6.8593               155.3837

                      4                      5                      6
                      A                      A                      A
 Frequencies --    457.5822               487.7262               586.1000
 Red. masses --      3.0022                 1.9426                 4.1684
 Frc consts  --      0.3704                 0.2723                 0.8436
 IR Inten    --     16.5896                 0.0006                18.6418

                      7                      8                      9
                      A                      A                      A
 Frequencies --    720.2529               827.5968               858.4603
 Red. masses --      1.1517                 1.4172                 1.6886
 Frc consts  --      0.3520                 0.5719                 0.7332
 IR Inten    --      2.8321                 0.0243                81.2821

                     10                     11                     12
                      A                      A                      A
 Frequencies --    878.8432               979.3764              1114.6539
 Red. masses --      2.9773                 1.7491                 1.2413
 Frc consts  --      1.3548                 0.9885                 0.9087
 IR Inten    --     27.2054                15.8146                 8.1328

                     13                     14                     15
                      A                      A                      A
 Frequencies --   1182.1307              1230.0116              1363.9512
 Red. masses --      1.6360                 1.1030                 1.7849
 Frc consts  --      1.3470                 0.9832                 1.9564
 IR Inten    --    198.5710                49.5399                 2.3134

                     16                     17                     18
                      A                      A                      A
 Frequencies --   1432.3928              1460.5972              1699.2176
 Red. masses --      1.3016                 1.6141                 6.5061
 Frc consts  --      1.5735                 2.0288                11.0680
 IR Inten    --     47.9397                23.3197                78.4592

                     19                     20                     21
                      A                      A                      A
 Frequencies --   1741.8386              3052.5137              3172.6101
 Red. masses --      5.8826                 1.0879                 1.0628
 Frc consts  --     10.5156                 5.9726                 6.3028
 IR Inten    --     30.2439                45.7040                 9.5175

                     22                     23                     24
                      A                      A                      A
 Frequencies --   3280.2923              3467.8090              3822.1566
 Red. masses --      1.1140                 1.0762                 1.0657
 Frc consts  --      7.0624                 7.6256                 9.1732
 IR Inten    --      1.2562                 0.2217                30.7229

 - Thermochemistry -
 -------------------
 Temperature   298.150 Kelvin.  Pressure   1.00000 Atm.
 Atom     1 has atomic number  6 and mass  12.00000

 Molecular mass:    71.03711 amu.
 Principal axes and moments of inertia in atomic units:
                           1         2         3
     Eigenvalues --   181.59798 429.51583 611.11382
           X            0.99820   0.05989  -0.00000
           Y           -0.05989   0.99820   0.00000
           Z            0.00000  -0.00000   1.00000
 This molecule is an asymmetric top.
 Rotational symmetry number  1.
 Rotational temperatures (Kelvin)      0.47695     0.20165     0.14173
 Rotational constants (GHZ):           9.93811     4.20180     2.95320
 Zero-point vibrational energy     207104.7 (Joules/Mol)
                                   49.49921 (Kcal/Mol)
 Warning -- explicit consideration of   6 degrees of freedom as
           vibrations may cause significant error
 Vibrational temperatures:    167.85   418.06   578.18   658.36   701.73
          (Kelvin)            843.27  1036.28  1190.73  1235.13  1264.46
                             1409.10  1603.74  1700.82  1769.71  1962.42
                             2060.89  2101.47  2444.79  2506.11  4391.88
                             4564.67  4719.60  4989.40  5499.22

 Zero-point correction=                           0.078882 (Hartree/Particle)
 Thermal correction to Energy=                    0.084234
 Thermal correction to Enthalpy=                  0.085178
 Thermal correction to Gibbs Free Energy=         0.050649
 Sum of electronic and zero-point Energies=           -247.183797
 Sum of electronic and thermal Energies=              -247.178445
 Sum of electronic and thermal Enthalpies=            -247.177501
 Sum of electronic and thermal Free Energies=         -247.212030

                     E (Thermal)             CV                S
                      KCal/Mol        Cal/Mol-Kelvin    Cal/Mol-Kelvin
 Total                   52.858             18.663             72.673
 Electronic               0.000              0.000              0.000
 Translational            0.889              2.981             38.699
 Rotational               0.889              2.981             25.370
 Vibrational             51.080             12.701              8.605
 Vibration     1          0.608              1.936              3.155
 Vibration     2          0.687              1.691              1.471
 Vibration     3          0.767              1.466              0.956
 Vibration     4          0.816              1.344              0.773
 Vibration     5          0.844              1.277              0.690
 Vibration     6          0.943              1.061              0.474

 Optimization completed.
    -- Stationary point found.
 Normal termination of Gaussian 09 at Sat Aug 21 01:33:22 2021.
