 Gaussian 09, Revision E.01,
 Gaussian 09:  ES64L-G09RevE.01 30-Nov-2015

 ----------------------------
 #P OPT Freq B3LYP/6-31G(d,p)
 ----------------------------

 --------
 Frag_933
 --------
 Symbolic Z-matrix:
 Charge =  0 Multiplicity = 1

 SCF Done:  E(RB3LYP) =  -303.782117052     A.U. after   15 cycles
 SCF Done:  E(RB3LYP) =  -303.782223615     A.U. after   11 cycles
 SCF Done:  E(RB3LYP) =  -303.782258517     A.U. after   11 cycles
 SCF Done:  E(RB3LYP) =  -303.782295865     A.U. after   12 cycles
 SCF Done:  E(RB3LYP) =  -303.782325906     A.U. after   12 cycles
 SCF Done:  E(RB3LYP) =  -303.782388848     A.U. after   12 cycles
 SCF Done:  E(RB3LYP) =  -303.782433189     A.U. after   14 cycles
 SCF Done:  E(RB3LYP) =  -303.782420622     A.U. after   14 cycles
 SCF Done:  E(RB3LYP) =  -303.782388828     A.U. after   11 cycles
 SCF Done:  E(RB3LYP) =  -303.782463978     A.U. after   12 cycles
 SCF Done:  E(RB3LYP) =  -303.782646215     A.U. after   12 cycles
 SCF Done:  E(RB3LYP) =  -303.782661172     A.U. after   12 cycles
 SCF Done:  E(RB3LYP) =  -303.782668122     A.U. after   11 cycles
 SCF Done:  E(RB3LYP) =  -303.782672309     A.U. after   11 cycles
 SCF Done:  E(RB3LYP) =  -303.782672695     A.U. after    8 cycles
 SCF Done:  E(RB3LYP) =  -303.782672777     A.U. after    7 cycles
 SCF Done:  E(RB3LYP) =  -303.782672821     A.U. after    7 cycles
 SCF Done:  E(RB3LYP) =  -303.782672868     A.U. after    7 cycles
 SCF Done:  E(RB3LYP) =  -303.782672939     A.U. after    7 cycles
 Optimization completed.
    -- Stationary point found.
 Normal termination of Gaussian 09 at Thu Sep  8 15:19:50 2022.

 ----------------------------------------------------------------------
 #P Geom=AllCheck Guess=TCheck SCRF=Check GenChk RB3LYP/6-31G(d,p) Freq
 ----------------------------------------------------------------------

 Structure from the checkpoint file:  "B3LYP6-31Gdp.Frag_933.chk"
 --------
 Frag_933
 --------
 Charge =  0 Multiplicity = 1

                         Standard orientation:
 ---------------------------------------------------------------------
 Center     Atomic      Atomic             Coordinates (Angstroms)
 Number     Number       Type             X           Y           Z
 ---------------------------------------------------------------------
      1          6           0       -1.218717    1.452180    0.000051
      2          6           0       -0.631979    0.076109    0.000028
      3          6           0       -1.500147   -1.143200   -0.000040
      4          7           0        0.658123   -0.160274    0.000028
      5          7           0        1.565692    0.973415    0.000078
      6          8           0        1.187753   -1.318579    0.000006
      7          1           0       -0.446307    2.218441    0.000753
      8          1           0       -1.860694    1.590988   -0.879761
      9          1           0       -1.861799    1.590378    0.879140
     10          1           0       -1.284658   -1.768598    0.874150
     11          1           0       -2.557143   -0.868883    0.000340
     12          1           0       -1.285259   -1.768142   -0.874716
     13          1           0        2.166631    0.775398    0.803370
     14          1           0        2.165558    0.776526   -0.804296
 ---------------------------------------------------------------------

 SCF Done:  E(RB3LYP) =  -303.782672939     A.U. after    1 cycles

 The electronic state is 1-A.
 Alpha  occ. eigenvalues --  -19.10861 -14.47911 -14.36736 -10.23429 -10.19185
 Alpha  occ. eigenvalues --  -10.18612  -1.10615  -0.90906  -0.84175  -0.72188
 Alpha  occ. eigenvalues --   -0.70458  -0.56009  -0.52640  -0.49028  -0.47453
 Alpha  occ. eigenvalues --   -0.44280  -0.40456  -0.39839  -0.39723  -0.37443
 Alpha  occ. eigenvalues --   -0.36631  -0.31414  -0.23300  -0.20450
 Alpha virt. eigenvalues --   -0.00430   0.07820   0.10814   0.13119   0.14183
 Alpha virt. eigenvalues --    0.14551   0.15705   0.16930   0.17592   0.20094
 Alpha virt. eigenvalues --    0.23254   0.24031   0.34283   0.35871   0.50322

 Mulliken charges:
               1
     1  C   -0.376981
     2  C    0.293340
     3  C   -0.348091
     4  N    0.072422
     5  N   -0.441247
     6  O   -0.525582
     7  H    0.155893
     8  H    0.121855
     9  H    0.121843
    10  H    0.141893
    11  H    0.102653
    12  H    0.141863
    13  H    0.270064
    14  H    0.270074
 Sum of Mulliken charges =   0.00000

 Dipole moment (field-independent basis, Debye):
    X=             -0.9024    Y=              2.0308    Z=             -0.0017  Tot=              2.2222
 Quadrupole moment (field-independent basis, Debye-Ang):
   XX=            -31.8967   YY=            -41.2310   ZZ=            -35.0256
   XY=              3.8296   XZ=             -0.0020   YZ=             -0.0031

  Exact polarizability:  70.410  -3.808  54.431   0.001  -0.003  36.516
 Approx polarizability: 111.756 -20.712  83.342   0.003  -0.004  52.422

                      1                      2                      3
                      A                      A                      A
 Frequencies --     63.3516               116.2263               169.4052
 Red. masses --      1.0802                 1.0791                 1.5680
 Frc consts  --      0.0026                 0.0086                 0.0265
 IR Inten    --     39.1938                 5.5435                10.1469

                      4                      5                      6
                      A                      A                      A
 Frequencies --    202.3475               301.1413               312.7587
 Red. masses --      1.5142                 3.4677                 2.8337
 Frc consts  --      0.0365                 0.1853                 0.1633
 IR Inten    --     13.1170                 3.4539                 0.0076

                      7                      8                      9
                      A                      A                      A
 Frequencies --    371.2550               510.9630               575.2788
 Red. masses --      2.4179                 3.7469                 5.5330
 Frc consts  --      0.1963                 0.5764                 1.0789
 IR Inten    --      4.1061                33.9578                12.9476

                     10                     11                     12
                      A                      A                      A
 Frequencies --    591.6711               733.7736               921.6956
 Red. masses --      4.5531                 4.5746                 2.8145
 Frc consts  --      0.9391                 1.4512                 1.4087
 IR Inten    --      3.1532                 0.4784                48.0452

                     13                     14                     15
                      A                      A                      A
 Frequencies --    991.0623               992.1617              1034.5118
 Red. masses --      1.3635                 1.2398                 1.5339
 Frc consts  --      0.7891                 0.7191                 0.9672
 IR Inten    --     18.7391                 0.0248                50.5506

                     16                     17                     18
                      A                      A                      A
 Frequencies --   1096.3450              1201.3678              1294.6751
 Red. masses --      1.5505                 1.9471                 4.1703
 Frc consts  --      1.0980                 1.6557                 4.1185
 IR Inten    --      1.4377                 2.3341               100.1635

                     19                     20                     21
                      A                      A                      A
 Frequencies --   1331.8607              1332.3737              1420.8851
 Red. masses --      3.2908                 1.2128                 1.3764
 Frc consts  --      3.4393                 1.2685                 1.6373
 IR Inten    --     64.3850                 2.8007                 4.1945

                     22                     23                     24
                      A                      A                      A
 Frequencies --   1430.6467              1480.9307              1488.2175
 Red. masses --      1.3272                 1.0447                 1.1022
 Frc consts  --      1.6005                 1.3499                 1.4383
 IR Inten    --      2.7646                 5.8848                 5.0577

                     25                     26                     27
                      A                      A                      A
 Frequencies --   1499.7787              1503.5814              1637.2852
 Red. masses --      1.0865                 1.0457                 1.5117
 Frc consts  --      1.4399                 1.3928                 2.3875
 IR Inten    --      5.8912                 7.6961                64.9333

                     28                     29                     30
                      A                      A                      A
 Frequencies --   1742.4177              3025.4470              3041.5597
 Red. masses --      2.3811                 1.0422                 1.0370
 Frc consts  --      4.2593                 5.6206                 5.6522
 IR Inten    --     29.2433                27.6512                17.2695

                     31                     32                     33
                      A                      A                      A
 Frequencies --   3067.5908              3093.0069              3142.9496
 Red. masses --      1.1000                 1.0996                 1.1029
 Frc consts  --      6.0985                 6.1979                 6.4187
 IR Inten    --     20.0964                 9.0807                14.1287

                     34                     35                     36
                      A                      A                      A
 Frequencies --   3186.3968              3441.5275              3512.5330
 Red. masses --      1.0954                 1.0493                 1.0908
 Frc consts  --      6.5529                 7.3223                 7.9290
 IR Inten    --      1.9336                 1.7693                 4.5891

 - Thermochemistry -
 -------------------
 Temperature   298.150 Kelvin.  Pressure   1.00000 Atm.
 Atom     1 has atomic number  6 and mass  12.00000

 Molecular mass:    88.06366 amu.
 Principal axes and moments of inertia in atomic units:
                           1         2         3
     Eigenvalues --   374.68969 512.46684 855.71250
           X            0.99687   0.07900  -0.00001
           Y           -0.07900   0.99687  -0.00001
           Z            0.00001   0.00001   1.00000
 This molecule is an asymmetric top.
 Rotational symmetry number  1.
 Rotational temperatures (Kelvin)      0.23116     0.16901     0.10122
 Rotational constants (GHZ):           4.81663     3.52167     2.10905
 Zero-point vibrational energy     310185.6 (Joules/Mol)
                                   74.13613 (Kcal/Mol)
 Warning -- explicit consideration of  10 degrees of freedom as
           vibrations may cause significant error
 Vibrational temperatures:     91.15   167.22   243.74   291.13   433.27
          (Kelvin)            449.99   534.15   735.16   827.70   851.28
                             1055.74  1326.11  1425.92  1427.50  1488.43
                             1577.39  1728.50  1862.75  1916.25  1916.99
                             2044.33  2058.38  2130.73  2141.21  2157.84
                             2163.32  2355.69  2506.95  4352.94  4376.12
                             4413.57  4450.14  4522.00  4584.51  4951.58
                             5053.75

 Zero-point correction=                           0.118143 (Hartree/Particle)
 Thermal correction to Energy=                    0.125740
 Thermal correction to Enthalpy=                  0.126684
 Thermal correction to Gibbs Free Energy=         0.086597
 Sum of electronic and zero-point Energies=           -303.664529
 Sum of electronic and thermal Energies=              -303.656933
 Sum of electronic and thermal Enthalpies=            -303.655989
 Sum of electronic and thermal Free Energies=         -303.696076

                     E (Thermal)             CV                S
                      KCal/Mol        Cal/Mol-Kelvin    Cal/Mol-Kelvin
 Total                   78.903             25.632             84.370
 Electronic               0.000              0.000              0.000
 Translational            0.889              2.981             39.339
 Rotational               0.889              2.981             26.599
 Vibrational             77.126             19.670             18.431
 Vibration     1          0.597              1.972              4.350
 Vibration     2          0.608              1.936              3.162
 Vibration     3          0.625              1.880              2.442
 Vibration     4          0.639              1.837              2.112
 Vibration     5          0.693              1.672              1.411
 Vibration     6          0.701              1.649              1.348
 Vibration     7          0.743              1.531              1.075
 Vibration     8          0.866              1.226              0.631
 Vibration     9          0.932              1.085              0.494
 Vibration    10          0.949              1.050              0.464

 Optimization completed.
    -- Stationary point found.
 Normal termination of Gaussian 09 at Thu Sep  8 15:20:01 2022.
