 Gaussian 09, Revision E.01,
 Gaussian 09:  ES64L-G09RevE.01 30-Nov-2015

 --------------------------------
 #P OPT=calcfc Freq B3LYP/6-31G**
 --------------------------------

 --------
 Frag_401
 --------
 Symbolic Z-matrix:
 Charge =  0 Multiplicity = 1

 SCF Done:  E(RB3LYP) =  -249.724168899     A.U. after   13 cycles
 SCF Done:  E(RB3LYP) =  -249.728004794     A.U. after   11 cycles
 SCF Done:  E(RB3LYP) =  -249.728043161     A.U. after   10 cycles
 SCF Done:  E(RB3LYP) =  -249.728043719     A.U. after    7 cycles
 Optimization completed.
    -- Stationary point found.
 Normal termination of Gaussian 09 at Fri Sep 10 20:44:27 2021.

 ----------------------------------------------------------------------
 #P Geom=AllCheck Guess=TCheck SCRF=Check GenChk RB3LYP/6-31G(d,p) Freq
 ----------------------------------------------------------------------

 Structure from the checkpoint file:  "/public/home/users/caep010/.cache/gau_scr/Gau-160560.chk"
 --------
 Frag_401
 --------
 Charge =  0 Multiplicity = 1

                         Standard orientation:
 ---------------------------------------------------------------------
 Center     Atomic      Atomic             Coordinates (Angstroms)
 Number     Number       Type             X           Y           Z
 ---------------------------------------------------------------------
      1          6           0        1.269651   -0.762841   -0.354978
      2          6           0       -0.000000    0.024713   -0.010121
      3          6           0       -1.269650   -0.762842   -0.354978
      4          7           0       -0.000001    1.267481   -0.748163
      5          8           0       -0.000000    0.343364    1.401624
      6          1           0        1.313398   -0.982678   -1.424744
      7          1           0        2.156088   -0.183479   -0.078041
      8          1           0        1.300281   -1.709945    0.194608
      9          1           0       -1.300279   -1.709946    0.194609
     10          1           0       -2.156088   -0.183481   -0.078042
     11          1           0       -1.313397   -0.982680   -1.424744
     12          1           0       -0.813284    1.812983   -0.468476
     13          1           0        0.813282    1.812983   -0.468476
     14          1           0        0.000001   -0.487224    1.897919
 ---------------------------------------------------------------------

 SCF Done:  E(RB3LYP) =  -249.728043719     A.U. after    1 cycles

 The electronic state is 1-A.
 Alpha  occ. eigenvalues --  -19.13272 -14.30856 -10.26142 -10.17393 -10.17392
 Alpha  occ. eigenvalues --   -1.01218  -0.87329  -0.74208  -0.69185  -0.57529
 Alpha  occ. eigenvalues --   -0.49143  -0.48449  -0.46111  -0.40933  -0.40271
 Alpha  occ. eigenvalues --   -0.37983  -0.37065  -0.35074  -0.32518  -0.26292
 Alpha  occ. eigenvalues --   -0.24994
 Alpha virt. eigenvalues --    0.06603   0.10577   0.13742   0.14366   0.15516
 Alpha virt. eigenvalues --    0.16197   0.16624   0.19907   0.21849   0.22307
 Alpha virt. eigenvalues --    0.24905   0.26020   0.28437   0.50854   0.53424

 Mulliken charges:
               1
     1  C   -0.302769
     2  C    0.335375
     3  C   -0.302769
     4  N   -0.570321
     5  O   -0.552799
     6  H    0.116647
     7  H    0.105767
     8  H    0.087917
     9  H    0.087917
    10  H    0.105767
    11  H    0.116647
    12  H    0.239511
    13  H    0.239511
    14  H    0.293599
 Sum of Mulliken charges =  -0.00000

 Dipole moment (field-independent basis, Debye):
    X=              0.0000    Y=             -1.0001    Z=              0.5568  Tot=              1.1446
 Quadrupole moment (field-independent basis, Debye-Ang):
   XX=            -30.8738   YY=            -29.5111   ZZ=            -34.5867
   XY=             -0.0000   XZ=              0.0000   YZ=             -1.6914

  Exact polarizability:  44.384  -0.000  45.609   0.000  -2.122  41.971
 Approx polarizability:  56.467  -0.000  61.212   0.000  -3.179  59.607

                      1                      2                      3
                      A                      A                      A
 Frequencies --    228.4381               272.7081               285.7215
 Red. masses --      1.0209                 1.0440                 1.0448
 Frc consts  --      0.0314                 0.0457                 0.0503
 IR Inten    --      4.5689                 0.0881                15.4468

                      4                      5                      6
                      A                      A                      A
 Frequencies --    340.8691               353.5643               364.4957
 Red. masses --      2.3770                 1.0565                 2.9597
 Frc consts  --      0.1627                 0.0778                 0.2317
 IR Inten    --      4.2323               129.7463                 7.5258

                      7                      8                      9
                      A                      A                      A
 Frequencies --    443.9999               480.3723               492.9581
 Red. masses --      2.3895                 2.5937                 2.9416
 Frc consts  --      0.2775                 0.3526                 0.4212
 IR Inten    --      2.4767                36.2476                18.8221

                     10                     11                     12
                      A                      A                      A
 Frequencies --    766.8912               892.6013               911.1409
 Red. masses --      3.9610                 1.8199                 2.5356
 Frc consts  --      1.3725                 0.8543                 1.2402
 IR Inten    --     10.4837               139.6355                29.0822

                     13                     14                     15
                      A                      A                      A
 Frequencies --    926.8360              1007.9659              1023.2800
 Red. masses --      1.5697                 1.2515                 1.4953
 Frc consts  --      0.7945                 0.7491                 0.9225
 IR Inten    --      0.1760                 0.4623                 3.2382

                     16                     17                     18
                      A                      A                      A
 Frequencies --   1090.2087              1148.3284              1207.9086
 Red. masses --      1.5499                 1.4514                 2.1568
 Frc consts  --      1.0854                 1.1276                 1.8540
 IR Inten    --     12.0330               135.5707                47.6546

                     19                     20                     21
                      A                      A                      A
 Frequencies --   1365.0031              1376.8091              1419.8286
 Red. masses --      1.6260                 2.0202                 1.4472
 Frc consts  --      1.7849                 2.2562                 1.7189
 IR Inten    --      9.9963                70.8272                20.5242

                     22                     23                     24
                      A                      A                      A
 Frequencies --   1431.1209              1494.3538              1503.3534
 Red. masses --      1.2946                 1.0459                 1.0734
 Frc consts  --      1.5622                 1.3760                 1.4293
 IR Inten    --     17.1180                 0.0473                 0.1228

                     25                     26                     27
                      A                      A                      A
 Frequencies --   1511.5208              1520.7463              1681.7119
 Red. masses --      1.0546                 1.0791                 1.0972
 Frc consts  --      1.4196                 1.4704                 1.8282
 IR Inten    --      0.2812                 6.4101                28.1561

                     28                     29                     30
                      A                      A                      A
 Frequencies --   3043.9303              3049.3621              3113.8537
 Red. masses --      1.0359                 1.0366                 1.1021
 Frc consts  --      5.6553                 5.6792                 6.2961
 IR Inten    --     20.9392                11.1534                12.9549

                     31                     32                     33
                      A                      A                      A
 Frequencies --   3117.9992              3134.7074              3139.9522
 Red. masses --      1.1018                 1.1031                 1.1023
 Frc consts  --      6.3112                 6.3864                 6.4029
 IR Inten    --     46.8212                 5.3369                38.1895

                     34                     35                     36
                      A                      A                      A
 Frequencies --   3484.2220              3564.5503              3792.2743
 Red. masses --      1.0494                 1.0916                 1.0657
 Frc consts  --      7.5062                 8.1721                 9.0300
 IR Inten    --      0.3523                 0.0064                 2.9540

 - Thermochemistry -
 -------------------
 Temperature   298.150 Kelvin.  Pressure   1.00000 Atm.
 Atom     1 has atomic number  6 and mass  12.00000

 Molecular mass:    75.06841 amu.
 Principal axes and moments of inertia in atomic units:
                           1         2         3
     Eigenvalues --   369.75461 381.10523 390.58445
           X            1.00000   0.00000   0.00000
           Y           -0.00000   0.98862  -0.15042
           Z           -0.00000   0.15042   0.98862
 This molecule is an asymmetric top.
 Rotational symmetry number  1.
 Rotational temperatures (Kelvin)      0.23425     0.22727     0.22175
 Rotational constants (GHZ):           4.88092     4.73555     4.62062
 Zero-point vibrational energy     328874.9 (Joules/Mol)
                                   78.60298 (Kcal/Mol)
 Warning -- explicit consideration of   9 degrees of freedom as
           vibrations may cause significant error
 Vibrational temperatures:    328.67   392.37   411.09   490.43   508.70
          (Kelvin)            524.43   638.82   691.15   709.26  1103.38
                             1284.25  1310.93  1333.51  1450.24  1472.27
                             1568.57  1652.19  1737.91  1963.93  1980.92
                             2042.81  2059.06  2150.04  2162.99  2174.74
                             2188.01  2419.61  4379.53  4387.35  4480.14
                             4486.10  4510.14  4517.69  5013.01  5128.59
                             5456.23

 Zero-point correction=                           0.125262 (Hartree/Particle)
 Thermal correction to Energy=                    0.131746
 Thermal correction to Enthalpy=                  0.132690
 Thermal correction to Gibbs Free Energy=         0.096532
 Sum of electronic and zero-point Energies=           -249.602782
 Sum of electronic and thermal Energies=              -249.596298
 Sum of electronic and thermal Enthalpies=            -249.595354
 Sum of electronic and thermal Free Energies=         -249.631512

                     E (Thermal)             CV                S
                      KCal/Mol        Cal/Mol-Kelvin    Cal/Mol-Kelvin
 Total                   82.672             24.200             76.100
 Electronic               0.000              0.000              0.000
 Translational            0.889              2.981             38.863
 Rotational               0.889              2.981             25.512
 Vibrational             80.894             18.239             11.724
 Vibration     1          0.651              1.798              1.891
 Vibration     2          0.676              1.724              1.579
 Vibration     3          0.684              1.700              1.499
 Vibration     4          0.720              1.594              1.208
 Vibration     5          0.730              1.568              1.150
 Vibration     6          0.738              1.545              1.103
 Vibration     7          0.804              1.374              0.814
 Vibration     8          0.837              1.294              0.709
 Vibration     9          0.849              1.266              0.676

 Optimization completed.
    -- Stationary point found.
 Normal termination of Gaussian 09 at Fri Sep 10 20:44:37 2021.
