 Gaussian 09, Revision E.01,
 Gaussian 09:  ES64L-G09RevE.01 30-Nov-2015

 -------------------------
 #P OPT Freq B3LYP/6-31G**
 -------------------------

 --------
 Frag_246
 --------
 Symbolic Z-matrix:
 Charge =  0 Multiplicity = 1

 SCF Done:  E(RB3LYP) =  -302.635579970     A.U. after   14 cycles
 SCF Done:  E(RB3LYP) =  -302.638915715     A.U. after   13 cycles
 SCF Done:  E(RB3LYP) =  -302.639136903     A.U. after   12 cycles
 SCF Done:  E(RB3LYP) =  -302.639189133     A.U. after   11 cycles
 SCF Done:  E(RB3LYP) =  -302.639197119     A.U. after   10 cycles
 SCF Done:  E(RB3LYP) =  -302.639197715     A.U. after    8 cycles
 Optimization completed.
    -- Stationary point found.
 Normal termination of Gaussian 09 at Sat Aug 21 01:34:52 2021.

 ----------------------------------------------------------------------
 #P Geom=AllCheck Guess=TCheck SCRF=Check GenChk RB3LYP/6-31G(d,p) Freq
 ----------------------------------------------------------------------

 Structure from the checkpoint file:  "/public/home/users/caep010/.cache/gau_scr/Gau-10989.chk"
 --------
 Frag_246
 --------
 Charge =  0 Multiplicity = 1

                         Standard orientation:
 ---------------------------------------------------------------------
 Center     Atomic      Atomic             Coordinates (Angstroms)
 Number     Number       Type             X           Y           Z
 ---------------------------------------------------------------------
      1          6           0       -0.885021    1.325257   -0.393843
      2          6           0       -0.303055   -0.038645    0.001993
      3          7           0       -0.779186   -1.057779   -0.893534
      4          8           0       -0.663117   -0.376691    1.348058
      5          6           0        1.188382    0.003356   -0.087908
      6          7           0        2.347054    0.064330   -0.100253
      7          1           0       -1.974187    1.280897   -0.300965
      8          1           0       -0.511580    2.112677    0.266487
      9          1           0       -0.618671    1.572632   -1.423174
     10          1           0       -0.436865   -1.966338   -0.589939
     11          1           0       -1.795218   -1.084355   -0.846917
     12          1           0       -0.335459    0.312360    1.945104
 ---------------------------------------------------------------------

 SCF Done:  E(RB3LYP) =  -302.639197715     A.U. after    1 cycles

 The electronic state is 1-A.
 Alpha  occ. eigenvalues --  -19.17155 -14.34335 -14.34023 -10.32186 -10.22779
 Alpha  occ. eigenvalues --  -10.20557  -1.05526  -0.91664  -0.89842  -0.76462
 Alpha  occ. eigenvalues --   -0.66859  -0.56992  -0.52441  -0.49806  -0.44758
 Alpha  occ. eigenvalues --   -0.42348  -0.40740  -0.38630  -0.36019  -0.34090
 Alpha  occ. eigenvalues --   -0.33100  -0.30302  -0.28172
 Alpha virt. eigenvalues --    0.02187   0.02627   0.05503   0.09995   0.11993
 Alpha virt. eigenvalues --    0.13812   0.15139   0.16931   0.17847   0.21755
 Alpha virt. eigenvalues --    0.25722   0.26685   0.37146   0.52120   0.52706

 Mulliken charges:
               1
     1  C   -0.307588
     2  C    0.297116
     3  N   -0.556797
     4  O   -0.526408
     5  C    0.348270
     6  N   -0.468498
     7  H    0.122512
     8  H    0.115320
     9  H    0.143531
    10  H    0.263824
    11  H    0.256573
    12  H    0.312144
 Sum of Mulliken charges =  -0.00000

 Dipole moment (field-independent basis, Debye):
    X=             -3.5184    Y=              0.7967    Z=              0.7983  Tot=              3.6947
 Quadrupole moment (field-independent basis, Debye-Ang):
   XX=            -42.5572   YY=            -31.5877   ZZ=            -35.8107
   XY=             -0.2201   XZ=              2.0453   YZ=              1.9416

  Exact polarizability:  54.402   0.774  40.571   1.104   2.131  38.669
 Approx polarizability:  85.145   3.236  53.553   0.325   3.007  55.192

                      1                      2                      3
                      A                      A                      A
 Frequencies --    182.3922               192.5014               259.9534
 Red. masses --      3.8623                 4.2709                 1.0883
 Frc consts  --      0.0757                 0.0932                 0.0433
 IR Inten    --      3.4684                 4.4286                 5.5284

                      4                      5                      6
                      A                      A                      A
 Frequencies --    291.5459               357.9673               389.7237
 Red. masses --      1.1123                 1.1392                 2.7365
 Frc consts  --      0.0557                 0.0860                 0.2449
 IR Inten    --      3.7560               152.9598                 0.5323

                      7                      8                      9
                      A                      A                      A
 Frequencies --    417.4147               440.4883               593.8012
 Red. masses --      3.1820                 3.6337                 5.7479
 Frc consts  --      0.3267                 0.4154                 1.1941
 IR Inten    --     38.0550                32.2875                 9.6441

                     10                     11                     12
                      A                      A                      A
 Frequencies --    600.5942               719.1533               860.3443
 Red. masses --      6.4585                 3.8492                 2.0109
 Frc consts  --      1.3726                 1.1729                 0.8770
 IR Inten    --      0.5871                22.3579               104.9131

                     13                     14                     15
                      A                      A                      A
 Frequencies --    912.2011               986.6604              1047.8901
 Red. masses --      2.0941                 1.9576                 1.6789
 Frc consts  --      1.0267                 1.1228                 1.0862
 IR Inten    --     81.5127                14.0822                23.9473

                     16                     17                     18
                      A                      A                      A
 Frequencies --   1137.6682              1163.3749              1352.6148
 Red. masses --      1.7388                 1.9699                 1.7851
 Frc consts  --      1.3260                 1.5709                 1.9242
 IR Inten    --    152.2619                27.6383                26.9608

                     19                     20                     21
                      A                      A                      A
 Frequencies --   1370.1909              1420.7000              1498.2965
 Red. masses --      2.0177                 1.2793                 1.0467
 Frc consts  --      2.2318                 1.5214                 1.3845
 IR Inten    --    101.8311                13.0434                 2.9228

                     22                     23                     24
                      A                      A                      A
 Frequencies --   1507.9409              1675.9400              2362.6215
 Red. masses --      1.0692                 1.0956                12.7100
 Frc consts  --      1.4325                 1.8131                41.8009
 IR Inten    --      1.4421                30.4824                 0.1190

                     25                     26                     27
                      A                      A                      A
 Frequencies --   3060.0838              3137.1182              3157.4873
 Red. masses --      1.0351                 1.1036                 1.1036
 Frc consts  --      5.7110                 6.3991                 6.4828
 IR Inten    --      7.1167                15.9148                 8.8088

                     28                     29                     30
                      A                      A                      A
 Frequencies --   3500.8843              3589.6678              3783.7441
 Red. masses --      1.0490                 1.0934                 1.0660
 Frc consts  --      7.5747                 8.3014                 8.9915
 IR Inten    --      2.9042                 4.3380                13.7106

 - Thermochemistry -
 -------------------
 Temperature   298.150 Kelvin.  Pressure   1.00000 Atm.
 Atom     1 has atomic number  6 and mass  12.00000

 Molecular mass:    86.04801 amu.
 Principal axes and moments of inertia in atomic units:
                           1         2         3
     Eigenvalues --   364.76684 633.08819 646.00012
           X            0.99912  -0.03142   0.02767
           Y            0.02702   0.98874   0.14716
           Z           -0.03198  -0.14628   0.98873
 This molecule is an asymmetric top.
 Rotational symmetry number  1.
 Rotational temperatures (Kelvin)      0.23745     0.13681     0.13408
 Rotational constants (GHZ):           4.94766     2.85069     2.79372
 Zero-point vibrational energy     251042.1 (Joules/Mol)
                                   60.00051 (Kcal/Mol)
 Warning -- explicit consideration of  10 degrees of freedom as
           vibrations may cause significant error
 Vibrational temperatures:    262.42   276.97   374.01   419.47   515.03
          (Kelvin)            560.72   600.57   633.76   854.35   864.12
                             1034.70  1237.84  1312.45  1419.58  1507.68
                             1636.85  1673.83  1946.11  1971.40  2044.07
                             2155.71  2169.59  2411.30  3399.28  4402.77
                             4513.61  4542.91  5036.99  5164.72  5443.96

 Zero-point correction=                           0.095617 (Hartree/Particle)
 Thermal correction to Energy=                    0.102440
 Thermal correction to Enthalpy=                  0.103385
 Thermal correction to Gibbs Free Energy=         0.065792
 Sum of electronic and zero-point Energies=           -302.543581
 Sum of electronic and thermal Energies=              -302.536757
 Sum of electronic and thermal Enthalpies=            -302.535813
 Sum of electronic and thermal Free Energies=         -302.573406

                     E (Thermal)             CV                S
                      KCal/Mol        Cal/Mol-Kelvin    Cal/Mol-Kelvin
 Total                   64.282             24.615             79.121
 Electronic               0.000              0.000              0.000
 Translational            0.889              2.981             39.270
 Rotational               0.889              2.981             26.503
 Vibrational             62.505             18.654             13.347
 Vibration     1          0.630              1.864              2.304
 Vibration     2          0.634              1.850              2.204
 Vibration     3          0.668              1.746              1.662
 Vibration     4          0.687              1.689              1.465
 Vibration     5          0.733              1.559              1.131
 Vibration     6          0.758              1.492              1.001
 Vibration     7          0.780              1.432              0.901
 Vibration     8          0.800              1.382              0.825
 Vibration     9          0.951              1.045              0.460
 Vibration    10          0.959              1.031              0.449

 Normal termination of Gaussian 09 at Sat Aug 21 01:35:03 2021.
