 Gaussian 09, Revision D.01,
 Gaussian 09:  ES64L-G09RevD.01 24-Apr-2013

 -------------------------
 #P OPT Freq B3LYP/6-31G**
 -------------------------

 -------
 Frag_87
 -------
 Symbolic Z-matrix:
 Charge =  0 Multiplicity = 1

 SCF Done:  E(RB3LYP) =  -156.001661316     A.U. after   12 cycles
 Optimization completed.
    -- Stationary point found.
 Normal termination of Gaussian 09 at Fri Jul 23 19:23:39 2021.

 ----------------------------------------------------------------------
 #P Geom=AllCheck Guess=TCheck SCRF=Check GenChk RB3LYP/6-31G(d,p) Freq
 ----------------------------------------------------------------------

 Structure from the checkpoint file:  "/vol2/users/liuj201281/HOFBenchmark/IsodesmicSplit/Sample60/Ring26/Running/Gau-302779.chk"
 -------
 Frag_87
 -------
 Charge =  0 Multiplicity = 1

                         Standard orientation:
 ---------------------------------------------------------------------
 Center     Atomic      Atomic             Coordinates (Angstroms)
 Number     Number       Type             X           Y           Z
 ---------------------------------------------------------------------
      1          6           0        0.601834    1.750670    0.000000
      2          6           0        0.601834    0.410649    0.000000
      3          6           0       -0.601834   -0.410649    0.000000
      4          6           0       -0.601834   -1.750670    0.000000
      5          1           0       -0.325614    2.317658    0.000000
      6          1           0        1.524023    2.322155    0.000000
      7          1           0        1.551053   -0.124962    0.000000
      8          1           0       -1.551053    0.124962    0.000000
      9          1           0        0.325614   -2.317658    0.000000
     10          1           0       -1.524023   -2.322155    0.000000
 ---------------------------------------------------------------------

 SCF Done:  E(RB3LYP) =  -156.001661316     A.U. after    1 cycles

 The electronic state is 1-AG.
 Alpha  occ. eigenvalues --  -10.19257 -10.19222 -10.18384 -10.18384  -0.80174
 Alpha  occ. eigenvalues --   -0.72988  -0.60265  -0.54954  -0.46325  -0.45858
 Alpha  occ. eigenvalues --   -0.39084  -0.38371  -0.34329  -0.32041  -0.22967
 Alpha virt. eigenvalues --   -0.02355   0.08397   0.11592   0.12566   0.13082
 Alpha virt. eigenvalues --    0.17546   0.19244   0.21223   0.32367   0.33566
 Alpha virt. eigenvalues --    0.39626   0.47039   0.51025   0.53002   0.57781

 Mulliken charges:
               1
     1  C   -0.252791
     2  C   -0.028728
     3  C   -0.028728
     4  C   -0.252791
     5  H    0.097706
     6  H    0.101760
     7  H    0.082053
     8  H    0.082053
     9  H    0.097706
    10  H    0.101760
 Sum of Mulliken charges =   0.00000

 Dipole moment (field-independent basis, Debye):
    X=              0.0000    Y=              0.0000    Z=              0.0000  Tot=              0.0000
 Quadrupole moment (field-independent basis, Debye-Ang):
   XX=            -22.7027   YY=            -22.8487   ZZ=            -27.8646
   XY=             -0.0820   XZ=              0.0000   YZ=              0.0000

  Exact polarizability:  41.093   9.400  76.637   0.000   0.000  16.045
 Approx polarizability:  54.324  13.447 128.798   0.000   0.000  22.646

                      1                      2                      3
                     AU                     BU                     AG
 Frequencies --    175.6899               296.9647               516.4210
 Red. masses --      2.6364                 2.1640                 2.6819
 Frc consts  --      0.0479                 0.1124                 0.4214
 IR Inten    --      0.2002                 2.6096                 0.0000

                      4                      5                      6
                     AU                     BG                     AG
 Frequencies --    539.0348               781.2809               905.1676
 Red. masses --      1.0744                 1.6572                 1.8084
 Frc consts  --      0.1839                 0.5960                 0.8730
 IR Inten    --      7.6111                 0.0000                 0.0000

                      7                      8                      9
                     AU                     BG                     BG
 Frequencies --    930.1600               933.7557              1002.6304
 Red. masses --      1.3653                 1.3406                 1.1836
 Frc consts  --      0.6960                 0.6887                 0.7010
 IR Inten    --     74.5750                 0.0000                 0.0000

                     10                     11                     12
                     BU                     AU                     AG
 Frequencies --   1005.9596              1063.0741              1234.6403
 Red. masses --      1.1974                 1.0919                 1.9443
 Frc consts  --      0.7139                 0.7270                 1.7462
 IR Inten    --      2.2540                24.8139                 0.0000

                     13                     14                     15
                     AG                     BU                     BU
 Frequencies --   1322.1725              1323.5950              1426.1732
 Red. masses --      1.3504                 1.2785                 1.2393
 Frc consts  --      1.3909                 1.3197                 1.4851
 IR Inten    --      0.0000                 1.9856                 3.0599

                     16                     17                     18
                     AG                     BU                     AG
 Frequencies --   1486.0443              1673.4457              1726.6908
 Red. masses --      1.2212                 3.6466                 4.5388
 Frc consts  --      1.5889                 6.0168                 7.9729
 IR Inten    --      0.0000                12.6078                 0.0000

                     19                     20                     21
                     AG                     BU                     BU
 Frequencies --   3143.4528              3153.3856              3158.1978
 Red. masses --      1.0790                 1.0722                 1.0787
 Frc consts  --      6.2817                 6.2817                 6.3391
 IR Inten    --      0.0000                30.1058                 6.5359

                     22                     23                     24
                     AG                     AG                     BU
 Frequencies --   3159.0629              3245.5541              3245.9923
 Red. masses --      1.0702                 1.1159                 1.1156
 Frc consts  --      6.2926                 6.9256                 6.9253
 IR Inten    --      0.0000                 0.0000                30.1719

 - Thermochemistry -
 -------------------
 Temperature   298.150 Kelvin.  Pressure   1.00000 Atm.
 Atom     1 has atomic number  6 and mass  12.00000

 Molecular mass:    54.04695 amu.
 Principal axes and moments of inertia in atomic units:
                           1         2         3
     Eigenvalues --    42.62626 408.97639 451.60265
           X            0.38484   0.92298   0.00000
           Y            0.92298  -0.38484   0.00000
           Z            0.00000   0.00000   1.00000
 This molecule is an asymmetric top.
 Rotational symmetry number  2.
 Rotational temperatures (Kelvin)      2.03194     0.21178     0.19179
 Rotational constants (GHZ):          42.33872     4.41282     3.99630
 Zero-point vibrational energy     223992.0 (Joules/Mol)
                                   53.53538 (Kcal/Mol)
 Warning -- explicit consideration of   4 degrees of freedom as
           vibrations may cause significant error
 Vibrational temperatures:    252.78   427.27   743.01   775.55  1124.09
          (Kelvin)           1302.33  1338.29  1343.46  1442.56  1447.35
                             1529.52  1776.37  1902.31  1904.36  2051.94
                             2138.08  2407.71  2484.32  4522.72  4537.01
                             4543.94  4545.18  4669.62  4670.25

 Zero-point correction=                           0.085314 (Hartree/Particle)
 Thermal correction to Energy=                    0.089964
 Thermal correction to Enthalpy=                  0.090909
 Thermal correction to Gibbs Free Energy=         0.059518
 Sum of electronic and zero-point Energies=           -155.916347
 Sum of electronic and thermal Energies=              -155.911697
 Sum of electronic and thermal Enthalpies=            -155.910753
 Sum of electronic and thermal Free Energies=         -155.942143

                     E (Thermal)             CV                S
                      KCal/Mol        Cal/Mol-Kelvin    Cal/Mol-Kelvin
 Total                   56.454             15.747             66.066
 Electronic               0.000              0.000              0.000
 Translational            0.889              2.981             37.884
 Rotational               0.889              2.981             22.203
 Vibrational             54.676              9.785              5.980
 Vibration     1          0.628              1.872              2.374
 Vibration     2          0.691              1.679              1.434
 Vibration     3          0.871              1.214              0.618
 Vibration     4          0.894              1.164              0.567

 Optimization completed.
    -- Stationary point found.
 Normal termination of Gaussian 09 at Fri Jul 23 19:23:53 2021.
