 Gaussian 09, Revision E.01,
 Gaussian 09:  ES64L-G09RevE.01 30-Nov-2015

 ----------------------------
 #P OPT Freq B3LYP/6-31G(d,p)
 ----------------------------

 ---------
 Frag_1112
 ---------
 Symbolic Z-matrix:
 Charge =  0 Multiplicity = 1

 SCF Done:  E(RB3LYP) =  -419.627307637     A.U. after   12 cycles
 SCF Done:  E(RB3LYP) =  -419.627374038     A.U. after   10 cycles
 SCF Done:  E(RB3LYP) =  -419.627121970     A.U. after   10 cycles
 SCF Done:  E(RB3LYP) =  -419.627390021     A.U. after   10 cycles
 SCF Done:  E(RB3LYP) =  -419.627394718     A.U. after    7 cycles
 SCF Done:  E(RB3LYP) =  -419.627402140     A.U. after    9 cycles
 SCF Done:  E(RB3LYP) =  -419.627407038     A.U. after    9 cycles
 SCF Done:  E(RB3LYP) =  -419.627408172     A.U. after    7 cycles
 SCF Done:  E(RB3LYP) =  -419.627408582     A.U. after    7 cycles
 Optimization completed.
    -- Stationary point found.
 Normal termination of Gaussian 09 at Thu Sep  8 14:49:16 2022.

 ----------------------------------------------------------------------
 #P Geom=AllCheck Guess=TCheck SCRF=Check GenChk RB3LYP/6-31G(d,p) Freq
 ----------------------------------------------------------------------

 Structure from the checkpoint file:  "B3LYP6-31Gdp.Frag_1112.chk"
 ---------
 Frag_1112
 ---------
 Charge =  0 Multiplicity = 1

                         Standard orientation:
 ---------------------------------------------------------------------
 Center     Atomic      Atomic             Coordinates (Angstroms)
 Number     Number       Type             X           Y           Z
 ---------------------------------------------------------------------
      1          6           0       -1.332028    1.315283   -0.526461
      2          6           0       -0.772709   -0.002216    0.026557
      3          6           0       -1.293116   -0.248731    1.450039
      4          7           0       -1.128722   -1.084751   -0.921219
      5          6           0        0.790111    0.028018    0.001707
      6          7           0        1.323478    1.165818    0.722114
      7          8           0        1.237662   -1.167659    0.632993
      8          8           0        1.234758    0.040168   -1.335940
      9          1           0       -0.953701    1.511598   -1.533058
     10          1           0       -1.056651    2.147926    0.124998
     11          1           0       -2.426261    1.273600   -0.570352
     12          1           0       -0.934524   -1.207048    1.834330
     13          1           0       -0.950160    0.537547    2.127375
     14          1           0       -2.389120   -0.258390    1.453885
     15          1           0       -0.915182   -1.981619   -0.489666
     16          1           0       -2.126229   -1.071055   -1.116942
     17          1           0        1.445105    1.938853    0.073395
     18          1           0        2.240271    0.916918    1.081777
     19          1           0        2.020288   -1.426427    0.125691
     20          1           0        0.549973   -0.483581   -1.805177
 ---------------------------------------------------------------------

 SCF Done:  E(RB3LYP) =  -419.627408582     A.U. after    1 cycles

 The electronic state is 1-A.
 Alpha  occ. eigenvalues --  -19.14412 -19.13603 -14.32226 -14.30966 -10.30071
 Alpha  occ. eigenvalues --  -10.21840 -10.17181 -10.16299  -1.06353  -0.98214
 Alpha  occ. eigenvalues --   -0.89043  -0.86656  -0.75098  -0.68184  -0.64197
 Alpha  occ. eigenvalues --   -0.55851  -0.53275  -0.50113  -0.48481  -0.45856
 Alpha  occ. eigenvalues --   -0.44576  -0.42804  -0.40923  -0.38429  -0.38070
 Alpha  occ. eigenvalues --   -0.37612  -0.36435  -0.33475  -0.31944  -0.29767
 Alpha  occ. eigenvalues --   -0.27296  -0.26049  -0.23734
 Alpha virt. eigenvalues --    0.06918   0.09912   0.11698   0.13420   0.14545
 Alpha virt. eigenvalues --    0.14680   0.15593   0.17021   0.17601   0.18059
 Alpha virt. eigenvalues --    0.20156   0.21765   0.22841   0.23922   0.24875

 Mulliken charges:
               1
     1  C   -0.315795
     2  C    0.125613
     3  C   -0.308271
     4  N   -0.630110
     5  C    0.591701
     6  N   -0.588889
     7  O   -0.557192
     8  O   -0.573096
     9  H    0.110756
    10  H    0.122286
    11  H    0.092070
    12  H    0.114585
    13  H    0.126340
    14  H    0.082264
    15  H    0.253745
    16  H    0.240902
    17  H    0.248288
    18  H    0.240135
    19  H    0.303224
    20  H    0.321446
 Sum of Mulliken charges =  -0.00000

 Dipole moment (field-independent basis, Debye):
    X=             -0.5858    Y=             -0.5436    Z=             -0.5590  Tot=              0.9753
 Quadrupole moment (field-independent basis, Debye-Ang):
   XX=            -42.7820   YY=            -46.6968   ZZ=            -54.0785
   XY=              1.1097   XZ=              1.9061   YZ=              0.7821

  Exact polarizability:  68.069   0.316  63.093   1.758   0.281  60.031
 Approx polarizability:  89.937   0.493  88.355   2.427   0.332  85.406

                      1                      2                      3
                      A                      A                      A
 Frequencies --    117.4844               150.6584               229.5028
 Red. masses --      3.6753                 1.0789                 1.0797
 Frc consts  --      0.0299                 0.0144                 0.0335
 IR Inten    --      3.6717                52.8393                 5.8145

                      4                      5                      6
                      A                      A                      A
 Frequencies --    251.0384               260.4877               285.7898
 Red. masses --      2.5019                 1.8653                 1.4831
 Frc consts  --      0.0929                 0.0746                 0.0714
 IR Inten    --      1.3618                 5.8461                14.0695

                      7                      8                      9
                      A                      A                      A
 Frequencies --    310.8565               332.8275               355.3402
 Red. masses --      1.4614                 1.3412                 2.6319
 Frc consts  --      0.0832                 0.0875                 0.1958
 IR Inten    --     51.8408                 3.9464                 2.7469

                     10                     11                     12
                      A                      A                      A
 Frequencies --    375.3539               390.9185               446.4233
 Red. masses --      2.4108                 1.9187                 3.4702
 Frc consts  --      0.2001                 0.1728                 0.4075
 IR Inten    --      5.0039                16.3741                 1.5107

                     13                     14                     15
                      A                      A                      A
 Frequencies --    455.7168               544.8296               551.6357
 Red. masses --      2.5303                 3.4639                 2.9217
 Frc consts  --      0.3096                 0.6058                 0.5238
 IR Inten    --     37.5471                 7.6510                 3.1769

                     16                     17                     18
                      A                      A                      A
 Frequencies --    588.9498               711.4080               761.5004
 Red. masses --      4.3529                 2.9069                 1.1874
 Frc consts  --      0.8896                 0.8668                 0.4057
 IR Inten    --      7.7105                11.8997                81.5778

                     19                     20                     21
                      A                      A                      A
 Frequencies --    847.9623               869.7444               939.2483
 Red. masses --      2.6212                 1.7053                 1.2886
 Frc consts  --      1.1105                 0.7600                 0.6698
 IR Inten    --     17.3789               107.7188               120.6989

                     22                     23                     24
                      A                      A                      A
 Frequencies --    949.9253               973.7230               987.3921
 Red. masses --      1.5059                 1.8132                 2.2835
 Frc consts  --      0.8006                 1.0129                 1.3117
 IR Inten    --     14.7326                 7.4200               145.8968

                     25                     26                     27
                      A                      A                      A
 Frequencies --   1027.6272              1028.8995              1101.2129
 Red. masses --      1.4507                 2.2329                 1.4406
 Frc consts  --      0.9026                 1.3927                 1.0293
 IR Inten    --     21.0011                81.3452                 3.2167

                     28                     29                     30
                      A                      A                      A
 Frequencies --   1145.4780              1233.9269              1260.6587
 Red. masses --      2.6390                 2.5550                 2.5920
 Frc consts  --      2.0402                 2.2920                 2.4271
 IR Inten    --    104.5083                46.5333                47.2083

                     31                     32                     33
                      A                      A                      A
 Frequencies --   1300.3119              1338.8965              1375.8481
 Red. masses --      1.7588                 1.6900                 1.7123
 Frc consts  --      1.7521                 1.7849                 1.9097
 IR Inten    --     69.6170                21.3900                17.0064

                     34                     35                     36
                      A                      A                      A
 Frequencies --   1408.5249              1422.4055              1458.8827
 Red. masses --      1.3210                 1.2788                 1.6031
 Frc consts  --      1.5441                 1.5244                 2.0102
 IR Inten    --      2.8045                14.4937               198.2620

                     37                     38                     39
                      A                      A                      A
 Frequencies --   1492.6727              1509.2736              1515.3233
 Red. masses --      1.0502                 1.0514                 1.0506
 Frc consts  --      1.3786                 1.4111                 1.4213
 IR Inten    --      0.1112                 1.7641                 1.7675

                     40                     41                     42
                      A                      A                      A
 Frequencies --   1534.8456              1640.5345              1651.9798
 Red. masses --      1.0781                 1.0993                 1.1137
 Frc consts  --      1.4964                 1.7432                 1.7908
 IR Inten    --     22.0239                78.9291                 0.8725

                     43                     44                     45
                      A                      A                      A
 Frequencies --   3043.9657              3050.7415              3117.4041
 Red. masses --      1.0392                 1.0391                 1.0977
 Frc consts  --      5.6732                 5.6979                 6.2850
 IR Inten    --     18.5423                29.9863                 9.1984

                     46                     47                     48
                      A                      A                      A
 Frequencies --   3121.4491              3142.5915              3147.6475
 Red. masses --      1.0978                 1.1029                 1.1027
 Frc consts  --      6.3023                 6.4175                 6.4370
 IR Inten    --     34.7968                11.0775                19.3204

                     49                     50                     51
                      A                      A                      A
 Frequencies --   3493.9473              3511.4128              3557.0972
 Red. masses --      1.0492                 1.0491                 1.0640
 Frc consts  --      7.5462                 7.6211                 7.9319
 IR Inten    --      0.4408                 1.6115               134.5779

                     52                     53                     54
                      A                      A                      A
 Frequencies --   3583.3520              3604.5773              3800.6793
 Red. masses --      1.0933                 1.0934                 1.0654
 Frc consts  --      8.2716                 8.3700                 9.0677
 IR Inten    --      1.1350                 3.1413                34.0489

 - Thermochemistry -
 -------------------
 Temperature   298.150 Kelvin.  Pressure   1.00000 Atm.
 Atom     1 has atomic number  6 and mass  12.00000

 Molecular mass:   120.08988 amu.
 Principal axes and moments of inertia in atomic units:
                           1         2         3
     Eigenvalues --   724.020821002.249231003.93551
           X            1.00000   0.00142   0.00106
           Y           -0.00166   0.54005   0.84163
           Z           -0.00062   0.84163  -0.54005
 This molecule is an asymmetric top.
 Rotational symmetry number  1.
 Warning -- assumption of classical behavior for rotation
           may cause significant error
 Rotational temperatures (Kelvin)      0.11963     0.08642     0.08627
 Rotational constants (GHZ):           2.49266     1.80069     1.79767
 Zero-point vibrational energy     462421.8 (Joules/Mol)
                                  110.52146 (Kcal/Mol)
 Warning -- explicit consideration of  16 degrees of freedom as
           vibrations may cause significant error
 Vibrational temperatures:    169.03   216.76   330.20   361.19   374.78
          (Kelvin)            411.19   447.25   478.86   511.25   540.05
                              562.44   642.30   655.67   783.89   793.68
                              847.37  1023.56  1095.63  1220.03  1251.37
                             1351.37  1366.73  1400.97  1420.64  1478.52
                             1480.35  1584.40  1648.09  1775.34  1813.80
                             1870.86  1926.37  1979.54  2026.55  2046.52
                             2099.00  2147.62  2171.51  2180.21  2208.30
                             2360.36  2376.83  4379.58  4389.33  4485.24
                             4491.06  4521.48  4528.76  5027.00  5052.13
                             5117.86  5155.64  5186.18  5468.32

 Zero-point correction=                           0.176127 (Hartree/Particle)
 Thermal correction to Energy=                    0.185791
 Thermal correction to Enthalpy=                  0.186735
 Thermal correction to Gibbs Free Energy=         0.143172
 Sum of electronic and zero-point Energies=           -419.451281
 Sum of electronic and thermal Energies=              -419.441618
 Sum of electronic and thermal Enthalpies=            -419.440673
 Sum of electronic and thermal Free Energies=         -419.484236

                     E (Thermal)             CV                S
                      KCal/Mol        Cal/Mol-Kelvin    Cal/Mol-Kelvin
 Total                  116.586             37.649             91.686
 Electronic               0.000              0.000              0.000
 Translational            0.889              2.981             40.264
 Rotational               0.889              2.981             28.079
 Vibrational            114.808             31.687             23.343
 Vibration     1          0.608              1.935              3.141
 Vibration     2          0.618              1.902              2.664
 Vibration     3          0.652              1.796              1.883
 Vibration     4          0.663              1.761              1.723
 Vibration     5          0.669              1.745              1.659
 Vibration     6          0.684              1.700              1.499
 Vibration     7          0.700              1.653              1.358
 Vibration     8          0.715              1.610              1.246
 Vibration     9          0.731              1.564              1.142
 Vibration    10          0.746              1.523              1.058
 Vibration    11          0.759              1.490              0.997
 Vibration    12          0.806              1.369              0.807
 Vibration    13          0.814              1.348              0.779
 Vibration    14          0.900              1.151              0.555
 Vibration    15          0.907              1.136              0.541
 Vibration    16          0.946              1.055              0.469

 Normal termination of Gaussian 09 at Thu Sep  8 14:49:38 2022.
