 Gaussian 09, Revision E.01,
 Gaussian 09:  ES64L-G09RevE.01 30-Nov-2015

 ----------------------------
 #P OPT Freq B3LYP/6-31G(d,p)
 ----------------------------

 ---------
 Frag_1000
 ---------
 Symbolic Z-matrix:
 Charge =  0 Multiplicity = 1

 SCF Done:  E(RB3LYP) =  -400.164815059     A.U. after   13 cycles
 SCF Done:  E(RB3LYP) =  -400.164890562     A.U. after   10 cycles
 SCF Done:  E(RB3LYP) =  -400.164873934     A.U. after   10 cycles
 SCF Done:  E(RB3LYP) =  -400.164898690     A.U. after    9 cycles
 SCF Done:  E(RB3LYP) =  -400.164900534     A.U. after    7 cycles
 SCF Done:  E(RB3LYP) =  -400.164902220     A.U. after    8 cycles
 SCF Done:  E(RB3LYP) =  -400.164902767     A.U. after    8 cycles
 SCF Done:  E(RB3LYP) =  -400.164903192     A.U. after    7 cycles
 SCF Done:  E(RB3LYP) =  -400.164903497     A.U. after    7 cycles
 SCF Done:  E(RB3LYP) =  -400.164903611     A.U. after    7 cycles
 SCF Done:  E(RB3LYP) =  -400.164903658     A.U. after    7 cycles
 Optimization completed.
    -- Stationary point found.
 Normal termination of Gaussian 09 at Thu Sep  8 14:47:57 2022.

 ----------------------------------------------------------------------
 #P Geom=AllCheck Guess=TCheck SCRF=Check GenChk RB3LYP/6-31G(d,p) Freq
 ----------------------------------------------------------------------

 Structure from the checkpoint file:  "B3LYP6-31Gdp.Frag_1000.chk"
 ---------
 Frag_1000
 ---------
 Charge =  0 Multiplicity = 1

                         Standard orientation:
 ---------------------------------------------------------------------
 Center     Atomic      Atomic             Coordinates (Angstroms)
 Number     Number       Type             X           Y           Z
 ---------------------------------------------------------------------
      1          6           0        1.411186    1.228210   -0.306349
      2          6           0        0.609175   -0.041526   -0.001814
      3          7           0        0.507277   -0.378220    1.416545
      4          8           0        1.241321   -1.178503   -0.574482
      5          6           0       -0.854902    0.060411   -0.505588
      6          8           0       -1.580698   -1.072125   -0.157379
      7          8           0       -1.397552    1.237446    0.084492
      8          1           0        2.439945    1.104699    0.045356
      9          1           0        0.962062    2.100261    0.173905
     10          1           0        1.439665    1.423775   -1.385754
     11          1           0        0.208650    0.442217    1.936037
     12          1           0        1.416862   -0.675839    1.758374
     13          1           0        1.308429   -1.033745   -1.527314
     14          1           0       -0.879630    0.140133   -1.604374
     15          1           0       -1.186865   -1.352680    0.693720
     16          1           0       -2.357382    1.121602    0.055686
 ---------------------------------------------------------------------

 SCF Done:  E(RB3LYP) =  -400.164903658     A.U. after    1 cycles

 The electronic state is 1-A.
 Alpha  occ. eigenvalues --  -19.15004 -19.14588 -19.13695 -14.32597 -10.27480
 Alpha  occ. eigenvalues --  -10.27025 -10.17941  -1.06063  -1.02845  -0.98336
 Alpha  occ. eigenvalues --   -0.88330  -0.73946  -0.67027  -0.60038  -0.55599
 Alpha  occ. eigenvalues --   -0.49981  -0.48461  -0.46127  -0.44001  -0.43297
 Alpha  occ. eigenvalues --   -0.41257  -0.39530  -0.38449  -0.35530  -0.33027
 Alpha  occ. eigenvalues --   -0.29248  -0.27629  -0.27159  -0.25277
 Alpha virt. eigenvalues --    0.06424   0.08605   0.11416   0.12415   0.14171
 Alpha virt. eigenvalues --    0.15617   0.16181   0.17753   0.18945   0.20830
 Alpha virt. eigenvalues --    0.23567   0.24173   0.26462   0.27766   0.32223

 Mulliken charges:
               1
     1  C   -0.318059
     2  C    0.336960
     3  N   -0.615666
     4  O   -0.542051
     5  C    0.387162
     6  O   -0.543564
     7  O   -0.548057
     8  H    0.105896
     9  H    0.127239
    10  H    0.090991
    11  H    0.259164
    12  H    0.255758
    13  H    0.307029
    14  H    0.064914
    15  H    0.324083
    16  H    0.308198
 Sum of Mulliken charges =  -0.00000

 Dipole moment (field-independent basis, Debye):
    X=              1.0220    Y=              1.5700    Z=             -0.0473  Tot=              1.8739
 Quadrupole moment (field-independent basis, Debye-Ang):
   XX=            -39.9132   YY=            -47.2063   ZZ=            -36.1285
   XY=             -1.1810   XZ=             -0.5684   YZ=              0.2394

  Exact polarizability:  52.380  -0.471  47.900  -0.198  -0.469  50.392
 Approx polarizability:  67.638  -2.294  68.146  -0.314   0.399  70.973

                      1                      2                      3
                      A                      A                      A
 Frequencies --    102.4088               177.5761               244.9788
 Red. masses --      4.2477                 1.0990                 2.6569
 Frc consts  --      0.0262                 0.0204                 0.0939
 IR Inten    --      3.9030                62.2959                15.8720

                      4                      5                      6
                      A                      A                      A
 Frequencies --    255.0184               278.4080               296.2280
 Red. masses --      1.2637                 1.4980                 1.1708
 Frc consts  --      0.0484                 0.0684                 0.0605
 IR Inten    --      9.4530                33.4792               103.2553

                      7                      8                      9
                      A                      A                      A
 Frequencies --    326.0386               361.5383               381.8136
 Red. masses --      1.9475                 3.9346                 2.6020
 Frc consts  --      0.1220                 0.3030                 0.2235
 IR Inten    --     24.9632                 6.8296                 1.4915

                     10                     11                     12
                      A                      A                      A
 Frequencies --    452.4279               511.6119               548.6567
 Red. masses --      3.0195                 2.4643                 4.7469
 Frc consts  --      0.3641                 0.3800                 0.8419
 IR Inten    --     25.4500                 2.6217                 4.1636

                     13                     14                     15
                      A                      A                      A
 Frequencies --    648.1051               664.6581               811.1971
 Red. masses --      3.8813                 1.2265                 3.8384
 Frc consts  --      0.9606                 0.3192                 1.4882
 IR Inten    --     14.6727                92.3207                53.6851

                     16                     17                     18
                      A                      A                      A
 Frequencies --    890.1050               932.1459               979.2051
 Red. masses --      1.5548                 1.6158                 1.8643
 Frc consts  --      0.7258                 0.8272                 1.0532
 IR Inten    --     87.6378                45.1510                30.3992

                     19                     20                     21
                      A                      A                      A
 Frequencies --   1053.9062              1078.1824              1100.4780
 Red. masses --      5.2522                 1.6763                 2.1814
 Frc consts  --      3.4371                 1.1481                 1.5565
 IR Inten    --    195.6083                23.9458                69.7215

                     22                     23                     24
                      A                      A                      A
 Frequencies --   1131.8856              1192.6910              1220.3270
 Red. masses --      2.7342                 1.6756                 1.3887
 Frc consts  --      2.0639                 1.4044                 1.2185
 IR Inten    --     89.3171               180.2085                 7.6392

                     25                     26                     27
                      A                      A                      A
 Frequencies --   1328.1948              1349.5336              1386.3840
 Red. masses --      1.8466                 1.3936                 1.6864
 Frc consts  --      1.9193                 1.4954                 1.9098
 IR Inten    --      3.1328                34.7074                76.7474

                     28                     29                     30
                      A                      A                      A
 Frequencies --   1401.3165              1418.2901              1489.4186
 Red. masses --      1.3469                 1.3081                 1.2752
 Frc consts  --      1.5583                 1.5503                 1.6668
 IR Inten    --     16.6381                 9.0978                93.4345

                     31                     32                     33
                      A                      A                      A
 Frequencies --   1501.5508              1516.1681              1626.5262
 Red. masses --      1.1083                 1.1125                 1.1175
 Frc consts  --      1.4722                 1.5068                 1.7419
 IR Inten    --     12.8514                12.2762                51.7719

                     34                     35                     36
                      A                      A                      A
 Frequencies --   2997.3298              3038.0900              3108.9418
 Red. masses --      1.0847                 1.0409                 1.0969
 Frc consts  --      5.7417                 5.6606                 6.2463
 IR Inten    --     73.7993                24.8111                28.0447

                     37                     38                     39
                      A                      A                      A
 Frequencies --   3147.9323              3514.4830              3610.3925
 Red. masses --      1.1023                 1.0486                 1.0660
 Frc consts  --      6.4358                 7.6310                 8.1865
 IR Inten    --     13.5920                 3.5180                98.9906

                     40                     41                     42
                      A                      A                      A
 Frequencies --   3613.4748              3810.3604              3825.3347
 Red. masses --      1.0923                 1.0657                 1.0660
 Frc consts  --      8.4030                 9.1165                 9.1910
 IR Inten    --     17.4974                31.5755                18.5304

 - Thermochemistry -
 -------------------
 Temperature   298.150 Kelvin.  Pressure   1.00000 Atm.
 Atom     1 has atomic number  6 and mass  12.00000

 Molecular mass:   107.05824 amu.
 Principal axes and moments of inertia in atomic units:
                           1         2         3
     Eigenvalues --   535.38811 748.56571 910.19678
           X            0.99832   0.05772  -0.00447
           Y           -0.05783   0.99785  -0.03093
           Z            0.00267   0.03114   0.99951
 This molecule is an asymmetric top.
 Rotational symmetry number  1.
 Warning -- assumption of classical behavior for rotation
           may cause significant error
 Rotational temperatures (Kelvin)      0.16178     0.11571     0.09516
 Rotational constants (GHZ):           3.37090     2.41093     1.98280
 Zero-point vibrational energy     354832.2 (Joules/Mol)
                                   84.80693 (Kcal/Mol)
 Warning -- explicit consideration of  12 degrees of freedom as
           vibrations may cause significant error
 Vibrational temperatures:    147.34   255.49   352.47   366.91   400.57
          (Kelvin)            426.21   469.10   520.17   549.34   650.94
                              736.09   789.39   932.48   956.29  1167.13
                             1280.66  1341.15  1408.86  1516.33  1551.26
                             1583.34  1628.53  1716.01  1755.78  1910.97
                             1941.68  1994.69  2016.18  2040.60  2142.94
                             2160.39  2181.42  2340.21  4312.48  4371.13
                             4473.07  4529.17  5056.55  5194.54  5198.98
                             5482.25  5503.80

 Zero-point correction=                           0.135148 (Hartree/Particle)
 Thermal correction to Energy=                    0.143564
 Thermal correction to Enthalpy=                  0.144508
 Thermal correction to Gibbs Free Energy=         0.103320
 Sum of electronic and zero-point Energies=           -400.029755
 Sum of electronic and thermal Energies=              -400.021340
 Sum of electronic and thermal Enthalpies=            -400.020396
 Sum of electronic and thermal Free Energies=         -400.061583

                     E (Thermal)             CV                S
                      KCal/Mol        Cal/Mol-Kelvin    Cal/Mol-Kelvin
 Total                   90.088             31.343             86.686
 Electronic               0.000              0.000              0.000
 Translational            0.889              2.981             39.921
 Rotational               0.889              2.981             27.392
 Vibrational             88.310             25.381             19.373
 Vibration     1          0.604              1.947              3.408
 Vibration     2          0.628              1.870              2.354
 Vibration     3          0.660              1.771              1.766
 Vibration     4          0.665              1.754              1.696
 Vibration     5          0.679              1.713              1.543
 Vibration     6          0.690              1.681              1.438
 Vibration     7          0.710              1.623              1.280
 Vibration     8          0.736              1.551              1.115
 Vibration     9          0.751              1.509              1.032
 Vibration    10          0.811              1.356              0.788
 Vibration    11          0.867              1.224              0.630
 Vibration    12          0.904              1.143              0.547

 Optimization completed.
    -- Stationary point found.
 Normal termination of Gaussian 09 at Thu Sep  8 14:48:12 2022.
