 Gaussian 09, Revision E.01,
 Gaussian 09:  ES64L-G09RevE.01 30-Nov-2015

 ----------------------------
 #P OPT Freq B3LYP/6-31G(d,p)
 ----------------------------

 --------
 Frag_593
 --------
 Symbolic Z-matrix:
 Charge =  0 Multiplicity = 1

 SCF Done:  E(RB3LYP) =  -302.660006584     A.U. after   15 cycles
 SCF Done:  E(RB3LYP) =  -302.660113268     A.U. after   11 cycles
 SCF Done:  E(RB3LYP) =  -302.660033956     A.U. after   12 cycles
 SCF Done:  E(RB3LYP) =  -302.660121955     A.U. after   12 cycles
 SCF Done:  E(RB3LYP) =  -302.660124406     A.U. after    9 cycles
 SCF Done:  E(RB3LYP) =  -302.660124628     A.U. after    8 cycles
 Optimization completed.
    -- Stationary point found.
 Normal termination of Gaussian 09 at Thu Sep  8 15:19:20 2022.

 ----------------------------------------------------------------------
 #P Geom=AllCheck Guess=TCheck SCRF=Check GenChk RB3LYP/6-31G(d,p) Freq
 ----------------------------------------------------------------------

 Structure from the checkpoint file:  "B3LYP6-31Gdp.Frag_593.chk"
 --------
 Frag_593
 --------
 Charge =  0 Multiplicity = 1

                         Standard orientation:
 ---------------------------------------------------------------------
 Center     Atomic      Atomic             Coordinates (Angstroms)
 Number     Number       Type             X           Y           Z
 ---------------------------------------------------------------------
      1          6           0       -1.835493    0.658694    0.048797
      2          6           0       -0.670211   -0.304281   -0.003163
      3          8           0       -0.828599   -1.510745   -0.065090
      4          6           0        0.750153    0.269460    0.003995
      5          7           0        1.056853    1.516006   -0.058008
      6          7           0        1.695335   -0.707807    0.095507
      7          1           0       -1.773370    1.299469    0.934744
      8          1           0       -2.763259    0.087192    0.073666
      9          1           0       -1.837821    1.312418   -0.830389
     10          1           0        0.218823    2.094686   -0.082847
     11          1           0        2.655287   -0.451046   -0.069629
     12          1           0        1.397117   -1.657399   -0.065088
 ---------------------------------------------------------------------

 SCF Done:  E(RB3LYP) =  -302.660124628     A.U. after    1 cycles

 The electronic state is 1-A.
 Alpha  occ. eigenvalues --  -19.16357 -14.34623 -14.30538 -10.29664 -10.26409
 Alpha  occ. eigenvalues --  -10.20622  -1.06336  -0.94412  -0.85545  -0.76008
 Alpha  occ. eigenvalues --   -0.64797  -0.56768  -0.53197  -0.47419  -0.46220
 Alpha  occ. eigenvalues --   -0.46056  -0.43702  -0.40512  -0.39329  -0.35327
 Alpha  occ. eigenvalues --   -0.30587  -0.24713  -0.24036
 Alpha virt. eigenvalues --   -0.06156   0.07630   0.07985   0.10530   0.13515
 Alpha virt. eigenvalues --    0.15109   0.16306   0.17628   0.21769   0.27661
 Alpha virt. eigenvalues --    0.30223   0.35228   0.39008   0.51346   0.53621

 Mulliken charges:
               1
     1  C   -0.409926
     2  C    0.419200
     3  O   -0.448299
     4  C    0.404121
     5  N   -0.581724
     6  N   -0.599911
     7  H    0.144270
     8  H    0.146018
     9  H    0.143678
    10  H    0.221833
    11  H    0.275638
    12  H    0.285102
 Sum of Mulliken charges =  -0.00000

 Dipole moment (field-independent basis, Debye):
    X=             -0.9214    Y=              0.2129    Z=             -0.3245  Tot=              0.9998
 Quadrupole moment (field-independent basis, Debye-Ang):
   XX=            -32.1469   YY=            -38.2227   ZZ=            -35.7558
   XY=             -8.6260   XZ=             -1.0304   YZ=              0.4121

  Exact polarizability:  51.365  -1.949  59.877  -0.038  -0.542  26.217
 Approx polarizability:  64.182   2.281 110.078   0.377  -1.875  38.009

                      1                      2                      3
                      A                      A                      A
 Frequencies --     76.7136               145.1469               283.1734
 Red. masses --      5.1900                 1.0412                 3.3002
 Frc consts  --      0.0180                 0.0129                 0.1559
 IR Inten    --      1.7735                 0.9367                13.2228

                      4                      5                      6
                      A                      A                      A
 Frequencies --    320.0962               402.1899               418.3646
 Red. masses --      1.4450                 3.0930                 2.5134
 Frc consts  --      0.0872                 0.2948                 0.2592
 IR Inten    --    114.0912                37.6142               135.7835

                      7                      8                      9
                      A                      A                      A
 Frequencies --    500.7084               522.6111               574.6877
 Red. masses --      2.8339                 1.3305                 3.0224
 Frc consts  --      0.4186                 0.2141                 0.5881
 IR Inten    --     12.4428                20.1880                17.2351

                     10                     11                     12
                      A                      A                      A
 Frequencies --    687.2439               725.9193               811.6619
 Red. masses --      3.1857                 3.3332                 1.1126
 Frc consts  --      0.8865                 1.0349                 0.4319
 IR Inten    --      5.4179                 6.9076                48.7133

                     13                     14                     15
                      A                      A                      A
 Frequencies --    976.4266              1036.3394              1118.3477
 Red. masses --      1.8966                 1.8656                 1.8968
 Frc consts  --      1.0654                 1.1805                 1.3977
 IR Inten    --      8.6624                 1.2683                10.4587

                     16                     17                     18
                      A                      A                      A
 Frequencies --   1148.9381              1212.9431              1390.5720
 Red. masses --      1.3445                 2.4420                 1.3168
 Frc consts  --      1.0457                 2.1168                 1.5002
 IR Inten    --    102.2993               115.5028                35.2960

                     19                     20                     21
                      A                      A                      A
 Frequencies --   1440.7447              1480.5513              1485.5895
 Red. masses --      2.5333                 1.0509                 1.0482
 Frc consts  --      3.0982                 1.3573                 1.3630
 IR Inten    --      9.0995                 6.5379                 9.5446

                     22                     23                     24
                      A                      A                      A
 Frequencies --   1597.9619              1722.2324              1797.6963
 Red. masses --      1.3977                 6.5150                 9.8747
 Frc consts  --      2.1027                11.3854                18.8020
 IR Inten    --     71.8750               243.6388               101.5412

                     25                     26                     27
                      A                      A                      A
 Frequencies --   3052.2746              3115.9487              3172.0095
 Red. masses --      1.0378                 1.0997                 1.1022
 Frc consts  --      5.6968                 6.2908                 6.5337
 IR Inten    --      1.0418                 4.3993                 5.1943

                     28                     29                     30
                      A                      A                      A
 Frequencies --   3523.7531              3606.9821              3744.3501
 Red. masses --      1.0746                 1.0442                 1.1048
 Frc consts  --      7.8617                 8.0046                 9.1258
 IR Inten    --      0.3879                45.8224                61.5511

 - Thermochemistry -
 -------------------
 Temperature   298.150 Kelvin.  Pressure   1.00000 Atm.
 Atom     1 has atomic number  6 and mass  12.00000

 Molecular mass:    86.04801 amu.
 Principal axes and moments of inertia in atomic units:
                           1         2         3
     Eigenvalues --   336.55700 521.09138 844.32398
           X            0.98760  -0.15692  -0.00450
           Y            0.15693   0.98761   0.00144
           Z            0.00422  -0.00213   0.99999
 This molecule is an asymmetric top.
 Rotational symmetry number  1.
 Rotational temperatures (Kelvin)      0.25735     0.16622     0.10258
 Rotational constants (GHZ):           5.36236     3.46339     2.13750
 Zero-point vibrational energy     251767.1 (Joules/Mol)
                                   60.17379 (Kcal/Mol)
 Warning -- explicit consideration of   9 degrees of freedom as
           vibrations may cause significant error
 Vibrational temperatures:    110.37   208.83   407.42   460.55   578.66
          (Kelvin)            601.93   720.41   751.92   826.85   988.79
                             1044.43  1167.80  1404.86  1491.06  1609.05
                             1653.06  1745.15  2000.72  2072.91  2130.18
                             2137.43  2299.11  2477.91  2586.48  4391.54
                             4483.15  4563.81  5069.89  5189.64  5387.28

 Zero-point correction=                           0.095893 (Hartree/Particle)
 Thermal correction to Energy=                    0.102659
 Thermal correction to Enthalpy=                  0.103603
 Thermal correction to Gibbs Free Energy=         0.065541
 Sum of electronic and zero-point Energies=           -302.564232
 Sum of electronic and thermal Energies=              -302.557466
 Sum of electronic and thermal Enthalpies=            -302.556522
 Sum of electronic and thermal Free Energies=         -302.594584

                     E (Thermal)             CV                S
                      KCal/Mol        Cal/Mol-Kelvin    Cal/Mol-Kelvin
 Total                   64.419             23.788             80.109
 Electronic               0.000              0.000              0.000
 Translational            0.889              2.981             39.270
 Rotational               0.889              2.981             26.496
 Vibrational             62.642             17.826             14.343
 Vibration     1          0.599              1.965              3.973
 Vibration     2          0.617              1.908              2.735
 Vibration     3          0.682              1.705              1.514
 Vibration     4          0.706              1.635              1.310
 Vibration     5          0.768              1.465              0.955
 Vibration     6          0.781              1.430              0.898
 Vibration     7          0.856              1.248              0.656
 Vibration     8          0.878              1.200              0.604
 Vibration     9          0.931              1.086              0.495

 Normal termination of Gaussian 09 at Thu Sep  8 15:19:30 2022.
