 Gaussian 09, Revision E.01,
 Gaussian 09:  ES64L-G09RevE.01 30-Nov-2015

 ----------------------------
 #P OPT Freq B3LYP/6-31G(d,p)
 ----------------------------

 --------
 Frag_653
 --------
 Symbolic Z-matrix:
 Charge =  0 Multiplicity = 1

 SCF Done:  E(RB3LYP) =  -323.757601964     A.U. after   14 cycles
 SCF Done:  E(RB3LYP) =  -323.757641572     A.U. after   11 cycles
 SCF Done:  E(RB3LYP) =  -323.757340804     A.U. after   12 cycles
 SCF Done:  E(RB3LYP) =  -323.757689922     A.U. after    8 cycles
 SCF Done:  E(RB3LYP) =  -323.757705473     A.U. after    9 cycles
 SCF Done:  E(RB3LYP) =  -323.757695144     A.U. after   10 cycles
 SCF Done:  E(RB3LYP) =  -323.757712843     A.U. after   10 cycles
 Optimization completed.
    -- Stationary point found.
 Normal termination of Gaussian 09 at Thu Sep  8 15:12:16 2022.

 ----------------------------------------------------------------------
 #P Geom=AllCheck Guess=TCheck SCRF=Check GenChk RB3LYP/6-31G(d,p) Freq
 ----------------------------------------------------------------------

 Structure from the checkpoint file:  "B3LYP6-31Gdp.Frag_653.chk"
 --------
 Frag_653
 --------
 Charge =  0 Multiplicity = 1

                         Standard orientation:
 ---------------------------------------------------------------------
 Center     Atomic      Atomic             Coordinates (Angstroms)
 Number     Number       Type             X           Y           Z
 ---------------------------------------------------------------------
      1          6           0        1.467281   -1.154429   -0.201098
      2          6           0        0.646940    0.000013    0.375862
      3          7           0        1.072298    1.353423   -0.032314
      4          6           0       -0.857189   -0.164570    0.053283
      5          8           0       -1.412770   -1.237698    0.026753
      6          8           0       -1.490301    0.999167   -0.154371
      7          1           0        1.033145   -2.109233    0.101149
      8          1           0        2.504485   -1.106721    0.144181
      9          1           0        1.465071   -1.120631   -1.296581
     10          1           0        0.703962   -0.033807    1.471834
     11          1           0        1.419663    1.341175   -0.989238
     12          1           0       -0.777599    1.680615   -0.105296
     13          1           0        1.827555    1.696810    0.552816
 ---------------------------------------------------------------------

 SCF Done:  E(RB3LYP) =  -323.757712842     A.U. after    1 cycles

 The electronic state is 1-A.
 Alpha  occ. eigenvalues --  -19.17448 -19.12092 -14.35673 -10.30447 -10.24390
 Alpha  occ. eigenvalues --  -10.19206  -1.08580  -1.00419  -0.91730  -0.75881
 Alpha  occ. eigenvalues --   -0.65887  -0.58351  -0.54633  -0.49794  -0.47104
 Alpha  occ. eigenvalues --   -0.44532  -0.42335  -0.41228  -0.40113  -0.36946
 Alpha  occ. eigenvalues --   -0.35445  -0.29951  -0.29523  -0.25143
 Alpha virt. eigenvalues --    0.01512   0.06125   0.10440   0.12178   0.14095
 Alpha virt. eigenvalues --    0.15491   0.16170   0.16596   0.20891   0.23288
 Alpha virt. eigenvalues --    0.25810   0.33712   0.38241   0.50905   0.52097

 Mulliken charges:
               1
     1  C   -0.314375
     2  C   -0.053837
     3  N   -0.641703
     4  C    0.606520
     5  O   -0.465651
     6  O   -0.493007
     7  H    0.148337
     8  H    0.099624
     9  H    0.109827
    10  H    0.141453
    11  H    0.261317
    12  H    0.339248
    13  H    0.262247
 Sum of Mulliken charges =  -0.00000

 Dipole moment (field-independent basis, Debye):
    X=              4.8774    Y=              2.1642    Z=              0.2779  Tot=              5.3432
 Quadrupole moment (field-independent basis, Debye-Ang):
   XX=            -38.5678   YY=            -37.0122   ZZ=            -33.2442
   XY=             -0.1545   XZ=             -0.3879   YZ=             -0.1260

  Exact polarizability:  46.389   2.021  49.462   0.772  -0.579  34.929
 Approx polarizability:  60.874   5.824  74.937   1.820  -1.603  50.597

                      1                      2                      3
                      A                      A                      A
 Frequencies --     76.4207               226.1354               275.3451
 Red. masses --      4.0499                 1.0886                 3.0861
 Frc consts  --      0.0139                 0.0328                 0.1379
 IR Inten    --      1.2905                 0.3049                14.8439

                      4                      5                      6
                      A                      A                      A
 Frequencies --    305.5761               358.9939               408.7591
 Red. masses --      1.1799                 3.2255                 2.5717
 Frc consts  --      0.0649                 0.2449                 0.2532
 IR Inten    --     16.3010                15.8650                 5.1781

                      7                      8                      9
                      A                      A                      A
 Frequencies --    531.0190               561.2477               733.5031
 Red. masses --      5.9334                 3.9202                 4.9128
 Frc consts  --      0.9858                 0.7276                 1.5573
 IR Inten    --      0.9103                 5.0610                 8.4747

                     10                     11                     12
                      A                      A                      A
 Frequencies --    804.0146               866.9950               897.5366
 Red. masses --      3.4315                 1.5327                 1.3338
 Frc consts  --      1.3069                 0.6788                 0.6331
 IR Inten    --      8.8081               104.4632                67.0925

                     13                     14                     15
                      A                      A                      A
 Frequencies --    944.7953              1021.9040              1095.7861
 Red. masses --      1.3125                 1.3182                 2.2854
 Frc consts  --      0.6903                 0.8111                 1.6169
 IR Inten    --     53.5506                 1.1265                46.1412

                     16                     17                     18
                      A                      A                      A
 Frequencies --   1151.0301              1221.7342              1242.3309
 Red. masses --      2.1333                 1.8493                 2.4198
 Frc consts  --      1.6653                 1.6263                 2.2004
 IR Inten    --      9.2901                10.6091                12.1264

                     19                     20                     21
                      A                      A                      A
 Frequencies --   1324.5722              1397.1878              1419.0424
 Red. masses --      1.4336                 1.2778                 1.2496
 Frc consts  --      1.4820                 1.4696                 1.4826
 IR Inten    --     12.7140                 5.2002                 4.6781

                     22                     23                     24
                      A                      A                      A
 Frequencies --   1443.0378              1503.9987              1512.9825
 Red. masses --      1.5640                 1.0505                 1.0561
 Frc consts  --      1.9188                 1.4000                 1.4244
 IR Inten    --    425.4910                 3.0706                11.3844

                     25                     26                     27
                      A                      A                      A
 Frequencies --   1667.4666              1872.7087              3045.8640
 Red. masses --      1.0934                 9.6628                 1.0590
 Frc consts  --      1.7912                19.9662                 5.7885
 IR Inten    --     31.8430               269.4513                 3.6159

                     28                     29                     30
                      A                      A                      A
 Frequencies --   3050.4604              3116.4953              3154.8352
 Red. masses --      1.0624                 1.1021                 1.1004
 Frc consts  --      5.8249                 6.3068                 6.4527
 IR Inten    --     25.8659                28.7016                 6.9520

                     31                     32                     33
                      A                      A                      A
 Frequencies --   3451.9228              3503.1096              3594.5384
 Red. masses --      1.0643                 1.0514                 1.0925
 Frc consts  --      7.4721                 7.6021                 8.3170
 IR Inten    --    257.1746                 1.3078                 4.6376

 - Thermochemistry -
 -------------------
 Temperature   298.150 Kelvin.  Pressure   1.00000 Atm.
 Atom     1 has atomic number  6 and mass  12.00000

 Molecular mass:    89.04768 amu.
 Principal axes and moments of inertia in atomic units:
                           1         2         3
     Eigenvalues --   373.59985 523.46685 841.14773
           X            0.99764  -0.06840  -0.00558
           Y            0.06843   0.99764   0.00534
           Z            0.00520  -0.00571   0.99997
 This molecule is an asymmetric top.
 Rotational symmetry number  1.
 Rotational temperatures (Kelvin)      0.23184     0.16546     0.10297
 Rotational constants (GHZ):           4.83068     3.44767     2.14557
 Zero-point vibrational energy     285795.9 (Joules/Mol)
                                   68.30687 (Kcal/Mol)
 Warning -- explicit consideration of   8 degrees of freedom as
           vibrations may cause significant error
 Vibrational temperatures:    109.95   325.36   396.16   439.66   516.51
          (Kelvin)            588.11   764.02   807.51  1055.35  1156.80
                             1247.41  1291.35  1359.35  1470.29  1576.59
                             1656.07  1757.80  1787.43  1905.76  2010.24
                             2041.68  2076.21  2163.92  2176.84  2399.11
                             2694.41  4382.31  4388.93  4483.94  4539.10
                             4966.54  5040.19  5171.73

 Zero-point correction=                           0.108854 (Hartree/Particle)
 Thermal correction to Energy=                    0.115381
 Thermal correction to Enthalpy=                  0.116326
 Thermal correction to Gibbs Free Energy=         0.078675
 Sum of electronic and zero-point Energies=           -323.648859
 Sum of electronic and thermal Energies=              -323.642331
 Sum of electronic and thermal Enthalpies=            -323.641387
 Sum of electronic and thermal Free Energies=         -323.679038

                     E (Thermal)             CV                S
                      KCal/Mol        Cal/Mol-Kelvin    Cal/Mol-Kelvin
 Total                   72.403             23.203             79.242
 Electronic               0.000              0.000              0.000
 Translational            0.889              2.981             39.372
 Rotational               0.889              2.981             26.600
 Vibrational             70.626             17.242             13.270
 Vibration     1          0.599              1.965              3.981
 Vibration     2          0.650              1.801              1.909
 Vibration     3          0.677              1.719              1.562
 Vibration     4          0.696              1.663              1.386
 Vibration     5          0.734              1.557              1.126
 Vibration     6          0.773              1.451              0.931
 Vibration     7          0.886              1.181              0.585
 Vibration     8          0.917              1.115              0.521

 Normal termination of Gaussian 09 at Thu Sep  8 15:12:27 2022.
