 Gaussian 09, Revision E.01,
 Gaussian 09:  ES64L-G09RevE.01 30-Nov-2015

 ----------------------------
 #P OPT Freq B3LYP/6-31G(d,p)
 ----------------------------

 --------
 Frag_909
 --------
 Symbolic Z-matrix:
 Charge =  0 Multiplicity = 1

 SCF Done:  E(RB3LYP) =  -245.883770200     A.U. after   12 cycles
 SCF Done:  E(RB3LYP) =  -245.883790831     A.U. after    8 cycles
 SCF Done:  E(RB3LYP) =  -245.883792324     A.U. after    7 cycles
 SCF Done:  E(RB3LYP) =  -245.883792770     A.U. after    7 cycles
 Optimization completed.
    -- Stationary point found.
 Normal termination of Gaussian 09 at Thu Sep  8 15:11:08 2022.

 ----------------------------------------------------------------------
 #P Geom=AllCheck Guess=TCheck SCRF=Check GenChk RB3LYP/6-31G(d,p) Freq
 ----------------------------------------------------------------------

 Structure from the checkpoint file:  "B3LYP6-31Gdp.Frag_909.chk"
 --------
 Frag_909
 --------
 Charge =  0 Multiplicity = 1

                         Standard orientation:
 ---------------------------------------------------------------------
 Center     Atomic      Atomic             Coordinates (Angstroms)
 Number     Number       Type             X           Y           Z
 ---------------------------------------------------------------------
      1          6           0        1.722759   -0.012087   -0.459332
      2          7           0        0.849923   -0.164224    0.702763
      3          6           0       -0.585169    0.003040    0.454544
      4          7           0       -1.056915    1.196016   -0.247741
      5          7           0       -1.017420   -1.128616   -0.349593
      6          1           0        1.430339   -0.739017   -1.219919
      7          1           0        1.702312    0.989263   -0.923683
      8          1           0        2.754210   -0.222613   -0.162018
      9          1           0        1.132633    0.475242    1.440277
     10          1           0       -1.040701    0.045978    1.459781
     11          1           0       -0.755230    2.037126    0.237716
     12          1           0       -0.661417    1.214961   -1.185230
     13          1           0       -2.021426   -1.076787   -0.492473
     14          1           0       -0.795378   -1.992113    0.136279
 ---------------------------------------------------------------------

 SCF Done:  E(RB3LYP) =  -245.883792770     A.U. after    1 cycles

 The electronic state is 1-A.
 Alpha  occ. eigenvalues --  -14.31074 -14.30711 -14.30505 -10.25553 -10.19326
 Alpha  occ. eigenvalues --   -0.93653  -0.84870  -0.82895  -0.67496  -0.58855
 Alpha  occ. eigenvalues --   -0.51743  -0.50218  -0.44410  -0.43295  -0.41189
 Alpha  occ. eigenvalues --   -0.39516  -0.37393  -0.36014  -0.26090  -0.23675
 Alpha  occ. eigenvalues --   -0.21156
 Alpha virt. eigenvalues --    0.07385   0.11037   0.12437   0.14031   0.16183
 Alpha virt. eigenvalues --    0.16982   0.18020   0.18743   0.20063   0.22762
 Alpha virt. eigenvalues --    0.24935   0.27707   0.30096   0.53084   0.55552

 Mulliken charges:
               1
     1  C   -0.177135
     2  N   -0.482836
     3  C    0.263628
     4  N   -0.585498
     5  N   -0.589507
     6  H    0.135469
     7  H    0.068587
     8  H    0.102857
     9  H    0.225187
    10  H    0.074888
    11  H    0.227534
    12  H    0.243477
    13  H    0.247725
    14  H    0.245624
 Sum of Mulliken charges =  -0.00000

 Dipole moment (field-independent basis, Debye):
    X=              0.4812    Y=              0.7990    Z=              0.7849  Tot=              1.2190
 Quadrupole moment (field-independent basis, Debye-Ang):
   XX=            -32.5199   YY=            -29.5517   ZZ=            -31.7357
   XY=              3.8836   XZ=             -0.8803   YZ=              0.4477

  Exact polarizability:  46.725   0.901  43.851   0.074   1.004  41.026
 Approx polarizability:  58.327   0.060  58.668   1.605   1.685  58.127

                      1                      2                      3
                      A                      A                      A
 Frequencies --    139.5616               203.8045               284.7826
 Red. masses --      2.0059                 1.1529                 2.8020
 Frc consts  --      0.0230                 0.0282                 0.1339
 IR Inten    --      0.6870                 0.2846                 5.3805

                      4                      5                      6
                      A                      A                      A
 Frequencies --    325.0154               348.8353               452.9471
 Red. masses --      1.1182                 1.1494                 2.5578
 Frc consts  --      0.0696                 0.0824                 0.3092
 IR Inten    --     43.7892                30.1379                 8.0612

                      7                      8                      9
                      A                      A                      A
 Frequencies --    485.9165               632.4648               752.4352
 Red. masses --      2.4394                 2.2474                 1.4779
 Frc consts  --      0.3394                 0.5297                 0.4930
 IR Inten    --      0.6096                62.8505               149.4203

                     10                     11                     12
                      A                      A                      A
 Frequencies --    822.7013               885.0965               903.9626
 Red. masses --      1.9835                 1.3086                 2.0040
 Frc consts  --      0.7910                 0.6040                 0.9648
 IR Inten    --    123.0760               124.3111               110.7044

                     13                     14                     15
                      A                      A                      A
 Frequencies --    977.5191              1075.7137              1126.5254
 Red. masses --      2.0885                 2.3588                 1.3520
 Frc consts  --      1.1758                 1.6082                 1.0109
 IR Inten    --     17.2317                12.1286                20.6734

                     16                     17                     18
                      A                      A                      A
 Frequencies --   1161.7905              1173.6700              1226.4246
 Red. masses --      1.3915                 2.5869                 1.5573
 Frc consts  --      1.1066                 2.0995                 1.3801
 IR Inten    --      5.3676                78.7180                29.0172

                     19                     20                     21
                      A                      A                      A
 Frequencies --   1297.2023              1400.7299              1433.3183
 Red. masses --      1.4648                 1.3941                 1.1876
 Frc consts  --      1.4522                 1.6116                 1.4374
 IR Inten    --     18.2120                40.1506                17.2999

                     22                     23                     24
                      A                      A                      A
 Frequencies --   1458.8334              1497.5540              1511.0477
 Red. masses --      1.2061                 1.2773                 1.0744
 Frc consts  --      1.5123                 1.6878                 1.4454
 IR Inten    --     12.8396                11.5306                 2.3465

                     25                     26                     27
                      A                      A                      A
 Frequencies --   1539.9377              1634.8554              1646.2545
 Red. masses --      1.0566                 1.1185                 1.1083
 Frc consts  --      1.4763                 1.7614                 1.7697
 IR Inten    --      9.4333                57.5351                18.5034

                     28                     29                     30
                      A                      A                      A
 Frequencies --   2954.8073              2961.3974              3088.0832
 Red. masses --      1.0836                 1.0608                 1.0749
 Frc consts  --      5.5743                 5.4810                 6.0393
 IR Inten    --    114.9656                75.6774                36.5871

                     31                     32                     33
                      A                      A                      A
 Frequencies --   3143.0034              3492.7803              3517.8288
 Red. masses --      1.1012                 1.0484                 1.0488
 Frc consts  --      6.4091                 7.5358                 7.6471
 IR Inten    --     14.6900                 0.7456                 0.3487

                     34                     35                     36
                      A                      A                      A
 Frequencies --   3529.4972              3589.9416              3616.7189
 Red. masses --      1.0744                 1.0934                 1.0943
 Frc consts  --      7.8860                 8.3021                 8.4339
 IR Inten    --      0.6598                 0.1234                 1.6541

 - Thermochemistry -
 -------------------
 Temperature   298.150 Kelvin.  Pressure   1.00000 Atm.
 Atom     1 has atomic number  6 and mass  12.00000

 Molecular mass:    75.07965 amu.
 Principal axes and moments of inertia in atomic units:
                           1         2         3
     Eigenvalues --   262.87205 441.54728 541.64006
           X            0.99887   0.03855  -0.02773
           Y           -0.03854   0.99926   0.00063
           Z            0.02773   0.00044   0.99962
 This molecule is an asymmetric top.
 Rotational symmetry number  1.
 Rotational temperatures (Kelvin)      0.32949     0.19616     0.15991
 Rotational constants (GHZ):           6.86547     4.08731     3.33199
 Zero-point vibrational energy     336706.7 (Joules/Mol)
                                   80.47482 (Kcal/Mol)
 Warning -- explicit consideration of   7 degrees of freedom as
           vibrations may cause significant error
 Vibrational temperatures:    200.80   293.23   409.74   467.62   501.90
          (Kelvin)            651.69   699.12   909.97  1082.59  1183.68
                             1273.45  1300.60  1406.43  1547.71  1620.82
                             1671.56  1688.65  1764.55  1866.38  2015.34
                             2062.22  2098.93  2154.64  2174.06  2215.62
                             2352.19  2368.59  4251.30  4260.79  4443.06
                             4522.08  5025.33  5061.36  5078.15  5165.12
                             5203.65

 Zero-point correction=                           0.128245 (Hartree/Particle)
 Thermal correction to Energy=                    0.134594
 Thermal correction to Enthalpy=                  0.135538
 Thermal correction to Gibbs Free Energy=         0.099209
 Sum of electronic and zero-point Energies=           -245.755548
 Sum of electronic and thermal Energies=              -245.749199
 Sum of electronic and thermal Enthalpies=            -245.748255
 Sum of electronic and thermal Free Energies=         -245.784584

                     E (Thermal)             CV                S
                      KCal/Mol        Cal/Mol-Kelvin    Cal/Mol-Kelvin
 Total                   84.459             22.920             76.461
 Electronic               0.000              0.000              0.000
 Translational            0.889              2.981             38.864
 Rotational               0.889              2.981             25.645
 Vibrational             82.682             16.959             11.952
 Vibration     1          0.615              1.914              2.810
 Vibration     2          0.639              1.834              2.098
 Vibration     3          0.683              1.702              1.505
 Vibration     4          0.709              1.625              1.285
 Vibration     5          0.726              1.578              1.171
 Vibration     6          0.812              1.354              0.787
 Vibration     7          0.842              1.281              0.694

 Optimization completed.
    -- Stationary point found.
 Normal termination of Gaussian 09 at Thu Sep  8 15:11:19 2022.
