 Gaussian 09, Revision E.01,
 Gaussian 09:  ES64L-G09RevE.01 30-Nov-2015

 ----------------------------
 #P OPT Freq B3LYP/6-31G(d,p)
 ----------------------------

 --------
 Frag_695
 --------
 Symbolic Z-matrix:
 Charge =  0 Multiplicity = 1

 SCF Done:  E(RB3LYP) =  -303.851353498     A.U. after   13 cycles
 SCF Done:  E(RB3LYP) =  -303.851443325     A.U. after   10 cycles
 SCF Done:  E(RB3LYP) =  -303.851460620     A.U. after   10 cycles
 SCF Done:  E(RB3LYP) =  -303.851470446     A.U. after   10 cycles
 SCF Done:  E(RB3LYP) =  -303.851475487     A.U. after    8 cycles
 SCF Done:  E(RB3LYP) =  -303.851477528     A.U. after    8 cycles
 SCF Done:  E(RB3LYP) =  -303.851477792     A.U. after    7 cycles
 SCF Done:  E(RB3LYP) =  -303.851477963     A.U. after    7 cycles
 SCF Done:  E(RB3LYP) =  -303.851478077     A.U. after    7 cycles
 Optimization completed.
    -- Stationary point found.
 Normal termination of Gaussian 09 at Thu Sep  8 15:09:19 2022.

 ----------------------------------------------------------------------
 #P Geom=AllCheck Guess=TCheck SCRF=Check GenChk RB3LYP/6-31G(d,p) Freq
 ----------------------------------------------------------------------

 Structure from the checkpoint file:  "B3LYP6-31Gdp.Frag_695.chk"
 --------
 Frag_695
 --------
 Charge =  0 Multiplicity = 1

                         Standard orientation:
 ---------------------------------------------------------------------
 Center     Atomic      Atomic             Coordinates (Angstroms)
 Number     Number       Type             X           Y           Z
 ---------------------------------------------------------------------
      1          6           0        1.764664    0.907435    0.059494
      2          6           0        0.669638   -0.110847    0.012239
      3          8           0        1.148204   -1.392671   -0.059607
      4          6           0       -0.659611    0.119748    0.015103
      5          7           0       -1.303648    1.381266   -0.124755
      6          7           0       -1.511088   -1.038711    0.021493
      7          1           0        2.307585    0.950123   -0.892395
      8          1           0        1.387125    1.906283    0.289373
      9          1           0        2.492142    0.630070    0.830458
     10          1           0        0.342400   -1.940665   -0.136902
     11          1           0       -1.781869    1.677011    0.725509
     12          1           0       -0.664241    2.116586   -0.404059
     13          1           0       -1.956790   -1.174814    0.927814
     14          1           0       -2.256982   -0.919124   -0.661124
 ---------------------------------------------------------------------

 SCF Done:  E(RB3LYP) =  -303.851478077     A.U. after    1 cycles

 The electronic state is 1-A.
 Alpha  occ. eigenvalues --  -19.14117 -14.32759 -14.32604 -10.22138 -10.21559
 Alpha  occ. eigenvalues --  -10.18033  -1.02609  -0.91611  -0.84755  -0.74669
 Alpha  occ. eigenvalues --   -0.66005  -0.55359  -0.51628  -0.49893  -0.47361
 Alpha  occ. eigenvalues --   -0.45299  -0.41730  -0.39015  -0.38760  -0.35189
 Alpha  occ. eigenvalues --   -0.33450  -0.28087  -0.26973  -0.17685
 Alpha virt. eigenvalues --    0.05687   0.06768   0.10037   0.12813   0.15053
 Alpha virt. eigenvalues --    0.16270   0.16403   0.18765   0.20670   0.22636
 Alpha virt. eigenvalues --    0.26209   0.28450   0.40041   0.46703   0.54073

 Mulliken charges:
               1
     1  C   -0.360962
     2  C    0.352486
     3  O   -0.560456
     4  C    0.206505
     5  N   -0.642653
     6  N   -0.654789
     7  H    0.126978
     8  H    0.091639
     9  H    0.127622
    10  H    0.321974
    11  H    0.239221
    12  H    0.246240
    13  H    0.250805
    14  H    0.255389
 Sum of Mulliken charges =  -0.00000

 Dipole moment (field-independent basis, Debye):
    X=             -1.6597    Y=              1.5165    Z=              1.1135  Tot=              2.5088
 Quadrupole moment (field-independent basis, Debye-Ang):
   XX=            -34.9778   YY=            -34.2755   ZZ=            -35.9870
   XY=              3.9785   XZ=             -2.6712   YZ=              0.7551

  Exact polarizability:  68.413  -0.893  51.861  -1.969   0.012  33.694
 Approx polarizability: 101.646  -8.192  71.003  -2.686  -0.497  48.207

                      1                      2                      3
                      A                      A                      A
 Frequencies --    151.3069               164.8946               233.3899
 Red. masses --      1.0713                 2.0353                 1.2395
 Frc consts  --      0.0145                 0.0326                 0.0398
 IR Inten    --      1.5614                 1.6924                46.4983

                      4                      5                      6
                      A                      A                      A
 Frequencies --    280.3590               284.9559               331.2287
 Red. masses --      1.5551                 1.9720                 3.1273
 Frc consts  --      0.0720                 0.0943                 0.2022
 IR Inten    --      2.2911                14.2732                 9.9479

                      7                      8                      9
                      A                      A                      A
 Frequencies --    390.3220               474.6948               547.6993
 Red. masses --      2.8876                 2.5191                 3.7128
 Frc consts  --      0.2592                 0.3344                 0.6562
 IR Inten    --     12.4354                38.7129                 0.8845

                     10                     11                     12
                      A                      A                      A
 Frequencies --    577.9994               719.9529               743.9546
 Red. masses --      4.1170                 1.1089                 3.8165
 Frc consts  --      0.8104                 0.3386                 1.2445
 IR Inten    --     11.0383                91.3463                24.0256

                     13                     14                     15
                      A                      A                      A
 Frequencies --    799.3006               876.2963               983.2540
 Red. masses --      1.3471                 1.5364                 1.9004
 Frc consts  --      0.5071                 0.6951                 1.0825
 IR Inten    --    216.3698               128.4793                35.6539

                     16                     17                     18
                      A                      A                      A
 Frequencies --   1063.8136              1067.6329              1182.0965
 Red. masses --      1.5421                 1.6496                 1.3777
 Frc consts  --      1.0282                 1.1078                 1.1343
 IR Inten    --      3.6682                 9.1965                14.5920

                     19                     20                     21
                      A                      A                      A
 Frequencies --   1208.2224              1259.2250              1334.8490
 Red. masses --      1.5162                 4.0844                 2.8540
 Frc consts  --      1.3040                 3.8158                 2.9962
 IR Inten    --      2.6340               226.3355                62.0931

                     22                     23                     24
                      A                      A                      A
 Frequencies --   1394.6263              1442.2512              1487.2013
 Red. masses --      1.3174                 1.6768                 1.0474
 Frc consts  --      1.5097                 2.0551                 1.3649
 IR Inten    --     71.2094                 6.0266                 3.8719

                     25                     26                     27
                      A                      A                      A
 Frequencies --   1504.4866              1645.8032              1649.2302
 Red. masses --      1.0607                 1.1734                 1.1098
 Frc consts  --      1.4146                 1.8726                 1.7785
 IR Inten    --      3.6607                22.4773                15.3018

                     28                     29                     30
                      A                      A                      A
 Frequencies --   1788.7225              3039.4844              3092.8973
 Red. masses --      4.8810                 1.0382                 1.1001
 Frc consts  --      9.2012                 5.6512                 6.2002
 IR Inten    --     15.2837                32.0145                18.5513

                     31                     32                     33
                      A                      A                      A
 Frequencies --   3135.6530              3462.1902              3470.3285
 Red. masses --      1.1000                 1.0551                 1.0494
 Frc consts  --      6.3723                 7.4513                 7.4465
 IR Inten    --     23.6017                 8.5086                 1.2051

                     34                     35                     36
                      A                      A                      A
 Frequencies --   3546.3566              3604.5639              3629.0699
 Red. masses --      1.0917                 1.0866                 1.0634
 Frc consts  --      8.0895                 8.3179                 8.2515
 IR Inten    --      2.6183                 1.7096                65.3401

 - Thermochemistry -
 -------------------
 Temperature   298.150 Kelvin.  Pressure   1.00000 Atm.
 Atom     1 has atomic number  6 and mass  12.00000

 Molecular mass:    88.06366 amu.
 Principal axes and moments of inertia in atomic units:
                           1         2         3
     Eigenvalues --   373.44451 556.06056 901.51257
           X            0.99374   0.11155  -0.00649
           Y           -0.11153   0.99375   0.00367
           Z            0.00686  -0.00293   0.99997
 This molecule is an asymmetric top.
 Rotational symmetry number  1.
 Rotational temperatures (Kelvin)      0.23193     0.15576     0.09608
 Rotational constants (GHZ):           4.83269     3.24558     2.00190
 Zero-point vibrational energy     314428.3 (Joules/Mol)
                                   75.15018 (Kcal/Mol)
 Warning -- explicit consideration of  10 degrees of freedom as
           vibrations may cause significant error
 Vibrational temperatures:    217.70   237.25   335.80   403.37   409.99
          (Kelvin)            476.56   561.59   682.98   788.02   831.61
                             1035.85  1070.38  1150.01  1260.79  1414.68
                             1530.59  1536.08  1700.77  1738.36  1811.74
                             1920.55  2006.55  2075.08  2139.75  2164.62
                             2367.94  2372.87  2573.57  4373.13  4449.98
                             4511.50  4981.31  4993.02  5102.41  5186.16
                             5221.42

 Zero-point correction=                           0.119759 (Hartree/Particle)
 Thermal correction to Energy=                    0.127077
 Thermal correction to Enthalpy=                  0.128021
 Thermal correction to Gibbs Free Energy=         0.089308
 Sum of electronic and zero-point Energies=           -303.731719
 Sum of electronic and thermal Energies=              -303.724401
 Sum of electronic and thermal Enthalpies=            -303.723457
 Sum of electronic and thermal Free Energies=         -303.762171

                     E (Thermal)             CV                S
                      KCal/Mol        Cal/Mol-Kelvin    Cal/Mol-Kelvin
 Total                   79.742             26.509             81.480
 Electronic               0.000              0.000              0.000
 Translational            0.889              2.981             39.339
 Rotational               0.889              2.981             26.729
 Vibrational             77.965             20.548             15.412
 Vibration     1          0.619              1.901              2.656
 Vibration     2          0.623              1.886              2.493
 Vibration     3          0.654              1.790              1.853
 Vibration     4          0.680              1.710              1.531
 Vibration     5          0.683              1.702              1.504
 Vibration     6          0.714              1.613              1.254
 Vibration     7          0.758              1.491              0.999
 Vibration     8          0.831              1.306              0.725
 Vibration     9          0.903              1.145              0.549
 Vibration    10          0.935              1.079              0.489

 Optimization completed.
    -- Stationary point found.
 Normal termination of Gaussian 09 at Thu Sep  8 15:09:30 2022.
