 Gaussian 09, Revision E.01,
 Gaussian 09:  ES64L-G09RevE.01 30-Nov-2015

 --------------------------------
 #P OPT=calcfc Freq B3LYP/6-31G**
 --------------------------------

 --------
 Frag_325
 --------
 Symbolic Z-matrix:
 Charge =  0 Multiplicity = 1

 SCF Done:  E(RB3LYP) =  -266.699317215     A.U. after   13 cycles
 SCF Done:  E(RB3LYP) =  -266.715736169     A.U. after   14 cycles
 SCF Done:  E(RB3LYP) =  -266.708123178     A.U. after   13 cycles
 SCF Done:  E(RB3LYP) =  -266.715754680     A.U. after    9 cycles
 SCF Done:  E(RB3LYP) =  -266.716800768     A.U. after   14 cycles
 SCF Done:  E(RB3LYP) =  -266.715348279     A.U. after   14 cycles
 SCF Done:  E(RB3LYP) =  -266.718585684     A.U. after   11 cycles
 SCF Done:  E(RB3LYP) =  -266.719093106     A.U. after   12 cycles
 SCF Done:  E(RB3LYP) =  -266.719265677     A.U. after   11 cycles
 SCF Done:  E(RB3LYP) =  -266.719272859     A.U. after    9 cycles
 SCF Done:  E(RB3LYP) =  -266.719273516     A.U. after    8 cycles
 SCF Done:  E(RB3LYP) =  -266.719273609     A.U. after    7 cycles
 Optimization completed.
    -- Stationary point found.
 Normal termination of Gaussian 09 at Fri Sep 10 19:26:36 2021.

 ----------------------------------------------------------------------
 #P Geom=AllCheck Guess=TCheck SCRF=Check GenChk RB3LYP/6-31G(d,p) Freq
 ----------------------------------------------------------------------

 Structure from the checkpoint file:  "/public/home/users/caep010/.cache/gau_scr/Gau-204038.chk"
 --------
 Frag_325
 --------
 Charge =  0 Multiplicity = 1

                         Standard orientation:
 ---------------------------------------------------------------------
 Center     Atomic      Atomic             Coordinates (Angstroms)
 Number     Number       Type             X           Y           Z
 ---------------------------------------------------------------------
      1          6           0        1.328206   -1.270399   -0.262336
      2          6           0        0.740154   -0.080447   -0.027179
      3          7           0        1.453939    1.103089    0.188930
      4          6           0       -0.740165    0.080447   -0.027154
      5          6           0       -1.328221    1.270405   -0.262311
      6          7           0       -1.453903   -1.103062    0.188972
      7          1           0        0.743859   -2.123150   -0.580331
      8          1           0        2.407054   -1.384865   -0.220797
      9          1           0        1.049241    1.708419    0.891888
     10          1           0        2.447598    0.970301    0.323685
     11          1           0       -0.743883    2.123104   -0.580457
     12          1           0       -2.407062    1.384890   -0.220692
     13          1           0       -2.447636   -0.970559    0.323306
     14          1           0       -1.049268   -1.708367    0.891961
 ---------------------------------------------------------------------

 SCF Done:  E(RB3LYP) =  -266.719273609     A.U. after    1 cycles

 The electronic state is 1-A.
 Alpha  occ. eigenvalues --  -14.33280 -14.33280 -10.22015 -10.21986 -10.15719
 Alpha  occ. eigenvalues --  -10.15718  -0.91983  -0.89175  -0.73946  -0.71512
 Alpha  occ. eigenvalues --   -0.60177  -0.54188  -0.52089  -0.49493  -0.44692
 Alpha  occ. eigenvalues --   -0.44057  -0.40352  -0.39151  -0.35997  -0.34015
 Alpha  occ. eigenvalues --   -0.30650  -0.21159  -0.19650
 Alpha virt. eigenvalues --    0.00147   0.08572   0.09223   0.11865   0.13722
 Alpha virt. eigenvalues --    0.14059   0.16599   0.17410   0.18331   0.20490
 Alpha virt. eigenvalues --    0.28711   0.31381   0.35156   0.38558   0.39711

 Mulliken charges:
               1
     1  C   -0.324687
     2  C    0.284538
     3  N   -0.644321
     4  C    0.284594
     5  C   -0.324708
     6  N   -0.644342
     7  H    0.104352
     8  H    0.074903
     9  H    0.252917
    10  H    0.252285
    11  H    0.104355
    12  H    0.074900
    13  H    0.252293
    14  H    0.252922
 Sum of Mulliken charges =   0.00000

 Dipole moment (field-independent basis, Debye):
    X=             -0.0004    Y=             -0.0007    Z=              2.3160  Tot=              2.3160
 Quadrupole moment (field-independent basis, Debye-Ang):
   XX=            -30.0379   YY=            -35.8682   ZZ=            -38.4813
   XY=              2.4150   XZ=              0.0014   YZ=              0.0002

  Exact polarizability:  67.409 -11.214  77.183   0.000  -0.000  27.981
 Approx polarizability:  90.741 -25.180 134.162   0.001  -0.000  39.883

                      1                      2                      3
                      A                      A                      A
 Frequencies --    115.2092               295.2077               334.2115
 Red. masses --      3.6891                 3.1363                 1.6773
 Frc consts  --      0.0288                 0.1610                 0.1104
 IR Inten    --      0.8087                 0.0713                 3.6586

                      4                      5                      6
                      A                      A                      A
 Frequencies --    374.0885               403.0876               428.7159
 Red. masses --      1.0741                 2.2726                 1.4470
 Frc consts  --      0.0886                 0.2176                 0.1567
 IR Inten    --     45.3549                 0.4736                 1.8066

                      7                      8                      9
                      A                      A                      A
 Frequencies --    502.0255               523.3962               626.2390
 Red. masses --      1.9116                 2.6606                 1.2052
 Frc consts  --      0.2839                 0.4294                 0.2785
 IR Inten    --     30.7720                41.9044                56.5198

                     10                     11                     12
                      A                      A                      A
 Frequencies --    627.2624               741.5062               759.9321
 Red. masses --      1.3994                 2.8982                 1.5828
 Frc consts  --      0.3244                 0.9389                 0.5386
 IR Inten    --    263.8048                84.7351                 9.9300

                     13                     14                     15
                      A                      A                      A
 Frequencies --    762.6551               774.9782               823.5269
 Red. masses --      1.0747                 2.4249                 1.3999
 Frc consts  --      0.3683                 0.8581                 0.5594
 IR Inten    --      3.6195                22.9945                85.1144

                     16                     17                     18
                      A                      A                      A
 Frequencies --    827.1870               996.2304               997.3458
 Red. masses --      1.4968                 1.6255                 1.5560
 Frc consts  --      0.6034                 0.9505                 0.9119
 IR Inten    --     35.1583                 8.8178                 3.0479

                     19                     20                     21
                      A                      A                      A
 Frequencies --   1116.1639              1147.8979              1305.1513
 Red. masses --      1.5718                 1.3462                 2.3042
 Frc consts  --      1.1537                 1.0451                 2.3125
 IR Inten    --      3.0534                 0.0064                46.7791

                     22                     23                     24
                      A                      A                      A
 Frequencies --   1422.7983              1443.9630              1463.8674
 Red. masses --      2.3374                 1.2205                 1.5263
 Frc consts  --      2.7878                 1.4994                 1.9270
 IR Inten    --      2.5312                12.0401                 5.1366

                     25                     26                     27
                      A                      A                      A
 Frequencies --   1639.4771              1641.8143              1670.9344
 Red. masses --      1.2315                 1.1649                 4.2572
 Frc consts  --      1.9503                 1.8501                 7.0032
 IR Inten    --     31.2287                65.2583               185.1913

                     28                     29                     30
                      A                      A                      A
 Frequencies --   1726.4419              3170.6782              3170.8661
 Red. masses --      4.1530                 1.0627                 1.0619
 Frc consts  --      7.2932                 6.2947                 6.2904
 IR Inten    --     20.7614                17.8910                 0.3099

                     31                     32                     33
                      A                      A                      A
 Frequencies --   3272.1245              3272.5195              3552.0733
 Red. masses --      1.1133                 1.1130                 1.0473
 Frc consts  --      7.0231                 7.0228                 7.7852
 IR Inten    --      0.1874                12.0600                 2.7112

                     34                     35                     36
                      A                      A                      A
 Frequencies --   3552.7107              3663.7996              3664.5714
 Red. masses --      1.0473                 1.0982                 1.0981
 Frc consts  --      7.7883                 8.6859                 8.6884
 IR Inten    --      6.8740                 1.6515                10.8777

 - Thermochemistry -
 -------------------
 Temperature   298.150 Kelvin.  Pressure   1.00000 Atm.
 Atom     1 has atomic number  6 and mass  12.00000

 Molecular mass:    84.06875 amu.
 Principal axes and moments of inertia in atomic units:
                           1         2         3
     Eigenvalues --   353.20025 525.22024 840.90458
           X            0.99952  -0.03091   0.00000
           Y            0.03091   0.99952   0.00000
           Z           -0.00000  -0.00000   1.00000
 This molecule is an asymmetric top.
 Rotational symmetry number  1.
 Rotational temperatures (Kelvin)      0.24523     0.16491     0.10300
 Rotational constants (GHZ):           5.10968     3.43616     2.14619
 Zero-point vibrational energy     315877.9 (Joules/Mol)
                                   75.49663 (Kcal/Mol)
 Warning -- explicit consideration of   8 degrees of freedom as
           vibrations may cause significant error
 Vibrational temperatures:    165.76   424.74   480.86   538.23   579.95
          (Kelvin)            616.83   722.30   753.05   901.02   902.49
                             1066.86  1093.37  1097.29  1115.02  1184.87
                             1190.14  1433.35  1434.96  1605.91  1651.57
                             1877.82  2047.09  2077.54  2106.18  2358.84
                             2362.20  2404.10  2483.96  4561.89  4562.16
                             4707.85  4708.42  5110.63  5111.55  5271.38
                             5272.49

 Zero-point correction=                           0.120312 (Hartree/Particle)
 Thermal correction to Energy=                    0.126966
 Thermal correction to Enthalpy=                  0.127910
 Thermal correction to Gibbs Free Energy=         0.090709
 Sum of electronic and zero-point Energies=           -266.598962
 Sum of electronic and thermal Energies=              -266.592308
 Sum of electronic and thermal Enthalpies=            -266.591364
 Sum of electronic and thermal Free Energies=         -266.628565

                     E (Thermal)             CV                S
                      KCal/Mol        Cal/Mol-Kelvin    Cal/Mol-Kelvin
 Total                   79.672             25.932             78.296
 Electronic               0.000              0.000              0.000
 Translational            0.889              2.981             39.201
 Rotational               0.889              2.981             26.548
 Vibrational             77.895             19.970             12.548
 Vibration     1          0.608              1.937              3.179
 Vibration     2          0.689              1.683              1.444
 Vibration     3          0.716              1.607              1.240
 Vibration     4          0.745              1.525              1.063
 Vibration     5          0.768              1.463              0.951
 Vibration     6          0.790              1.408              0.863
 Vibration     7          0.857              1.246              0.653
 Vibration     8          0.878              1.198              0.602

 Optimization completed.
    -- Stationary point found.
 Normal termination of Gaussian 09 at Fri Sep 10 19:26:47 2021.
