 Gaussian 09, Revision E.01,
 Gaussian 09:  ES64L-G09RevE.01 30-Nov-2015

 --------------------------------
 #P OPT=calcfc Freq B3LYP/6-31G**
 --------------------------------

 --------
 Frag_403
 --------
 Symbolic Z-matrix:
 Charge =  0 Multiplicity = 1

 SCF Done:  E(RB3LYP) =  -243.379025565     A.U. after   17 cycles
 SCF Done:  E(RB3LYP) =  -243.399862390     A.U. after   16 cycles
 SCF Done:  E(RB3LYP) =  -243.397997949     A.U. after   15 cycles
 SCF Done:  E(RB3LYP) =  -243.400159523     A.U. after   11 cycles
 SCF Done:  E(RB3LYP) =  -243.394013520     A.U. after   16 cycles
 SCF Done:  E(RB3LYP) =  -243.400341568     A.U. after   12 cycles
 SCF Done:  E(RB3LYP) =  -243.341475523     A.U. after   15 cycles
 SCF Done:  E(RB3LYP) =  -243.400775212     A.U. after   11 cycles
 SCF Done:  E(RB3LYP) =  -243.401007135     A.U. after   13 cycles
 SCF Done:  E(RB3LYP) =  -243.401022217     A.U. after   11 cycles
 SCF Done:  E(RB3LYP) =  -243.401023038     A.U. after    9 cycles
 SCF Done:  E(RB3LYP) =  -243.401023093     A.U. after    8 cycles
 Optimization completed.
    -- Stationary point found.
 Normal termination of Gaussian 09 at Fri Sep 10 17:46:59 2021.

 ----------------------------------------------------------------------
 #P Geom=AllCheck Guess=TCheck SCRF=Check GenChk RB3LYP/6-31G(d,p) Freq
 ----------------------------------------------------------------------

 Structure from the checkpoint file:  "/public/home/users/caep010/.cache/gau_scr/Gau-150992.chk"
 --------
 Frag_403
 --------
 Charge =  0 Multiplicity = 1

                         Standard orientation:
 ---------------------------------------------------------------------
 Center     Atomic      Atomic             Coordinates (Angstroms)
 Number     Number       Type             X           Y           Z
 ---------------------------------------------------------------------
      1          6           0        0.487442    1.427546   -0.056263
      2          6           0        0.424563    0.083236   -0.038002
      3          7           0        1.463549   -0.803811    0.188022
      4          7           0       -0.800798   -0.620842   -0.321288
      5          7           0       -1.871961   -0.211778    0.159351
      6          1           0        1.422390    1.954598    0.094600
      7          1           0       -0.390975    2.017861   -0.282707
      8          1           0        1.277940   -1.733543   -0.164627
      9          1           0        2.389685   -0.469930   -0.038311
     10          1           0       -1.706593    0.621338    0.774041
 ---------------------------------------------------------------------

 SCF Done:  E(RB3LYP) =  -243.401023093     A.U. after    1 cycles

 The electronic state is 1-A.
 Alpha  occ. eigenvalues --  -14.39821 -14.38617 -14.35308 -10.26044 -10.18348
 Alpha  occ. eigenvalues --   -1.04078  -0.92640  -0.76082  -0.69323  -0.58613
 Alpha  occ. eigenvalues --   -0.54530  -0.50920  -0.45326  -0.41841  -0.41217
 Alpha  occ. eigenvalues --   -0.37173  -0.33188  -0.24439  -0.22359
 Alpha virt. eigenvalues --   -0.06536   0.05176   0.08417   0.09935   0.12857
 Alpha virt. eigenvalues --    0.15691   0.16556   0.25006   0.30643   0.34828
 Alpha virt. eigenvalues --    0.41768   0.53580   0.54818   0.56086   0.58164

 Mulliken charges:
               1
     1  C   -0.297436
     2  C    0.414522
     3  N   -0.629147
     4  N   -0.216196
     5  N   -0.234901
     6  H    0.098261
     7  H    0.105667
     8  H    0.276026
     9  H    0.266656
    10  H    0.216547
 Sum of Mulliken charges =  -0.00000

 Dipole moment (field-independent basis, Debye):
    X=              2.6847    Y=              0.8436    Z=              0.0673  Tot=              2.8149
 Quadrupole moment (field-independent basis, Debye-Ang):
   XX=            -29.0388   YY=            -27.8284   ZZ=            -31.8194
   XY=             -3.9345   XZ=             -2.7734   YZ=              0.6341

  Exact polarizability:  51.593   0.248  51.641  -2.001   1.635  21.801
 Approx polarizability:  77.092   0.798  87.220  -4.689   2.912  33.149

                      1                      2                      3
                      A                      A                      A
 Frequencies --    170.4258               300.2573               344.3479
 Red. masses --      3.7730                 1.2002                 2.4225
 Frc consts  --      0.0646                 0.0638                 0.1692
 IR Inten    --     13.0136                14.0567                23.0058

                      4                      5                      6
                      A                      A                      A
 Frequencies --    422.8590               458.0650               607.0041
 Red. masses --      2.5279                 2.2859                 1.2356
 Frc consts  --      0.2663                 0.2826                 0.2682
 IR Inten    --      1.4573                 5.4587               284.3112

                      7                      8                      9
                      A                      A                      A
 Frequencies --    671.9237               710.3216               794.9007
 Red. masses --      2.5365                 1.3584                 1.5402
 Frc consts  --      0.6747                 0.4038                 0.5734
 IR Inten    --     21.9132                 2.6240                89.3992

                     10                     11                     12
                      A                      A                      A
 Frequencies --    859.3133               974.1866              1030.5871
 Red. masses --      4.1747                 1.5462                 1.5126
 Frc consts  --      1.8163                 0.8646                 0.9466
 IR Inten    --      0.4614                 6.8476                49.2428

                     13                     14                     15
                      A                      A                      A
 Frequencies --   1117.3193              1354.1293              1452.5703
 Red. masses --      1.5498                 2.7328                 1.2126
 Frc consts  --      1.1399                 2.9525                 1.5074
 IR Inten    --      2.3032                46.1419                 6.1683

                     16                     17                     18
                      A                      A                      A
 Frequencies --   1488.7963              1633.7030              1654.4708
 Red. masses --      1.2365                 2.4312                 1.7832
 Frc consts  --      1.6148                 3.8232                 2.8759
 IR Inten    --     65.0066                14.0560                61.4295

                     19                     20                     21
                      A                      A                      A
 Frequencies --   1711.2599              3089.5551              3184.9666
 Red. masses --      5.8438                 1.0698                 1.0591
 Frc consts  --     10.0826                 6.0164                 6.3302
 IR Inten    --    168.6902                52.6166                 3.0511

                     22                     23                     24
                      A                      A                      A
 Frequencies --   3274.5817              3571.8301              3684.1806
 Red. masses --      1.1166                 1.0470                 1.0994
 Frc consts  --      7.0542                 7.8700                 8.7918
 IR Inten    --      3.2573                21.9961                23.8925

 - Thermochemistry -
 -------------------
 Temperature   298.150 Kelvin.  Pressure   1.00000 Atm.
 Atom     1 has atomic number  6 and mass  12.00000

 Molecular mass:    71.04835 amu.
 Principal axes and moments of inertia in atomic units:
                           1         2         3
     Eigenvalues --   193.13609 387.91353 559.26810
           X            0.99904  -0.04176  -0.01340
           Y            0.04189   0.99908   0.00913
           Z            0.01301  -0.00968   0.99987
 This molecule is an asymmetric top.
 Rotational symmetry number  1.
 Rotational temperatures (Kelvin)      0.44846     0.22328     0.15487
 Rotational constants (GHZ):           9.34440     4.65243     3.22697
 Zero-point vibrational energy     206724.0 (Joules/Mol)
                                   49.40822 (Kcal/Mol)
 Warning -- explicit consideration of   6 degrees of freedom as
           vibrations may cause significant error
 Vibrational temperatures:    245.20   432.00   495.44   608.40   659.05
          (Kelvin)            873.34   966.75  1021.99  1143.68  1236.36
                             1401.64  1482.78  1607.57  1948.29  2089.92
                             2142.04  2350.53  2380.41  2462.12  4445.18
                             4582.45  4711.39  5139.06  5300.71

 Zero-point correction=                           0.078737 (Hartree/Particle)
 Thermal correction to Energy=                    0.084167
 Thermal correction to Enthalpy=                  0.085111
 Thermal correction to Gibbs Free Energy=         0.050715
 Sum of electronic and zero-point Energies=           -243.322286
 Sum of electronic and thermal Energies=              -243.316857
 Sum of electronic and thermal Enthalpies=            -243.315912
 Sum of electronic and thermal Free Energies=         -243.350308

                     E (Thermal)             CV                S
                      KCal/Mol        Cal/Mol-Kelvin    Cal/Mol-Kelvin
 Total                   52.815             19.224             72.392
 Electronic               0.000              0.000              0.000
 Translational            0.889              2.981             38.699
 Rotational               0.889              2.981             25.241
 Vibrational             51.038             13.262              8.451
 Vibration     1          0.626              1.879              2.431
 Vibration     2          0.693              1.673              1.415
 Vibration     3          0.723              1.587              1.192
 Vibration     4          0.785              1.421              0.882
 Vibration     5          0.816              1.343              0.772
 Vibration     6          0.966              1.017              0.438

 Optimization completed.
    -- Stationary point found.
 Normal termination of Gaussian 09 at Fri Sep 10 17:47:07 2021.
