 Gaussian 09, Revision E.01,
 Gaussian 09:  ES64L-G09RevE.01 30-Nov-2015

 --------------------------------
 #P OPT=calcfc Freq B3LYP/6-31G**
 --------------------------------

 --------
 Frag_400
 --------
 Symbolic Z-matrix:
 Charge =  0 Multiplicity = 1

 SCF Done:  E(RB3LYP) =  -291.222292050     A.U. after   13 cycles
 SCF Done:  E(RB3LYP) =  -291.231065968     A.U. after   14 cycles
 SCF Done:  E(RB3LYP) =  -291.231624771     A.U. after   14 cycles
 SCF Done:  E(RB3LYP) =  -291.232324692     A.U. after   11 cycles
 SCF Done:  E(RB3LYP) =  -291.232545586     A.U. after   12 cycles
 SCF Done:  E(RB3LYP) =  -291.232519459     A.U. after   11 cycles
 SCF Done:  E(RB3LYP) =  -291.232628994     A.U. after   11 cycles
 SCF Done:  E(RB3LYP) =  -291.232631479     A.U. after    8 cycles
 SCF Done:  E(RB3LYP) =  -291.232631977     A.U. after    7 cycles
 Optimization completed.
    -- Stationary point found.
 Normal termination of Gaussian 09 at Fri Sep 10 21:24:02 2021.

 ----------------------------------------------------------------------
 #P Geom=AllCheck Guess=TCheck SCRF=Check GenChk RB3LYP/6-31G(d,p) Freq
 ----------------------------------------------------------------------

 Structure from the checkpoint file:  "/public/home/users/caep010/.cache/gau_scr/Gau-33620.chk"
 --------
 Frag_400
 --------
 Charge =  0 Multiplicity = 1

                         Standard orientation:
 ---------------------------------------------------------------------
 Center     Atomic      Atomic             Coordinates (Angstroms)
 Number     Number       Type             X           Y           Z
 ---------------------------------------------------------------------
      1          6           0       -1.879839    0.905408   -0.003966
      2          6           0       -0.917254   -0.269972   -0.012188
      3          7           0       -1.291970   -1.490681   -0.023542
      4          6           0        0.590258    0.039251   -0.004707
      5          6           0        0.925486    1.105030   -1.072092
      6          6           0        1.404653   -1.233883   -0.288477
      7          6           0        0.976127    0.578687    1.394371
      8          1           0       -1.896865    1.396658   -0.983411
      9          1           0       -1.597588    1.667741    0.728633
     10          1           0       -2.895410    0.568912    0.222775
     11          1           0       -2.315714   -1.548484   -0.004250
     12          1           0        2.004350    1.292438   -1.084631
     13          1           0        0.430083    2.060988   -0.876045
     14          1           0        0.635213    0.769642   -2.073810
     15          1           0        2.475380   -1.003003   -0.263195
     16          1           0        1.161392   -1.645813   -1.271700
     17          1           0        1.193068   -2.010694    0.448595
     18          1           0        0.451183    1.506791    1.642617
     19          1           0        0.751841   -0.158214    2.172028
     20          1           0        2.050268    0.790680    1.429550
 ---------------------------------------------------------------------

 SCF Done:  E(RB3LYP) =  -291.232631977     A.U. after    1 cycles

 The electronic state is 1-A.
 Alpha  occ. eigenvalues --  -14.30562 -10.22893 -10.19877 -10.18951 -10.17630
 Alpha  occ. eigenvalues --  -10.17599 -10.15970  -0.89937  -0.80194  -0.72536
 Alpha  occ. eigenvalues --   -0.68484  -0.67250  -0.60474  -0.50555  -0.46356
 Alpha  occ. eigenvalues --   -0.45493  -0.43959  -0.42701  -0.42257  -0.40066
 Alpha  occ. eigenvalues --   -0.38000  -0.37244  -0.35914  -0.33056  -0.32870
 Alpha  occ. eigenvalues --   -0.32168  -0.28886  -0.24800
 Alpha virt. eigenvalues --    0.01184   0.07427   0.11333   0.12654   0.13474
 Alpha virt. eigenvalues --    0.13997   0.15721   0.15970   0.16683   0.18519
 Alpha virt. eigenvalues --    0.19919   0.21124   0.21216   0.21876   0.23395

 Mulliken charges:
               1
     1  C   -0.371400
     2  C    0.302382
     3  N   -0.525364
     4  C   -0.002665
     5  C   -0.311654
     6  C   -0.280894
     7  C   -0.305933
     8  H    0.132470
     9  H    0.122066
    10  H    0.107223
    11  H    0.212494
    12  H    0.104162
    13  H    0.096528
    14  H    0.105878
    15  H    0.080909
    16  H    0.104275
    17  H    0.119101
    18  H    0.093459
    19  H    0.112744
    20  H    0.104220
 Sum of Mulliken charges =  -0.00000

 Dipole moment (field-independent basis, Debye):
    X=             -0.6508    Y=              2.0432    Z=              0.0462  Tot=              2.1449
 Quadrupole moment (field-independent basis, Debye-Ang):
   XX=            -41.6835   YY=            -49.3651   ZZ=            -45.6088
   XY=             -0.7247   XZ=              0.1186   YZ=             -0.2107

  Exact polarizability:  76.326   3.043  73.929   0.014   0.108  59.715
 Approx polarizability:  99.963   7.952 111.893   0.290   0.447  83.609

                      1                      2                      3
                      A                      A                      A
 Frequencies --     49.5291               136.9145               202.5110
 Red. masses --      3.1624                 1.0577                 1.2175
 Frc consts  --      0.0046                 0.0117                 0.0294
 IR Inten    --      1.6570                 0.0369                 0.1860

                      4                      5                      6
                      A                      A                      A
 Frequencies --    245.9400               262.3415               279.1736
 Red. masses --      1.4049                 1.1048                 1.9591
 Frc consts  --      0.0501                 0.0448                 0.0900
 IR Inten    --      0.2993                 0.1862                 1.7246

                      7                      8                      9
                      A                      A                      A
 Frequencies --    294.6277               348.9547               373.1184
 Red. masses --      1.3811                 2.4387                 2.3480
 Frc consts  --      0.0706                 0.1750                 0.1926
 IR Inten    --      0.3097                 1.9801                 0.5705

                     10                     11                     12
                      A                      A                      A
 Frequencies --    380.1158               468.4149               540.2619
 Red. masses --      2.4980                 2.4869                 3.0947
 Frc consts  --      0.2127                 0.3215                 0.5322
 IR Inten    --      1.3313                 0.1844                11.7838

                     13                     14                     15
                      A                      A                      A
 Frequencies --    595.2009               679.1812               848.1081
 Red. masses --      2.6145                 3.0983                 2.3984
 Frc consts  --      0.5457                 0.8421                 1.0164
 IR Inten    --      0.0430                 3.7844                 3.0228

                     16                     17                     18
                      A                      A                      A
 Frequencies --    882.4021               939.7416               945.9755
 Red. masses --      1.2688                 1.6149                 1.7422
 Frc consts  --      0.5821                 0.8402                 0.9186
 IR Inten    --     34.7409                 0.1997                 0.7552

                     19                     20                     21
                      A                      A                      A
 Frequencies --    967.5132               971.5149              1050.1802
 Red. masses --      1.2052                 1.7945                 1.3232
 Frc consts  --      0.6647                 0.9979                 0.8598
 IR Inten    --      0.0349                 7.1441                 9.1215

                     22                     23                     24
                      A                      A                      A
 Frequencies --   1060.0702              1080.5827              1091.9786
 Red. masses --      1.4339                 1.6466                 1.5219
 Frc consts  --      0.9493                 1.1328                 1.0692
 IR Inten    --      1.3171                 8.9234                49.2271

                     25                     26                     27
                      A                      A                      A
 Frequencies --   1234.9454              1248.2019              1260.0633
 Red. masses --      2.6316                 2.7897                 2.0340
 Frc consts  --      2.3647                 2.5608                 1.9028
 IR Inten    --      7.8703                11.8547                12.6079

                     28                     29                     30
                      A                      A                      A
 Frequencies --   1378.1084              1410.0484              1412.4639
 Red. masses --      1.6619                 1.2175                 1.3396
 Frc consts  --      1.8596                 1.4263                 1.5747
 IR Inten    --     35.3682                 5.3985                 2.6362

                     31                     32                     33
                      A                      A                      A
 Frequencies --   1415.2660              1443.6101              1483.8745
 Red. masses --      1.2862                 1.2277                 1.0546
 Frc consts  --      1.5178                 1.5075                 1.3682
 IR Inten    --     26.4866                 4.1028                 7.7798

                     34                     35                     36
                      A                      A                      A
 Frequencies --   1493.3319              1496.7689              1498.3662
 Red. masses --      1.0492                 1.0560                 1.0476
 Frc consts  --      1.3786                 1.3938                 1.3857
 IR Inten    --      2.9509                10.7579                 2.4659

                     37                     38                     39
                      A                      A                      A
 Frequencies --   1503.3124              1516.8129              1521.5499
 Red. masses --      1.0471                 1.0535                 1.0513
 Frc consts  --      1.3943                 1.4281                 1.4340
 IR Inten    --      2.3570                 3.3298                 5.4373

                     40                     41                     42
                      A                      A                      A
 Frequencies --   1533.2695              1722.1594              3038.6071
 Red. masses --      1.0734                 8.6019                 1.0348
 Frc consts  --      1.4868                15.0312                 5.6292
 IR Inten    --     11.2994                59.7036                25.8907

                     43                     44                     45
                      A                      A                      A
 Frequencies --   3040.8539              3045.9013              3051.4249
 Red. masses --      1.0356                 1.0369                 1.0388
 Frc consts  --      5.6417                 5.6679                 5.6986
 IR Inten    --     13.1738                20.6080                19.3576

                     46                     47                     48
                      A                      A                      A
 Frequencies --   3106.8172              3110.0117              3112.3238
 Red. masses --      1.1019                 1.1020                 1.0999
 Frc consts  --      6.2667                 6.2800                 6.2773
 IR Inten    --      1.4809                21.0125                37.3802

                     49                     50                     51
                      A                      A                      A
 Frequencies --   3116.3638              3119.0116              3122.3816
 Red. masses --      1.1016                 1.1026                 1.1003
 Frc consts  --      6.3035                 6.3199                 6.3201
 IR Inten    --     26.0716                23.3468                39.4413

                     52                     53                     54
                      A                      A                      A
 Frequencies --   3129.4772              3147.7961              3419.3622
 Red. masses --      1.1029                 1.1008                 1.0746
 Frc consts  --      6.3641                 6.4262                 7.4025
 IR Inten    --     28.8979                20.2131                16.3838

 - Thermochemistry -
 -------------------
 Temperature   298.150 Kelvin.  Pressure   1.00000 Atm.
 Atom     1 has atomic number  6 and mass  12.00000

 Molecular mass:    99.10480 amu.
 Principal axes and moments of inertia in atomic units:
                           1         2         3
     Eigenvalues --   573.72204 791.82013 955.43186
           X            0.99794  -0.06407  -0.00074
           Y            0.06407   0.99794  -0.00228
           Z            0.00088   0.00222   1.00000
 This molecule is an asymmetric top.
 Rotational symmetry number  1.
 Warning -- assumption of classical behavior for rotation
           may cause significant error
 Rotational temperatures (Kelvin)      0.15097     0.10939     0.09065
 Rotational constants (GHZ):           3.14567     2.27923     1.88893
 Zero-point vibrational energy     477470.5 (Joules/Mol)
                                  114.11819 (Kcal/Mol)
 Warning -- explicit consideration of  13 degrees of freedom as
           vibrations may cause significant error
 Vibrational temperatures:     71.26   196.99   291.37   353.85   377.45
          (Kelvin)            401.67   423.90   502.07   536.83   546.90
                              673.94   777.32   856.36   977.19  1220.24
                             1269.58  1352.08  1361.05  1392.03  1397.79
                             1510.97  1525.20  1554.72  1571.11  1776.81
                             1795.88  1812.95  1982.79  2028.74  2032.22
                             2036.25  2077.03  2134.96  2148.57  2153.51
                             2155.81  2162.93  2182.35  2189.17  2206.03
                             2477.80  4371.87  4375.11  4382.37  4390.31
                             4470.01  4474.61  4477.93  4483.75  4487.56
                             4492.41  4502.61  4528.97  4919.69

 Zero-point correction=                           0.181859 (Hartree/Particle)
 Thermal correction to Energy=                    0.190870
 Thermal correction to Enthalpy=                  0.191814
 Thermal correction to Gibbs Free Energy=         0.148982
 Sum of electronic and zero-point Energies=           -291.050773
 Sum of electronic and thermal Energies=              -291.041762
 Sum of electronic and thermal Enthalpies=            -291.040818
 Sum of electronic and thermal Free Energies=         -291.083650

                     E (Thermal)             CV                S
                      KCal/Mol        Cal/Mol-Kelvin    Cal/Mol-Kelvin
 Total                  119.773             33.306             90.147
 Electronic               0.000              0.000              0.000
 Translational            0.889              2.981             39.691
 Rotational               0.889              2.981             27.564
 Vibrational            117.995             27.344             22.892
 Vibration     1          0.595              1.978              4.836
 Vibration     2          0.614              1.916              2.847
 Vibration     3          0.639              1.836              2.110
 Vibration     4          0.660              1.770              1.760
 Vibration     5          0.670              1.742              1.646
 Vibration     6          0.679              1.712              1.539
 Vibration     7          0.689              1.684              1.447
 Vibration     8          0.726              1.577              1.171
 Vibration     9          0.745              1.527              1.067
 Vibration    10          0.750              1.513              1.039
 Vibration    11          0.826              1.320              0.742
 Vibration    12          0.895              1.161              0.565
 Vibration    13          0.953              1.042              0.458

 Optimization completed.
    -- Stationary point found.
 Normal termination of Gaussian 09 at Fri Sep 10 21:24:22 2021.
