 Gaussian 09, Revision E.01,
 Gaussian 09:  ES64L-G09RevE.01 30-Nov-2015

 ----------------------------
 #P OPT Freq B3LYP/6-31G(d,p)
 ----------------------------

 --------
 Frag_608
 --------
 Symbolic Z-matrix:
 Charge =  0 Multiplicity = 1

 SCF Done:  E(RB3LYP) =  -328.357521149     A.U. after   12 cycles
 SCF Done:  E(RB3LYP) =  -328.357556174     A.U. after    9 cycles
 SCF Done:  E(RB3LYP) =  -328.357558715     A.U. after    9 cycles
 SCF Done:  E(RB3LYP) =  -328.357560873     A.U. after    7 cycles
 SCF Done:  E(RB3LYP) =  -328.357561175     A.U. after    7 cycles
 SCF Done:  E(RB3LYP) =  -328.357561221     A.U. after    6 cycles
 Optimization completed.
    -- Stationary point found.
 Normal termination of Gaussian 09 at Thu Sep  8 15:18:02 2022.

 ----------------------------------------------------------------------
 #P Geom=AllCheck Guess=TCheck SCRF=Check GenChk RB3LYP/6-31G(d,p) Freq
 ----------------------------------------------------------------------

 Structure from the checkpoint file:  "B3LYP6-31Gdp.Frag_608.chk"
 --------
 Frag_608
 --------
 Charge =  0 Multiplicity = 1

                         Standard orientation:
 ---------------------------------------------------------------------
 Center     Atomic      Atomic             Coordinates (Angstroms)
 Number     Number       Type             X           Y           Z
 ---------------------------------------------------------------------
      1          6           0       -1.700793   -1.120396   -0.086925
      2          6           0       -0.834818    0.099972   -0.447860
      3          6           0       -1.495920    1.382491    0.079523
      4          6           0        0.647972   -0.053922    0.005502
      5          6           0        1.514278    1.126080   -0.441991
      6          7           0        0.719091   -0.158589    1.455233
      7          8           0        1.241921   -1.182533   -0.672016
      8          1           0       -1.849024   -1.212888    0.995401
      9          1           0       -2.694450   -1.021015   -0.534499
     10          1           0       -1.282685   -2.062080   -0.460763
     11          1           0       -0.788952    0.153399   -1.543143
     12          1           0       -1.470220    1.408017    1.172765
     13          1           0       -0.995775    2.282082   -0.288932
     14          1           0       -2.541531    1.434130   -0.242777
     15          1           0        1.422421    1.278177   -1.520508
     16          1           0        2.563500    0.904109   -0.224444
     17          1           0        1.235081    2.042215    0.079641
     18          1           0        1.689078   -0.295455    1.730082
     19          1           0        0.205102   -0.972062    1.785399
     20          1           0        0.754142   -1.973596   -0.408221
 ---------------------------------------------------------------------

 SCF Done:  E(RB3LYP) =  -328.357561221     A.U. after    1 cycles

 The electronic state is 1-A.
 Alpha  occ. eigenvalues --  -19.13186 -14.31247 -10.25789 -10.18667 -10.18157
 Alpha  occ. eigenvalues --  -10.16686 -10.16664  -1.01280  -0.87308  -0.78541
 Alpha  occ. eigenvalues --   -0.72406  -0.67894  -0.61717  -0.54958  -0.51545
 Alpha  occ. eigenvalues --   -0.48664  -0.45159  -0.42875  -0.41764  -0.38707
 Alpha  occ. eigenvalues --   -0.38473  -0.38000  -0.36953  -0.35557  -0.33905
 Alpha  occ. eigenvalues --   -0.32522  -0.32040  -0.27468  -0.23816
 Alpha virt. eigenvalues --    0.06121   0.09888   0.11456   0.13113   0.14187
 Alpha virt. eigenvalues --    0.15410   0.16014   0.16445   0.17971   0.18654
 Alpha virt. eigenvalues --    0.19968   0.20503   0.22808   0.24661   0.24876

 Mulliken charges:
               1
     1  C   -0.341776
     2  C   -0.043026
     3  C   -0.310185
     4  C    0.336546
     5  C   -0.302577
     6  N   -0.581409
     7  O   -0.552358
     8  H    0.104440
     9  H    0.112172
    10  H    0.085301
    11  H    0.095225
    12  H    0.120989
    13  H    0.101317
    14  H    0.091035
    15  H    0.110040
    16  H    0.104667
    17  H    0.115705
    18  H    0.239283
    19  H    0.227301
    20  H    0.287310
 Sum of Mulliken charges =  -0.00000

 Dipole moment (field-independent basis, Debye):
    X=             -0.7679    Y=             -1.0165    Z=              0.6355  Tot=              1.4237
 Quadrupole moment (field-independent basis, Debye-Ang):
   XX=            -45.7542   YY=            -42.7899   ZZ=            -46.7135
   XY=              1.4691   XZ=              2.7998   YZ=             -3.5636

  Exact polarizability:  69.164   2.178  65.033   0.579  -1.202  59.323
 Approx polarizability:  89.573   1.686  87.653  -0.619  -0.277  86.918

                      1                      2                      3
                      A                      A                      A
 Frequencies --     56.2148               191.2419               216.2077
 Red. masses --      2.3529                 1.0431                 1.3883
 Frc consts  --      0.0044                 0.0225                 0.0382
 IR Inten    --      1.2168                10.0272                 4.7498

                      4                      5                      6
                      A                      A                      A
 Frequencies --    235.0230               258.1194               281.7008
 Red. masses --      1.1040                 1.2548                 1.9997
 Frc consts  --      0.0359                 0.0493                 0.0935
 IR Inten    --      1.2875                38.7311                 1.1060

                      7                      8                      9
                      A                      A                      A
 Frequencies --    287.4993               330.8116               368.7799
 Red. masses --      2.2375                 1.0768                 2.0874
 Frc consts  --      0.1090                 0.0694                 0.1673
 IR Inten    --     12.4471                92.8125                 8.8400

                     10                     11                     12
                      A                      A                      A
 Frequencies --    380.5013               410.5017               479.4669
 Red. masses --      2.7952                 2.5517                 2.7467
 Frc consts  --      0.2384                 0.2533                 0.3720
 IR Inten    --      7.4393                 6.7063                20.6294

                     13                     14                     15
                      A                      A                      A
 Frequencies --    507.6668               562.9883               719.1772
 Red. masses --      2.8567                 2.5445                 2.8153
 Frc consts  --      0.4338                 0.4752                 0.8579
 IR Inten    --     11.9425                12.6118                 3.9406

                     16                     17                     18
                      A                      A                      A
 Frequencies --    844.1896               880.9244               916.8007
 Red. masses --      1.9215                 2.2736                 2.2476
 Frc consts  --      0.8068                 1.0395                 1.1130
 IR Inten    --     90.8529                36.7271                50.4944

                     19                     20                     21
                      A                      A                      A
 Frequencies --    933.0144               964.6061               973.8741
 Red. masses --      1.1853                 1.5210                 1.6270
 Frc consts  --      0.6079                 0.8338                 0.9092
 IR Inten    --      0.5046                 1.5863                 1.1188

                     22                     23                     24
                      A                      A                      A
 Frequencies --   1022.4426              1061.1984              1115.4553
 Red. masses --      1.5108                 1.4576                 2.2036
 Frc consts  --      0.9305                 0.9671                 1.6154
 IR Inten    --     30.6734                32.4672                23.1046

                     25                     26                     27
                      A                      A                      A
 Frequencies --   1172.1176              1188.6676              1197.7853
 Red. masses --      2.2023                 1.3680                 1.9279
 Frc consts  --      1.7826                 1.1388                 1.6297
 IR Inten    --     84.5228                16.0213                 3.5218

                     28                     29                     30
                      A                      A                      A
 Frequencies --   1299.4512              1336.5657              1358.4375
 Red. masses --      2.4341                 1.4083                 1.3364
 Frc consts  --      2.4216                 1.4822                 1.4530
 IR Inten    --     25.2571                14.0469                 3.0370

                     31                     32                     33
                      A                      A                      A
 Frequencies --   1399.7292              1415.7894              1432.0605
 Red. masses --      1.3520                 1.2524                 1.2352
 Frc consts  --      1.5607                 1.4791                 1.4925
 IR Inten    --      5.5323                11.8633                11.5875

                     34                     35                     36
                      A                      A                      A
 Frequencies --   1439.9773              1499.9961              1501.6337
 Red. masses --      1.7587                 1.0562                 1.0477
 Frc consts  --      2.1485                 1.4001                 1.3920
 IR Inten    --     27.1716                 2.2671                 0.2044

                     37                     38                     39
                      A                      A                      A
 Frequencies --   1507.2499              1513.8599              1524.5601
 Red. masses --      1.0534                 1.0484                 1.0543
 Frc consts  --      1.4099                 1.4156                 1.4438
 IR Inten    --      1.2399                 4.4653                 6.2793

                     40                     41                     42
                      A                      A                      A
 Frequencies --   1531.7969              1671.2182              3033.8426
 Red. masses --      1.0496                 1.0970                 1.0381
 Frc consts  --      1.4511                 1.8052                 5.6294
 IR Inten    --      5.8699                36.9474                27.3962

                     43                     44                     45
                      A                      A                      A
 Frequencies --   3042.5937              3049.7523              3062.8698
 Red. masses --      1.0832                 1.0377                 1.0375
 Frc consts  --      5.9082                 5.6865                 5.7343
 IR Inten    --     15.1732                23.3942                13.3739

                     46                     47                     48
                      A                      A                      A
 Frequencies --   3098.0640              3110.2752              3116.9996
 Red. masses --      1.1018                 1.0993                 1.0995
 Frc consts  --      6.2305                 6.2656                 6.2939
 IR Inten    --     41.0757                11.8171                45.0738

                     49                     50                     51
                      A                      A                      A
 Frequencies --   3130.8731              3135.3112              3163.2280
 Red. masses --      1.1019                 1.1020                 1.1023
 Frc consts  --      6.3637                 6.3825                 6.4984
 IR Inten    --     16.9576                36.1276                16.5876

                     52                     53                     54
                      A                      A                      A
 Frequencies --   3492.8413              3576.4935              3812.3990
 Red. masses --      1.0490                 1.0925                 1.0657
 Frc consts  --      7.5400                 8.2337                 9.1259
 IR Inten    --      0.9672                 0.3884                 3.9992

 - Thermochemistry -
 -------------------
 Temperature   298.150 Kelvin.  Pressure   1.00000 Atm.
 Atom     1 has atomic number  6 and mass  12.00000

 Molecular mass:   103.09971 amu.
 Principal axes and moments of inertia in atomic units:
                           1         2         3
     Eigenvalues --   570.03564 809.82636 980.95621
           X            0.99826   0.05873   0.00590
           Y           -0.05831   0.99675  -0.05554
           Z           -0.00915   0.05510   0.99844
 This molecule is an asymmetric top.
 Rotational symmetry number  1.
 Warning -- assumption of classical behavior for rotation
           may cause significant error
 Rotational temperatures (Kelvin)      0.15194     0.10695     0.08830
 Rotational constants (GHZ):           3.16601     2.22855     1.83978
 Zero-point vibrational energy     477398.8 (Joules/Mol)
                                  114.10105 (Kcal/Mol)
 Warning -- explicit consideration of  14 degrees of freedom as
           vibrations may cause significant error
 Vibrational temperatures:     80.88   275.15   311.07   338.15   371.38
          (Kelvin)            405.30   413.65   475.96   530.59   547.46
                              590.62   689.85   730.42   810.01  1034.73
                             1214.60  1267.45  1319.07  1342.40  1387.85
                             1401.19  1471.07  1526.83  1604.89  1686.41
                             1710.23  1723.34  1869.62  1923.02  1954.49
                             2013.90  2037.00  2060.41  2071.80  2158.16
                             2160.51  2168.59  2178.10  2193.50  2203.91
                             2404.51  4365.02  4377.61  4387.91  4406.78
                             4457.42  4474.99  4484.66  4504.62  4511.01
                             4551.17  5025.41  5145.77  5485.19

 Zero-point correction=                           0.181832 (Hartree/Particle)
 Thermal correction to Energy=                    0.191089
 Thermal correction to Enthalpy=                  0.192033
 Thermal correction to Gibbs Free Energy=         0.149015
 Sum of electronic and zero-point Energies=           -328.175730
 Sum of electronic and thermal Energies=              -328.166473
 Sum of electronic and thermal Enthalpies=            -328.165528
 Sum of electronic and thermal Free Energies=         -328.208546

                     E (Thermal)             CV                S
                      KCal/Mol        Cal/Mol-Kelvin    Cal/Mol-Kelvin
 Total                  119.910             34.798             90.539
 Electronic               0.000              0.000              0.000
 Translational            0.889              2.981             39.809
 Rotational               0.889              2.981             27.606
 Vibrational            118.132             28.836             23.123
 Vibration     1          0.596              1.975              4.586
 Vibration     2          0.634              1.852              2.216
 Vibration     3          0.645              1.816              1.991
 Vibration     4          0.655              1.787              1.840
 Vibration     5          0.667              1.749              1.674
 Vibration     6          0.681              1.708              1.523
 Vibration     7          0.685              1.697              1.489
 Vibration     8          0.713              1.614              1.256
 Vibration     9          0.741              1.536              1.085
 Vibration    10          0.750              1.512              1.037
 Vibration    11          0.775              1.447              0.925
 Vibration    12          0.836              1.296              0.712
 Vibration    13          0.863              1.233              0.639
 Vibration    14          0.919              1.111              0.518

 Optimization completed.
    -- Stationary point found.
 Normal termination of Gaussian 09 at Thu Sep  8 15:18:22 2022.
