 Gaussian 09, Revision E.01,
 Gaussian 09:  ES64L-G09RevE.01 30-Nov-2015

 ----------------------------
 #P OPT Freq B3LYP/6-31G(d,p)
 ----------------------------

 --------
 Frag_568
 --------
 Symbolic Z-matrix:
 Charge =  0 Multiplicity = 1

 SCF Done:  E(RB3LYP) =  -264.522039297     A.U. after   13 cycles
 SCF Done:  E(RB3LYP) =  -264.522097930     A.U. after   10 cycles
 SCF Done:  E(RB3LYP) =  -264.522102586     A.U. after    8 cycles
 SCF Done:  E(RB3LYP) =  -264.522103459     A.U. after    7 cycles
 SCF Done:  E(RB3LYP) =  -264.522103629     A.U. after    7 cycles
 SCF Done:  E(RB3LYP) =  -264.522103688     A.U. after    7 cycles
 Optimization completed.
    -- Stationary point found.
 Normal termination of Gaussian 09 at Thu Sep  8 15:04:19 2022.

 ----------------------------------------------------------------------
 #P Geom=AllCheck Guess=TCheck SCRF=Check GenChk RB3LYP/6-31G(d,p) Freq
 ----------------------------------------------------------------------

 Structure from the checkpoint file:  "B3LYP6-31Gdp.Frag_568.chk"
 --------
 Frag_568
 --------
 Charge =  0 Multiplicity = 1

                         Standard orientation:
 ---------------------------------------------------------------------
 Center     Atomic      Atomic             Coordinates (Angstroms)
 Number     Number       Type             X           Y           Z
 ---------------------------------------------------------------------
      1          6           0       -1.761925   -0.602088    0.010076
      2          6           0       -0.377615   -0.030872   -0.001024
      3          8           0       -0.250745    1.343353   -0.013073
      4          7           0        0.654170   -0.777574   -0.004035
      5          7           0        1.894159   -0.148624   -0.097496
      6          1           0       -2.326720   -0.264051    0.888938
      7          1           0       -2.323916   -0.298635   -0.882748
      8          1           0       -1.701855   -1.690053    0.030852
      9          1           0       -1.124098    1.748247    0.052296
     10          1           0        1.903046    0.782437    0.317537
     11          1           0        2.578438   -0.743620    0.354111
 ---------------------------------------------------------------------

 SCF Done:  E(RB3LYP) =  -264.522103688     A.U. after    1 cycles

 The electronic state is 1-A.
 Alpha  occ. eigenvalues --  -19.18129 -14.33932 -14.33276 -10.26024 -10.19550
 Alpha  occ. eigenvalues --   -1.06490  -0.95644  -0.79950  -0.71838  -0.59070
 Alpha  occ. eigenvalues --   -0.52076  -0.50361  -0.45373  -0.44590  -0.40370
 Alpha  occ. eigenvalues --   -0.37874  -0.36042  -0.32350  -0.26710  -0.20100
 Alpha virt. eigenvalues --    0.04467   0.05763   0.10613   0.13371   0.15954
 Alpha virt. eigenvalues --    0.16852   0.17383   0.22095   0.22682   0.31626
 Alpha virt. eigenvalues --    0.42397   0.54238   0.55417   0.58266   0.59536

 Mulliken charges:
               1
     1  C   -0.386925
     2  C    0.489849
     3  O   -0.533327
     4  N   -0.343147
     5  N   -0.447069
     6  H    0.114294
     7  H    0.121946
     8  H    0.150676
     9  H    0.320161
    10  H    0.253455
    11  H    0.260087
 Sum of Mulliken charges =  -0.00000

 Dipole moment (field-independent basis, Debye):
    X=             -1.9213    Y=              1.4179    Z=              1.4067  Tot=              2.7714
 Quadrupole moment (field-independent basis, Debye-Ang):
   XX=            -23.6225   YY=            -29.6327   ZZ=            -31.2150
   XY=             -1.8162   XZ=              3.1628   YZ=              0.2035

  Exact polarizability:  59.089  -3.996  38.229   0.910   0.320  24.343
 Approx polarizability:  81.669 -11.864  58.183  -0.221   0.705  34.175

                      1                      2                      3
                      A                      A                      A
 Frequencies --    185.1382               252.7494               283.2768
 Red. masses --      1.1504                 1.2398                 2.0478
 Frc consts  --      0.0232                 0.0467                 0.0968
 IR Inten    --      0.5318               124.4770                 5.1127

                      4                      5                      6
                      A                      A                      A
 Frequencies --    295.2749               384.3106               399.2039
 Red. masses --      3.6262                 1.1458                 2.6533
 Frc consts  --      0.1863                 0.0997                 0.2491
 IR Inten    --     13.5341                29.2775                 5.7624

                      7                      8                      9
                      A                      A                      A
 Frequencies --    602.2221               630.9542               798.9888
 Red. masses --      4.2011                 3.9614                 1.7166
 Frc consts  --      0.8977                 0.9292                 0.6457
 IR Inten    --      8.5627                 2.6855               261.5924

                     10                     11                     12
                      A                      A                      A
 Frequencies --    872.5134              1002.4383              1065.2533
 Red. masses --      4.9886                 1.4694                 1.4636
 Frc consts  --      2.2376                 0.8700                 0.9786
 IR Inten    --     30.1852                 9.9119                 2.4488

                     13                     14                     15
                      A                      A                      A
 Frequencies --   1128.5145              1217.0099              1294.0267
 Red. masses --      2.1176                 1.6089                 2.2434
 Frc consts  --      1.5890                 1.4040                 2.2133
 IR Inten    --     81.8090                21.2309               142.4508

                     16                     17                     18
                      A                      A                      A
 Frequencies --   1374.1513              1429.4461              1493.5700
 Red. masses --      1.4093                 1.5286                 1.0440
 Frc consts  --      1.5679                 1.8403                 1.3722
 IR Inten    --     52.6350                38.7060                 7.7844

                     19                     20                     21
                      A                      A                      A
 Frequencies --   1498.6886              1660.9020              1787.8383
 Red. masses --      1.0585                 1.1100                 6.7873
 Frc consts  --      1.4007                 1.8042                12.7822
 IR Inten    --      2.0933                18.4202                39.6206

                     22                     23                     24
                      A                      A                      A
 Frequencies --   3024.6750              3073.7657              3168.8969
 Red. masses --      1.0411                 1.1010                 1.0966
 Frc consts  --      5.6118                 6.1290                 6.4879
 IR Inten    --     36.6395                24.2973                 4.7293

                     25                     26                     27
                      A                      A                      A
 Frequencies --   3463.3248              3609.0524              3841.8177
 Red. masses --      1.0499                 1.0937                 1.0667
 Frc consts  --      7.4196                 8.3931                 9.2763
 IR Inten    --      2.1781                 4.1766                49.4465

 - Thermochemistry -
 -------------------
 Temperature   298.150 Kelvin.  Pressure   1.00000 Atm.
 Atom     1 has atomic number  6 and mass  12.00000

 Molecular mass:    74.04801 amu.
 Principal axes and moments of inertia in atomic units:
                           1         2         3
     Eigenvalues --   182.75167 441.06803 610.05156
           X            0.99963   0.02481   0.01130
           Y           -0.02483   0.99969   0.00144
           Z           -0.01126  -0.00172   0.99994
 This molecule is an asymmetric top.
 Rotational symmetry number  1.
 Rotational temperatures (Kelvin)      0.47394     0.19637     0.14198
 Rotational constants (GHZ):           9.87537     4.09175     2.95834
 Zero-point vibrational energy     238284.2 (Joules/Mol)
                                   56.95129 (Kcal/Mol)
 Warning -- explicit consideration of   7 degrees of freedom as
           vibrations may cause significant error
 Vibrational temperatures:    266.37   363.65   407.57   424.83   552.94
          (Kelvin)            574.36   866.46   907.80  1149.57  1255.35
                             1442.28  1532.66  1623.68  1751.00  1861.81
                             1977.09  2056.65  2148.91  2156.28  2389.66
                             2572.30  4351.83  4422.46  4559.33  4982.95
                             5192.61  5527.51

 Zero-point correction=                           0.090758 (Hartree/Particle)
 Thermal correction to Energy=                    0.096744
 Thermal correction to Enthalpy=                  0.097688
 Thermal correction to Gibbs Free Energy=         0.062186
 Sum of electronic and zero-point Energies=           -264.431346
 Sum of electronic and thermal Energies=              -264.425360
 Sum of electronic and thermal Enthalpies=            -264.424415
 Sum of electronic and thermal Free Energies=         -264.459917

                     E (Thermal)             CV                S
                      KCal/Mol        Cal/Mol-Kelvin    Cal/Mol-Kelvin
 Total                   60.708             20.847             74.720
 Electronic               0.000              0.000              0.000
 Translational            0.889              2.981             38.822
 Rotational               0.889              2.981             25.400
 Vibrational             58.930             14.885             10.497
 Vibration     1          0.631              1.860              2.276
 Vibration     2          0.664              1.758              1.711
 Vibration     3          0.682              1.705              1.514
 Vibration     4          0.689              1.683              1.444
 Vibration     5          0.753              1.504              1.022
 Vibration     6          0.765              1.472              0.966
 Vibration     7          0.961              1.027              0.446

 Normal termination of Gaussian 09 at Thu Sep  8 15:04:27 2022.
