 Gaussian 09, Revision E.01,
 Gaussian 09:  ES64L-G09RevE.01 30-Nov-2015

 ----------------------------
 #P OPT Freq B3LYP/6-31G(d,p)
 ----------------------------

 ---------
 Frag_1020
 ---------
 Symbolic Z-matrix:
 Charge =  0 Multiplicity = 1

 SCF Done:  E(RB3LYP) =  -305.056661827     A.U. after   13 cycles
 SCF Done:  E(RB3LYP) =  -305.056714836     A.U. after   10 cycles
 SCF Done:  E(RB3LYP) =  -305.056724194     A.U. after    8 cycles
 SCF Done:  E(RB3LYP) =  -305.056727204     A.U. after    8 cycles
 SCF Done:  E(RB3LYP) =  -305.056728464     A.U. after    7 cycles
 SCF Done:  E(RB3LYP) =  -305.056728938     A.U. after    7 cycles
 Optimization completed.
    -- Stationary point found.
 Normal termination of Gaussian 09 at Thu Sep  8 14:45:17 2022.

 ----------------------------------------------------------------------
 #P Geom=AllCheck Guess=TCheck SCRF=Check GenChk RB3LYP/6-31G(d,p) Freq
 ----------------------------------------------------------------------

 Structure from the checkpoint file:  "B3LYP6-31Gdp.Frag_1020.chk"
 ---------
 Frag_1020
 ---------
 Charge =  0 Multiplicity = 1

                         Standard orientation:
 ---------------------------------------------------------------------
 Center     Atomic      Atomic             Coordinates (Angstroms)
 Number     Number       Type             X           Y           Z
 ---------------------------------------------------------------------
      1          6           0        0.901577    1.338885    0.520742
      2          7           0        0.658618    0.234103   -0.399530
      3          6           0        1.702622   -0.781789   -0.345201
      4          6           0       -0.665961   -0.323429   -0.353562
      5          7           0       -1.683643    0.694982   -0.509767
      6          8           0       -0.812302   -1.066123    0.880452
      7          1           0        1.892179    1.755710    0.313391
      8          1           0        0.870008    1.047978    1.584102
      9          1           0        0.169074    2.130188    0.343852
     10          1           0        2.662763   -0.321773   -0.601880
     11          1           0        1.798206   -1.267629    0.638361
     12          1           0        1.494619   -1.560543   -1.087082
     13          1           0       -0.755405   -1.017010   -1.202762
     14          1           0       -1.881865    1.113514    0.395867
     15          1           0       -2.547827    0.277377   -0.840879
     16          1           0       -1.657585   -1.534429    0.846628
 ---------------------------------------------------------------------

 SCF Done:  E(RB3LYP) =  -305.056728938     A.U. after    1 cycles

 The electronic state is 1-A.
 Alpha  occ. eigenvalues --  -19.13662 -14.31890 -14.31572 -10.28000 -10.19203
 Alpha  occ. eigenvalues --  -10.19112  -1.02162  -0.90948  -0.86378  -0.69638
 Alpha  occ. eigenvalues --   -0.67515  -0.57128  -0.53108  -0.49711  -0.47070
 Alpha  occ. eigenvalues --   -0.44101  -0.41832  -0.39827  -0.38270  -0.37422
 Alpha  occ. eigenvalues --   -0.35389  -0.34330  -0.29120  -0.24334  -0.20719
 Alpha virt. eigenvalues --    0.06250   0.10730   0.11934   0.12532   0.15254
 Alpha virt. eigenvalues --    0.16948   0.17526   0.18342   0.19077   0.20338
 Alpha virt. eigenvalues --    0.21904   0.25008   0.25242   0.28599   0.30369

 Mulliken charges:
               1
     1  C   -0.173998
     2  N   -0.386192
     3  C   -0.151914
     4  C    0.374270
     5  N   -0.586930
     6  O   -0.541142
     7  H    0.103301
     8  H    0.096484
     9  H    0.116289
    10  H    0.100187
    11  H    0.103694
    12  H    0.096458
    13  H    0.082599
    14  H    0.241926
    15  H    0.237509
    16  H    0.287459
 Sum of Mulliken charges =  -0.00000

 Dipole moment (field-independent basis, Debye):
    X=             -1.7497    Y=             -0.9573    Z=              0.3642  Tot=              2.0274
 Quadrupole moment (field-independent basis, Debye-Ang):
   XX=            -29.9796   YY=            -37.4688   ZZ=            -40.9967
   XY=              2.7293   XZ=             -0.5635   YZ=              3.8489

  Exact polarizability:  58.237   0.952  51.115   0.919   2.612  44.695
 Approx polarizability:  72.331   1.710  68.113   1.550   1.863  64.393

                      1                      2                      3
                      A                      A                      A
 Frequencies --    100.2534               203.0052               245.6954
 Red. masses --      3.1851                 1.2423                 1.3716
 Frc consts  --      0.0189                 0.0302                 0.0488
 IR Inten    --      0.7833                23.1625                 9.5543

                      4                      5                      6
                      A                      A                      A
 Frequencies --    250.8966               261.1499               288.7333
 Red. masses --      1.3542                 1.3593                 1.1013
 Frc consts  --      0.0502                 0.0546                 0.0541
 IR Inten    --     22.2950                22.3914               104.4527

                      7                      8                      9
                      A                      A                      A
 Frequencies --    319.4892               393.3024               473.7506
 Red. masses --      2.2147                 2.3870                 2.5087
 Frc consts  --      0.1332                 0.2176                 0.3317
 IR Inten    --      6.6729                 8.8002                30.9608

                     10                     11                     12
                      A                      A                      A
 Frequencies --    534.1041               631.3329               807.8999
 Red. masses --      4.0725                 3.3619                 1.9723
 Frc consts  --      0.6845                 0.7895                 0.7585
 IR Inten    --      2.0573                 5.8056                43.9605

                     13                     14                     15
                      A                      A                      A
 Frequencies --    826.1963               947.6618              1023.6371
 Red. masses --      2.4379                 4.2815                 2.3681
 Frc consts  --      0.9805                 2.2655                 1.4620
 IR Inten    --     51.1857               241.9109                68.0961

                     16                     17                     18
                      A                      A                      A
 Frequencies --   1075.0177              1095.8338              1121.2319
 Red. masses --      1.5065                 1.5645                 1.2376
 Frc consts  --      1.0258                 1.1069                 0.9167
 IR Inten    --     21.7046                54.7637                 8.7435

                     19                     20                     21
                      A                      A                      A
 Frequencies --   1183.6606              1188.3831              1233.9589
 Red. masses --      1.4937                 1.9285                 1.4310
 Frc consts  --      1.2330                 1.6047                 1.2838
 IR Inten    --      6.7737                26.9327                58.3433

                     22                     23                     24
                      A                      A                      A
 Frequencies --   1307.1595              1350.7941              1382.0088
 Red. masses --      2.2643                 2.1795                 1.2040
 Frc consts  --      2.2795                 2.3431                 1.3549
 IR Inten    --     18.0962                41.9091                10.3416

                     25                     26                     27
                      A                      A                      A
 Frequencies --   1445.4602              1451.9867              1491.7113
 Red. masses --      1.1727                 1.3038                 1.1298
 Frc consts  --      1.4436                 1.6195                 1.4812
 IR Inten    --      2.9392                41.5922                18.5518

                     28                     29                     30
                      A                      A                      A
 Frequencies --   1498.2476              1515.7798              1520.0954
 Red. masses --      1.1505                 1.0843                 1.0477
 Frc consts  --      1.5217                 1.4678                 1.4264
 IR Inten    --     13.7594                10.6543                 3.2013

                     31                     32                     33
                      A                      A                      A
 Frequencies --   1535.0106              1669.6797              2977.5215
 Red. masses --      1.0667                 1.0963                 1.0542
 Frc consts  --      1.4809                 1.8008                 5.5066
 IR Inten    --     16.0549                28.6425                64.5313

                     34                     35                     36
                      A                      A                      A
 Frequencies --   2994.4142              3011.8359              3069.9359
 Red. masses --      1.0486                 1.0856                 1.0870
 Frc consts  --      5.5395                 5.8023                 6.0360
 IR Inten    --     75.3614                55.9812                42.3233

                     37                     38                     39
                      A                      A                      A
 Frequencies --   3082.8270              3106.6263              3129.1716
 Red. masses --      1.0806                 1.1032                 1.1007
 Frc consts  --      6.0508                 6.2729                 6.3502
 IR Inten    --     34.0912                39.0719                22.6702

                     40                     41                     42
                      A                      A                      A
 Frequencies --   3508.5472              3598.0163              3799.6778
 Red. masses --      1.0497                 1.0927                 1.0662
 Frc consts  --      7.6130                 8.3341                 9.0692
 IR Inten    --      0.3507                 1.1148                 4.0444

 - Thermochemistry -
 -------------------
 Temperature   298.150 Kelvin.  Pressure   1.00000 Atm.
 Atom     1 has atomic number  6 and mass  12.00000

 Molecular mass:    90.07931 amu.
 Principal axes and moments of inertia in atomic units:
                           1         2         3
     Eigenvalues --   377.55629 601.60705 751.99537
           X            0.99995  -0.00674   0.00774
           Y            0.00595   0.99514   0.09829
           Z           -0.00836  -0.09824   0.99513
 This molecule is an asymmetric top.
 Rotational symmetry number  1.
 Rotational temperatures (Kelvin)      0.22941     0.14397     0.11518
 Rotational constants (GHZ):           4.78006     2.99987     2.39994
 Zero-point vibrational energy     374740.4 (Joules/Mol)
                                   89.56510 (Kcal/Mol)
 Warning -- explicit consideration of  10 degrees of freedom as
           vibrations may cause significant error
 Vibrational temperatures:    144.24   292.08   353.50   360.98   375.74
          (Kelvin)            415.42   459.67   565.87   681.62   768.46
                              908.35  1162.39  1188.71  1363.47  1472.78
                             1546.71  1576.66  1613.20  1703.02  1709.82
                             1775.39  1880.71  1943.49  1988.40  2079.69
                             2089.08  2146.24  2155.64  2180.87  2187.08
                             2208.54  2402.29  4283.98  4308.29  4333.35
                             4416.95  4435.49  4469.74  4502.17  5048.01
                             5176.74  5466.88

 Zero-point correction=                           0.142731 (Hartree/Particle)
 Thermal correction to Energy=                    0.150455
 Thermal correction to Enthalpy=                  0.151399
 Thermal correction to Gibbs Free Energy=         0.111828
 Sum of electronic and zero-point Energies=           -304.913998
 Sum of electronic and thermal Energies=              -304.906274
 Sum of electronic and thermal Enthalpies=            -304.905330
 Sum of electronic and thermal Free Energies=         -304.944901

                     E (Thermal)             CV                S
                      KCal/Mol        Cal/Mol-Kelvin    Cal/Mol-Kelvin
 Total                   94.412             27.745             83.285
 Electronic               0.000              0.000              0.000
 Translational            0.889              2.981             39.407
 Rotational               0.889              2.981             26.638
 Vibrational             92.634             21.783             17.241
 Vibration     1          0.604              1.949              3.449
 Vibration     2          0.639              1.836              2.106
 Vibration     3          0.660              1.770              1.761
 Vibration     4          0.663              1.761              1.724
 Vibration     5          0.669              1.744              1.654
 Vibration     6          0.685              1.695              1.481
 Vibration     7          0.705              1.636              1.313
 Vibration     8          0.761              1.484              0.988
 Vibration     9          0.831              1.308              0.727
 Vibration    10          0.889              1.175              0.578

 Normal termination of Gaussian 09 at Thu Sep  8 14:45:30 2022.
