 Gaussian 09, Revision E.01,
 Gaussian 09:  ES64L-G09RevE.01 30-Nov-2015

 ----------------------------
 #P OPT Freq B3LYP/6-31G(d,p)
 ----------------------------

 ---------
 Frag_1089
 ---------
 Symbolic Z-matrix:
 Charge =  0 Multiplicity = 1

 SCF Done:  E(RB3LYP) =  -360.418133253     A.U. after   13 cycles
 SCF Done:  E(RB3LYP) =  -360.418190673     A.U. after   10 cycles
 SCF Done:  E(RB3LYP) =  -360.418194370     A.U. after    8 cycles
 SCF Done:  E(RB3LYP) =  -360.418196708     A.U. after    7 cycles
 SCF Done:  E(RB3LYP) =  -360.418197234     A.U. after    7 cycles
 Optimization completed.
    -- Stationary point found.
 Normal termination of Gaussian 09 at Thu Sep  8 14:51:49 2022.

 ----------------------------------------------------------------------
 #P Geom=AllCheck Guess=TCheck SCRF=Check GenChk RB3LYP/6-31G(d,p) Freq
 ----------------------------------------------------------------------

 Structure from the checkpoint file:  "B3LYP6-31Gdp.Frag_1089.chk"
 ---------
 Frag_1089
 ---------
 Charge =  0 Multiplicity = 1

                         Standard orientation:
 ---------------------------------------------------------------------
 Center     Atomic      Atomic             Coordinates (Angstroms)
 Number     Number       Type             X           Y           Z
 ---------------------------------------------------------------------
      1          6           0       -1.472245   -1.242939    0.018410
      2          7           0       -0.794503   -0.031095   -0.421930
      3          6           0       -1.572482    1.154053   -0.068191
      4          6           0        0.627760    0.029508   -0.019258
      5          7           0        0.921315   -0.112685    1.411419
      6          7           0        1.392670   -0.978253   -0.723695
      7          8           0        1.076358    1.311679   -0.406185
      8          1           0       -0.885164   -2.126397   -0.246318
      9          1           0       -1.671637   -1.275838    1.107702
     10          1           0       -2.439010   -1.319215   -0.488449
     11          1           0       -2.568366    1.066391   -0.513969
     12          1           0       -1.089176    2.044600   -0.466093
     13          1           0       -1.706000    1.279443    1.023022
     14          1           0        0.698578    0.766218    1.868770
     15          1           0        0.349496   -0.839739    1.836192
     16          1           0        0.903292   -1.296360   -1.552629
     17          1           0        1.658450   -1.750969   -0.126652
     18          1           0        2.004107    1.168933   -0.638424
 ---------------------------------------------------------------------

 SCF Done:  E(RB3LYP) =  -360.418197234     A.U. after    1 cycles

 The electronic state is 1-A.
 Alpha  occ. eigenvalues --  -19.13514 -14.32220 -14.31586 -14.31269 -10.31069
 Alpha  occ. eigenvalues --  -10.20631 -10.19347  -1.04016  -0.92138  -0.86983
 Alpha  occ. eigenvalues --   -0.84201  -0.70136  -0.66271  -0.57488  -0.53155
 Alpha  occ. eigenvalues --   -0.50725  -0.49147  -0.45932  -0.44435  -0.42410
 Alpha  occ. eigenvalues --   -0.41609  -0.38612  -0.37943  -0.36886  -0.34540
 Alpha  occ. eigenvalues --   -0.28321  -0.26761  -0.24858  -0.20951
 Alpha virt. eigenvalues --    0.06556   0.10553   0.12132   0.13219   0.13906
 Alpha virt. eigenvalues --    0.14922   0.15274   0.17301   0.18074   0.19585
 Alpha virt. eigenvalues --    0.19969   0.20219   0.24805   0.26584   0.28449

 Mulliken charges:
               1
     1  C   -0.164422
     2  N   -0.417869
     3  C   -0.163005
     4  C    0.617782
     5  N   -0.599459
     6  N   -0.609344
     7  O   -0.553425
     8  H    0.091258
     9  H    0.071628
    10  H    0.114276
    11  H    0.099709
    12  H    0.143562
    13  H    0.066595
    14  H    0.252422
    15  H    0.232658
    16  H    0.252222
    17  H    0.248883
    18  H    0.316530
 Sum of Mulliken charges =  -0.00000

 Dipole moment (field-independent basis, Debye):
    X=             -1.0982    Y=             -1.6101    Z=              0.7572  Tot=              2.0909
 Quadrupole moment (field-independent basis, Debye-Ang):
   XX=            -44.3550   YY=            -41.1150   ZZ=            -43.4898
   XY=              0.1694   XZ=             -1.8722   YZ=              1.2009

  Exact polarizability:  60.340  -0.429  59.532  -1.186   0.524  52.125
 Approx polarizability:  78.123  -0.195  82.052  -1.602  -0.292  74.805

                      1                      2                      3
                      A                      A                      A
 Frequencies --     93.4281               139.6381               226.6283
 Red. masses --      2.8226                 1.1045                 1.2210
 Frc consts  --      0.0145                 0.0127                 0.0369
 IR Inten    --      1.1618                22.1458                 0.0286

                      4                      5                      6
                      A                      A                      A
 Frequencies --    259.0974               276.2162               285.7529
 Red. masses --      1.0539                 1.9020                 1.3705
 Frc consts  --      0.0417                 0.0855                 0.0659
 IR Inten    --      1.1130                 9.3800                21.7797

                      7                      8                      9
                      A                      A                      A
 Frequencies --    320.2710               377.9674               399.6155
 Red. masses --      2.6052                 1.3050                 2.4337
 Frc consts  --      0.1574                 0.1098                 0.2290
 IR Inten    --      8.5930                75.4462                 4.3328

                     10                     11                     12
                      A                      A                      A
 Frequencies --    420.4609               472.2453               537.1157
 Red. masses --      3.0704                 2.0980                 3.1780
 Frc consts  --      0.3198                 0.2757                 0.5402
 IR Inten    --     10.7519                 7.5045                 5.1960

                     13                     14                     15
                      A                      A                      A
 Frequencies --    560.9890               585.8579               725.1815
 Red. masses --      3.6286                 3.1660                 2.0723
 Frc consts  --      0.6728                 0.6402                 0.6421
 IR Inten    --      3.4006                43.2580               118.0409

                     16                     17                     18
                      A                      A                      A
 Frequencies --    766.7770               871.4291               911.4546
 Red. masses --      1.8740                 1.5172                 3.2058
 Frc consts  --      0.6492                 0.6788                 1.5691
 IR Inten    --     99.6636               202.8432                93.8432

                     19                     20                     21
                      A                      A                      A
 Frequencies --    990.2682              1055.9179              1069.1457
 Red. masses --      2.4315                 1.9904                 1.5369
 Frc consts  --      1.4048                 1.3076                 1.0351
 IR Inten    --     81.3103                89.8029                 3.1697

                     22                     23                     24
                      A                      A                      A
 Frequencies --   1093.5032              1124.4078              1189.6515
 Red. masses --      1.9046                 1.2453                 1.4850
 Frc consts  --      1.3418                 0.9276                 1.2383
 IR Inten    --    181.9687                 2.8274                10.8972

                     25                     26                     27
                      A                      A                      A
 Frequencies --   1229.7945              1278.1821              1307.4949
 Red. masses --      3.3496                 1.7903                 2.0554
 Frc consts  --      2.9848                 1.7233                 2.0702
 IR Inten    --     10.4428                28.8522                40.1738

                     28                     29                     30
                      A                      A                      A
 Frequencies --   1346.4880              1380.2792              1446.0430
 Red. masses --      2.0919                 1.7919                 1.1722
 Frc consts  --      2.2345                 2.0114                 1.4441
 IR Inten    --     40.0580               150.5290                 3.8971

                     31                     32                     33
                      A                      A                      A
 Frequencies --   1477.6342              1498.7618              1511.5416
 Red. masses --      1.1868                 1.0500                 1.0543
 Frc consts  --      1.5267                 1.3896                 1.4193
 IR Inten    --      7.7343                 9.8344                 6.1429

                     34                     35                     36
                      A                      A                      A
 Frequencies --   1520.7912              1532.7452              1618.4251
 Red. masses --      1.0503                 1.0541                 1.1244
 Frc consts  --      1.4312                 1.4590                 1.7352
 IR Inten    --     10.3757                 9.2147                61.1528

                     37                     38                     39
                      A                      A                      A
 Frequencies --   1649.0387              2920.7782              2940.9130
 Red. masses --      1.1243                 1.0626                 1.0621
 Frc consts  --      1.8014                 5.3407                 5.4124
 IR Inten    --     23.8702                65.5757               110.4968

                     40                     41                     42
                      A                      A                      A
 Frequencies --   3077.1808              3082.9265              3124.7857
 Red. masses --      1.0698                 1.0770                 1.1024
 Frc consts  --      5.9686                 6.0310                 6.3419
 IR Inten    --     26.6214                46.3304                26.0218

                     43                     44                     45
                      A                      A                      A
 Frequencies --   3175.7962              3498.2181              3542.6889
 Red. masses --      1.0960                 1.0502                 1.0477
 Frc consts  --      6.5129                 7.5724                 7.7475
 IR Inten    --      7.8618                 1.6107                 2.6930

                     46                     47                     48
                      A                      A                      A
 Frequencies --   3602.3316              3658.6812              3820.3449
 Red. masses --      1.0915                 1.0971                 1.0652
 Frc consts  --      8.3455                 8.6528                 9.1598
 IR Inten    --      3.1440                 8.7328                52.3359

 - Thermochemistry -
 -------------------
 Temperature   298.150 Kelvin.  Pressure   1.00000 Atm.
 Atom     1 has atomic number  6 and mass  12.00000

 Molecular mass:   105.09021 amu.
 Principal axes and moments of inertia in atomic units:
                           1         2         3
     Eigenvalues --   540.01016 744.59801 904.57225
           X            0.99967  -0.02190  -0.01376
           Y            0.02218   0.99955   0.02027
           Z            0.01331  -0.02057   0.99970
 This molecule is an asymmetric top.
 Rotational symmetry number  1.
 Warning -- assumption of classical behavior for rotation
           may cause significant error
 Rotational temperatures (Kelvin)      0.16039     0.11632     0.09575
 Rotational constants (GHZ):           3.34205     2.42378     1.99513
 Zero-point vibrational energy     418662.4 (Joules/Mol)
                                  100.06271 (Kcal/Mol)
 Warning -- explicit consideration of  14 degrees of freedom as
           vibrations may cause significant error
 Vibrational temperatures:    134.42   200.91   326.07   372.78   397.41
          (Kelvin)            411.13   460.80   543.81   574.96   604.95
                              679.45   772.79   807.14   842.92  1043.37
                             1103.22  1253.79  1311.38  1424.77  1519.23
                             1538.26  1573.31  1617.77  1711.64  1769.40
                             1839.02  1881.19  1937.29  1985.91  2080.53
                             2125.98  2156.38  2174.77  2188.08  2205.28
                             2328.55  2372.60  4202.34  4231.31  4427.37
                             4435.64  4495.86  4569.26  5033.15  5097.13
                             5182.95  5264.02  5496.62

 Zero-point correction=                           0.159460 (Hartree/Particle)
 Thermal correction to Energy=                    0.168261
 Thermal correction to Enthalpy=                  0.169205
 Thermal correction to Gibbs Free Energy=         0.127289
 Sum of electronic and zero-point Energies=           -360.258737
 Sum of electronic and thermal Energies=              -360.249936
 Sum of electronic and thermal Enthalpies=            -360.248992
 Sum of electronic and thermal Free Energies=         -360.290908

                     E (Thermal)             CV                S
                      KCal/Mol        Cal/Mol-Kelvin    Cal/Mol-Kelvin
 Total                  105.585             33.065             88.220
 Electronic               0.000              0.000              0.000
 Translational            0.889              2.981             39.866
 Rotational               0.889              2.981             27.389
 Vibrational            103.808             27.104             20.965
 Vibration     1          0.602              1.954              3.587
 Vibration     2          0.615              1.914              2.809
 Vibration     3          0.650              1.800              1.905
 Vibration     4          0.668              1.747              1.668
 Vibration     5          0.678              1.717              1.557
 Vibration     6          0.684              1.700              1.499
 Vibration     7          0.706              1.635              1.309
 Vibration     8          0.748              1.517              1.047
 Vibration     9          0.766              1.471              0.964
 Vibration    10          0.783              1.426              0.890
 Vibration    11          0.829              1.312              0.731
 Vibration    12          0.892              1.168              0.572
 Vibration    13          0.917              1.116              0.522
 Vibration    14          0.943              1.062              0.475

 Normal termination of Gaussian 09 at Thu Sep  8 14:52:06 2022.
