 Gaussian 09, Revision D.01,
 Gaussian 09:  ES64L-G09RevD.01 24-Apr-2013

 -------------------------
 #P OPT Freq B3LYP/6-31G**
 -------------------------

 -------
 Frag_16
 -------
 Symbolic Z-matrix:
 Charge =  0 Multiplicity = 1

 SCF Done:  E(RB3LYP) =  -196.571039146     A.U. after   11 cycles
 Optimization completed.
    -- Stationary point found.
 Normal termination of Gaussian 09 at Thu Jul 22 22:26:27 2021.

 ----------------------------------------------------------------------
 #P Geom=AllCheck Guess=TCheck SCRF=Check GenChk RB3LYP/6-31G(d,p) Freq
 ----------------------------------------------------------------------

 Structure from the checkpoint file:  "/vol2/users/liuj201281/HOFBenchmark/IsodesmicSplit/Sample60/Ring26/Running/Gau-100231.chk"
 -------
 Frag_16
 -------
 Charge =  0 Multiplicity = 1

                         Standard orientation:
 ---------------------------------------------------------------------
 Center     Atomic      Atomic             Coordinates (Angstroms)
 Number     Number       Type             X           Y           Z
 ---------------------------------------------------------------------
      1          6           0        0.206225    1.276219    0.126103
      2          6           0       -1.121554    0.582254   -0.240598
      3          6           0       -0.921858   -0.858875    0.253603
      4          6           0        0.530259   -1.172290   -0.153298
      5          6           0        1.296866    0.169915    0.014103
      6          1           0        0.417202    2.141177   -0.510298
      7          1           0        0.153644    1.647574    1.156103
      8          1           0       -1.995938    1.075719    0.196403
      9          1           0       -1.260069    0.581018   -1.329798
     10          1           0       -1.024144   -0.892517    1.346403
     11          1           0       -1.646031   -1.566514   -0.163198
     12          1           0        0.553004   -1.488293   -1.202998
     13          1           0        0.969938   -1.985814    0.432203
     14          1           0        1.965984    0.347698   -0.833598
     15          1           0        1.926777    0.156620    0.909303
 ---------------------------------------------------------------------

 SCF Done:  E(RB3LYP) =  -196.571039146     A.U. after    1 cycles

 The electronic state is 1-A.
 Alpha  occ. eigenvalues --  -10.17328 -10.17314 -10.17312 -10.17295 -10.17285
 Alpha  occ. eigenvalues --   -0.82170  -0.69822  -0.69783  -0.56156  -0.55444
 Alpha  occ. eigenvalues --   -0.47120  -0.46801  -0.40620  -0.40502  -0.33092
 Alpha  occ. eigenvalues --   -0.33032  -0.32652  -0.32316  -0.31684  -0.30828
 Alpha virt. eigenvalues --    0.08543   0.10105   0.14729   0.14775   0.17220
 Alpha virt. eigenvalues --    0.17846   0.17924   0.18627   0.19137   0.19282
 Alpha virt. eigenvalues --    0.21651   0.25305   0.25903   0.30034   0.31298

 Mulliken charges:
               1
     1  C   -0.186240
     2  C   -0.184173
     3  C   -0.184178
     4  C   -0.185359
     5  C   -0.187512
     6  H    0.091048
     7  H    0.095948
     8  H    0.089184
     9  H    0.093247
    10  H    0.092895
    11  H    0.089282
    12  H    0.095461
    13  H    0.090215
    14  H    0.094730
    15  H    0.095451
 Sum of Mulliken charges =   0.00000

 Dipole moment (field-independent basis, Debye):
    X=              0.0047    Y=              0.0015    Z=              0.0004  Tot=              0.0049
 Quadrupole moment (field-independent basis, Debye-Ang):
   XX=            -33.4316   YY=            -33.4262   ZZ=            -32.4392
   XY=             -0.0008   XZ=             -0.0001   YZ=             -0.0098

  Exact polarizability:  52.574  -0.024  52.624   0.004   0.037  47.835
 Approx polarizability:  67.978  -0.029  68.040   0.009   0.084  70.079

                      1                      2                      3
                      A                      A                      A
 Frequencies --      7.2315               266.7638               551.4751
 Red. masses --      1.5588                 1.5952                 1.6983
 Frc consts  --      0.0000                 0.0669                 0.3043
 IR Inten    --      0.0014                 0.0025                 1.3174

                      4                      5                      6
                      A                      A                      A
 Frequencies --    618.3497               769.6567               824.6454
 Red. masses --      2.4667                 1.1707                 1.6441
 Frc consts  --      0.5557                 0.4086                 0.6587
 IR Inten    --      0.1821                 0.9255                 0.1942

                      7                      8                      9
                      A                      A                      A
 Frequencies --    872.1469               885.5592               904.3938
 Red. masses --      2.0563                 3.4502                 2.1537
 Frc consts  --      0.9215                 1.5942                 1.0379
 IR Inten    --      0.5273                 0.3783                 1.3309

                     10                     11                     12
                      A                      A                      A
 Frequencies --    911.4610               973.8778              1005.8327
 Red. masses --      2.3842                 1.2341                 1.2468
 Frc consts  --      1.1670                 0.6896                 0.7432
 IR Inten    --      1.3073                 0.9334                 0.4082

                     13                     14                     15
                      A                      A                      A
 Frequencies --   1041.4213              1054.4834              1185.7715
 Red. masses --      1.7169                 2.2777                 1.4413
 Frc consts  --      1.0971                 1.4922                 1.1940
 IR Inten    --      0.0006                 0.0163                 0.0106

                     16                     17                     18
                      A                      A                      A
 Frequencies --   1211.7830              1233.0544              1243.6114
 Red. masses --      1.4629                 1.3640                 1.4756
 Frc consts  --      1.2657                 1.2219                 1.3446
 IR Inten    --      0.3315                 0.4888                 0.3007

                     19                     20                     21
                      A                      A                      A
 Frequencies --   1287.7630              1311.4616              1330.6302
 Red. masses --      1.1247                 1.3430                 1.1913
 Frc consts  --      1.0989                 1.3610                 1.2428
 IR Inten    --      0.8256                 0.0046                 0.4765

                     22                     23                     24
                      A                      A                      A
 Frequencies --   1351.2128              1358.7020              1359.3370
 Red. masses --      1.2319                 1.4916                 1.4925
 Frc consts  --      1.3252                 1.6224                 1.6249
 IR Inten    --      0.0299                 0.7528                 0.7258

                     25                     26                     27
                      A                      A                      A
 Frequencies --   1499.5366              1506.1292              1511.0340
 Red. masses --      1.0778                 1.0876                 1.0918
 Frc consts  --      1.4279                 1.4536                 1.4688
 IR Inten    --      0.0557                 3.0692                 1.3253

                     28                     29                     30
                      A                      A                      A
 Frequencies --   1511.7052              1537.9527              3033.4653
 Red. masses --      1.0911                 1.1069                 1.0702
 Frc consts  --      1.4691                 1.5426                 5.8024
 IR Inten    --      1.7329                 0.0231                21.4911

                     31                     32                     33
                      A                      A                      A
 Frequencies --   3038.0696              3046.5237              3048.3142
 Red. masses --      1.0644                 1.0634                 1.0640
 Frc consts  --      5.7881                 5.8153                 5.8253
 IR Inten    --     38.5766                20.1817                32.8009

                     34                     35                     36
                      A                      A                      A
 Frequencies --   3063.6069              3083.5278              3091.9233
 Red. masses --      1.0645                 1.0989                 1.0924
 Frc consts  --      5.8867                 6.1558                 6.1528
 IR Inten    --     52.3324                35.1048                14.5279

                     37                     38                     39
                      A                      A                      A
 Frequencies --   3096.6284              3098.4412              3113.1678
 Red. masses --      1.1039                 1.1033                 1.1059
 Frc consts  --      6.2366                 6.2406                 6.3149
 IR Inten    --     28.6523                18.2133               106.8872

 - Thermochemistry -
 -------------------
 Temperature   298.150 Kelvin.  Pressure   1.00000 Atm.
 Atom     1 has atomic number  6 and mass  12.00000

 Molecular mass:    70.07825 amu.
 Principal axes and moments of inertia in atomic units:
                           1         2         3
     Eigenvalues --   279.26001 279.47506 484.41209
           X            0.99787  -0.06529   0.00010
           Y            0.06529   0.99787   0.00154
           Z           -0.00020  -0.00153   1.00000
 This molecule is an asymmetric top.
 Rotational symmetry number  1.
 Rotational temperatures (Kelvin)      0.31015     0.30992     0.17880
 Rotational constants (GHZ):           6.46258     6.45761     3.72563
 Zero-point vibrational energy     369889.2 (Joules/Mol)
                                   88.40565 (Kcal/Mol)
 Warning -- explicit consideration of   4 degrees of freedom as
           vibrations may cause significant error
 Vibrational temperatures:     10.40   383.81   793.45   889.67  1107.36
          (Kelvin)           1186.48  1254.82  1274.12  1301.22  1311.39
                             1401.19  1447.17  1498.37  1517.16  1706.06
                             1743.48  1774.09  1789.28  1852.80  1886.90
                             1914.48  1944.09  1954.87  1955.78  2157.50
                             2166.98  2174.04  2175.00  2212.77  4364.47
                             4371.10  4383.26  4385.84  4407.84  4436.50
                             4448.58  4455.35  4457.96  4479.15

 Zero-point correction=                           0.140883 (Hartree/Particle)
 Thermal correction to Energy=                    0.146110
 Thermal correction to Enthalpy=                  0.147054
 Thermal correction to Gibbs Free Energy=         0.110598
 Sum of electronic and zero-point Energies=           -196.430156
 Sum of electronic and thermal Energies=              -196.424929
 Sum of electronic and thermal Enthalpies=            -196.423985
 Sum of electronic and thermal Free Energies=         -196.460442

                     E (Thermal)             CV                S
                      KCal/Mol        Cal/Mol-Kelvin    Cal/Mol-Kelvin
 Total                   91.685             18.528             76.729
 Electronic               0.000              0.000              0.000
 Translational            0.889              2.981             38.658
 Rotational               0.889              2.981             25.139
 Vibrational             89.908             12.566             12.931
 Vibration     1          0.593              1.987              8.655
 Vibration     2          0.672              1.734              1.617
 Vibration     3          0.907              1.136              0.541
 Vibration     4          0.978              0.993              0.419

 Normal termination of Gaussian 09 at Thu Jul 22 22:26:52 2021.
