 Gaussian 09, Revision E.01,
 Gaussian 09:  ES64L-G09RevE.01 30-Nov-2015

 ----------------------------
 #P OPT Freq B3LYP/6-31G(d,p)
 ----------------------------

 --------
 Frag_992
 --------
 Symbolic Z-matrix:
 Charge =  0 Multiplicity = 1

 SCF Done:  E(RB3LYP) =  -364.155777589     A.U. after   13 cycles
 SCF Done:  E(RB3LYP) =  -364.155840700     A.U. after    9 cycles
 SCF Done:  E(RB3LYP) =  -364.155844286     A.U. after    8 cycles
 SCF Done:  E(RB3LYP) =  -364.155847549     A.U. after    7 cycles
 Optimization completed.
    -- Stationary point found.
 Normal termination of Gaussian 09 at Thu Sep  8 15:01:00 2022.

 ----------------------------------------------------------------------
 #P Geom=AllCheck Guess=TCheck SCRF=Check GenChk RB3LYP/6-31G(d,p) Freq
 ----------------------------------------------------------------------

 Structure from the checkpoint file:  "B3LYP6-31Gdp.Frag_992.chk"
 --------
 Frag_992
 --------
 Charge =  0 Multiplicity = 1

                         Standard orientation:
 ---------------------------------------------------------------------
 Center     Atomic      Atomic             Coordinates (Angstroms)
 Number     Number       Type             X           Y           Z
 ---------------------------------------------------------------------
      1          6           0        0.617491    0.000032    1.549925
      2          6           0        0.584926   -0.000000    0.007268
      3          6           0        1.271666    1.258315   -0.542360
      4          6           0        1.271637   -1.258355   -0.542305
      5          7           0       -0.808514    0.000001   -0.561713
      6          8           0       -1.524756    1.143779   -0.145038
      7          8           0       -1.524759   -1.143772   -0.145034
      8          1           0        1.656245    0.000034    1.890043
      9          1           0        0.147703    0.891321    1.982464
     10          1           0        0.147692   -0.891233    1.982502
     11          1           0        0.802518    2.167556   -0.161399
     12          1           0        2.328140    1.261115   -0.257276
     13          1           0        1.204627    1.274711   -1.633402
     14          1           0        2.328110   -1.261170   -0.257217
     15          1           0        1.204602   -1.274793   -1.633347
     16          1           0        0.802463   -2.167568   -0.161310
     17          1           0       -1.520344    1.159944    0.833173
     18          1           0       -1.520349   -1.159933    0.833176
 ---------------------------------------------------------------------

 SCF Done:  E(RB3LYP) =  -364.155847549     A.U. after    1 cycles

 The electronic state is 1-A.
 Alpha  occ. eigenvalues --  -19.18070 -19.18069 -14.42742 -10.23625 -10.19912
 Alpha  occ. eigenvalues --  -10.17846 -10.17845  -1.11466  -1.00552  -0.84268
 Alpha  occ. eigenvalues --   -0.73894  -0.70164  -0.69140  -0.58406  -0.54870
 Alpha  occ. eigenvalues --   -0.50242  -0.46803  -0.45656  -0.43911  -0.40702
 Alpha  occ. eigenvalues --   -0.39490  -0.38409  -0.37713  -0.37321  -0.34718
 Alpha  occ. eigenvalues --   -0.33987  -0.30993  -0.28945  -0.24708
 Alpha virt. eigenvalues --    0.04194   0.07580   0.09437   0.11185   0.13522
 Alpha virt. eigenvalues --    0.14224   0.14811   0.17107   0.17262   0.18523
 Alpha virt. eigenvalues --    0.19174   0.20723   0.21549   0.21869   0.24014

 Mulliken charges:
               1
     1  C   -0.354827
     2  C    0.135020
     3  C   -0.292749
     4  C   -0.292748
     5  N    0.042849
     6  O   -0.401825
     7  O   -0.401825
     8  H    0.128885
     9  H    0.099246
    10  H    0.099245
    11  H    0.113245
    12  H    0.098003
    13  H    0.124199
    14  H    0.098003
    15  H    0.124199
    16  H    0.113244
    17  H    0.283919
    18  H    0.283918
 Sum of Mulliken charges =  -0.00000

 Dipole moment (field-independent basis, Debye):
    X=              2.0071    Y=              0.0000    Z=              3.2850  Tot=              3.8497
 Quadrupole moment (field-independent basis, Debye-Ang):
   XX=            -46.0045   YY=            -45.3008   ZZ=            -42.4134
   XY=              0.0000   XZ=             -5.1063   YZ=              0.0000

  Exact polarizability:  60.195   0.000  60.685  -2.200   0.000  57.324
 Approx polarizability:  82.475   0.000  87.074  -0.971   0.000  83.158

                      1                      2                      3
                      A                      A                      A
 Frequencies --     91.3506               200.5133               242.3070
 Red. masses --      2.7742                 1.1616                 1.0598
 Frc consts  --      0.0136                 0.0275                 0.0367
 IR Inten    --      4.2968                 1.9183                 0.3727

                      4                      5                      6
                      A                      A                      A
 Frequencies --    245.8963               274.8258               307.9551
 Red. masses --      1.0415                 2.9166                 2.7855
 Frc consts  --      0.0371                 0.1298                 0.1556
 IR Inten    --      3.5100                 1.1106                 4.6024

                      7                      8                      9
                      A                      A                      A
 Frequencies --    316.2013               365.3788               369.0183
 Red. masses --      1.2446                 2.1555                 2.6867
 Frc consts  --      0.0733                 0.1695                 0.2156
 IR Inten    --     30.8045                 3.3911                 0.4228

                     10                     11                     12
                      A                      A                      A
 Frequencies --    393.7627               458.1211               510.7481
 Red. masses --      2.4720                 1.3503                 3.5581
 Frc consts  --      0.2258                 0.1670                 0.5469
 IR Inten    --     15.2742                74.2382                 0.0406

                     13                     14                     15
                      A                      A                      A
 Frequencies --    559.4744               592.1387               711.9107
 Red. masses --      2.1009                 3.6008                 5.1986
 Frc consts  --      0.3874                 0.7439                 1.5523
 IR Inten    --     94.8306                27.9950                 2.2403

                     16                     17                     18
                      A                      A                      A
 Frequencies --    812.5524               924.7902               931.5560
 Red. masses --      2.9353                 1.6395                 1.6456
 Frc consts  --      1.1418                 0.8261                 0.8414
 IR Inten    --     10.2581                 0.9948                15.4015

                     19                     20                     21
                      A                      A                      A
 Frequencies --    945.7007               966.2835              1017.7163
 Red. masses --      6.2185                 1.2392                 6.1623
 Frc consts  --      3.2768                 0.6817                 3.7605
 IR Inten    --     57.9936                 0.2040                35.7455

                     22                     23                     24
                      A                      A                      A
 Frequencies --   1040.1400              1054.2366              1244.4661
 Red. masses --      1.4658                 1.4629                 2.4292
 Frc consts  --      0.9344                 0.9580                 2.2166
 IR Inten    --      0.5198                 8.0126                17.2266

                     25                     26                     27
                      A                      A                      A
 Frequencies --   1262.0524              1275.0181              1335.7767
 Red. masses --      2.7142                 2.8173                 1.1258
 Frc consts  --      2.5471                 2.6984                 1.1835
 IR Inten    --     10.3302                 0.0503                39.8699

                     28                     29                     30
                      A                      A                      A
 Frequencies --   1401.7512              1412.1200              1437.3777
 Red. masses --      1.2580                 1.2719                 1.2295
 Frc consts  --      1.4564                 1.4943                 1.4967
 IR Inten    --     11.0520                10.4316                12.2069

                     31                     32                     33
                      A                      A                      A
 Frequencies --   1460.1081              1486.2209              1498.4319
 Red. masses --      1.2478                 1.0477                 1.0546
 Frc consts  --      1.5674                 1.3635                 1.3951
 IR Inten    --     45.8731                 0.0627                 5.3969

                     34                     35                     36
                      A                      A                      A
 Frequencies --   1504.9223              1507.5670              1524.8378
 Red. masses --      1.0443                 1.0576                 1.0521
 Frc consts  --      1.3934                 1.4162                 1.4413
 IR Inten    --      0.7464                 3.6360                 8.1156

                     37                     38                     39
                      A                      A                      A
 Frequencies --   1535.0100              3033.5553              3055.7650
 Red. masses --      1.0591                 1.0392                 1.0362
 Frc consts  --      1.4703                 5.6345                 5.7009
 IR Inten    --      8.9178                21.2790                12.1230

                     40                     41                     42
                      A                      A                      A
 Frequencies --   3061.7337              3095.6013              3125.6710
 Red. masses --      1.0368                 1.1020                 1.0973
 Frc consts  --      5.7264                 6.2220                 6.3161
 IR Inten    --     15.7928                29.2529                 5.1937

                     43                     44                     45
                      A                      A                      A
 Frequencies --   3129.6925              3136.4849              3148.4852
 Red. masses --      1.1022                 1.1013                 1.1026
 Frc consts  --      6.3611                 6.3831                 6.4397
 IR Inten    --      2.5645                40.2280                15.5047

                     46                     47                     48
                      A                      A                      A
 Frequencies --   3149.7638              3591.8373              3602.7517
 Red. masses --      1.1023                 1.0648                 1.0673
 Frc consts  --      6.4432                 8.0935                 8.1621
 IR Inten    --     20.6618                 7.3756                 2.5591

 - Thermochemistry -
 -------------------
 Temperature   298.150 Kelvin.  Pressure   1.00000 Atm.
 Atom     1 has atomic number  6 and mass  12.00000

 Molecular mass:   105.07898 amu.
 Principal axes and moments of inertia in atomic units:
                           1         2         3
     Eigenvalues --   568.88806 758.67489 904.82946
           X            0.99912   0.00000  -0.04185
           Y           -0.00000   1.00000   0.00000
           Z            0.04185  -0.00000   0.99912
 This molecule is an asymmetric top.
 Rotational symmetry number  1.
 Warning -- assumption of classical behavior for rotation
           may cause significant error
 Rotational temperatures (Kelvin)      0.15225     0.11416     0.09572
 Rotational constants (GHZ):           3.17240     2.37881     1.99457
 Zero-point vibrational energy     408821.3 (Joules/Mol)
                                   97.71063 (Kcal/Mol)
 Warning -- explicit consideration of  14 degrees of freedom as
           vibrations may cause significant error
 Vibrational temperatures:    131.43   288.49   348.63   353.79   395.41
          (Kelvin)            443.08   454.94   525.70   530.93   566.54
                              659.13   734.85   804.96   851.95  1024.28
                             1169.08  1330.57  1340.30  1360.65  1390.26
                             1464.26  1496.53  1516.81  1790.51  1815.81
                             1834.46  1921.88  2016.80  2031.72  2068.06
                             2100.77  2138.34  2155.91  2165.24  2169.05
                             2193.90  2208.53  4364.60  4396.56  4405.15
                             4453.87  4497.14  4502.92  4512.70  4529.96
                             4531.80  5167.85  5183.55

 Zero-point correction=                           0.155712 (Hartree/Particle)
 Thermal correction to Energy=                    0.164498
 Thermal correction to Enthalpy=                  0.165442
 Thermal correction to Gibbs Free Energy=         0.123670
 Sum of electronic and zero-point Energies=           -364.000136
 Sum of electronic and thermal Energies=              -363.991350
 Sum of electronic and thermal Enthalpies=            -363.990406
 Sum of electronic and thermal Free Energies=         -364.032177

                     E (Thermal)             CV                S
                      KCal/Mol        Cal/Mol-Kelvin    Cal/Mol-Kelvin
 Total                  103.224             33.315             87.916
 Electronic               0.000              0.000              0.000
 Translational            0.889              2.981             39.866
 Rotational               0.889              2.981             27.459
 Vibrational            101.446             27.354             20.591
 Vibration     1          0.602              1.955              3.631
 Vibration     2          0.638              1.839              2.128
 Vibration     3          0.659              1.775              1.786
 Vibration     4          0.660              1.770              1.760
 Vibration     5          0.677              1.720              1.566
 Vibration     6          0.698              1.659              1.373
 Vibration     7          0.703              1.643              1.330
 Vibration     8          0.739              1.544              1.099
 Vibration     9          0.741              1.536              1.084
 Vibration    10          0.761              1.484              0.986
 Vibration    11          0.816              1.343              0.772
 Vibration    12          0.866              1.226              0.632
 Vibration    13          0.915              1.119              0.525
 Vibration    14          0.950              1.049              0.463

 Optimization completed.
    -- Stationary point found.
 Normal termination of Gaussian 09 at Thu Sep  8 15:01:18 2022.
