 Gaussian 09, Revision E.01,
 Gaussian 09:  ES64L-G09RevE.01 30-Nov-2015

 ----------------------------
 #P OPT Freq B3LYP/6-31G(d,p)
 ----------------------------

 --------
 Frag_672
 --------
 Symbolic Z-matrix:
 Charge =  0 Multiplicity = 1

 SCF Done:  E(RB3LYP) =  -324.484185357     A.U. after   12 cycles
 SCF Done:  E(RB3LYP) =  -324.484220286     A.U. after    9 cycles
 SCF Done:  E(RB3LYP) =  -324.484225732     A.U. after    8 cycles
 SCF Done:  E(RB3LYP) =  -324.484226044     A.U. after    8 cycles
 SCF Done:  E(RB3LYP) =  -324.484227394     A.U. after    7 cycles
 SCF Done:  E(RB3LYP) =  -324.484227510     A.U. after    6 cycles
 SCF Done:  E(RB3LYP) =  -324.484227554     A.U. after    6 cycles
 Optimization completed.
    -- Stationary point found.
 Normal termination of Gaussian 09 at Thu Sep  8 15:21:51 2022.

 ----------------------------------------------------------------------
 #P Geom=AllCheck Guess=TCheck SCRF=Check GenChk RB3LYP/6-31G(d,p) Freq
 ----------------------------------------------------------------------

 Structure from the checkpoint file:  "B3LYP6-31Gdp.Frag_672.chk"
 --------
 Frag_672
 --------
 Charge =  0 Multiplicity = 1

                         Standard orientation:
 ---------------------------------------------------------------------
 Center     Atomic      Atomic             Coordinates (Angstroms)
 Number     Number       Type             X           Y           Z
 ---------------------------------------------------------------------
      1          6           0       -1.612193    1.135251   -0.068010
      2          7           0       -0.799640   -0.013018   -0.472599
      3          7           0       -1.408692   -1.238436   -0.035153
      4          6           0        0.605086    0.006952    0.009771
      5          6           0        1.365164   -1.107082   -0.733199
      6          6           0        1.250325    1.361821   -0.312625
      7          7           0        0.624384   -0.173164    1.478186
      8          1           0       -1.223166    2.059581   -0.500799
      9          1           0       -2.623733    0.992066   -0.460678
     10          1           0       -1.668748    1.253825    1.026848
     11          1           0       -2.143345   -1.463621   -0.701254
     12          1           0       -1.859513   -1.094729    0.873995
     13          1           0        2.401372   -1.155300   -0.381013
     14          1           0        1.373111   -0.919966   -1.811632
     15          1           0        0.884167   -2.071169   -0.557471
     16          1           0        1.076144    1.629460   -1.358188
     17          1           0        2.332079    1.299557   -0.156387
     18          1           0        0.864656    2.156694    0.330205
     19          1           0        0.480644   -1.159815    1.683937
     20          1           0        1.543679    0.064095    1.843774
 ---------------------------------------------------------------------

 SCF Done:  E(RB3LYP) =  -324.484227554     A.U. after    1 cycles

 The electronic state is 1-A.
 Alpha  occ. eigenvalues --  -14.33667 -14.33273 -14.30228 -10.23475 -10.19126
 Alpha  occ. eigenvalues --  -10.17063 -10.15721  -0.96372  -0.86953  -0.77908
 Alpha  occ. eigenvalues --   -0.73030  -0.68146  -0.64726  -0.54277  -0.49598
 Alpha  occ. eigenvalues --   -0.47709  -0.46963  -0.44363  -0.43595  -0.40015
 Alpha  occ. eigenvalues --   -0.38929  -0.37755  -0.37369  -0.36106  -0.34484
 Alpha  occ. eigenvalues --   -0.32737  -0.24670  -0.23088  -0.21586
 Alpha virt. eigenvalues --    0.07356   0.10585   0.12975   0.13482   0.14893
 Alpha virt. eigenvalues --    0.15453   0.16135   0.16429   0.17918   0.19428
 Alpha virt. eigenvalues --    0.19559   0.20350   0.20861   0.21483   0.23652

 Mulliken charges:
               1
     1  C   -0.159961
     2  N   -0.324398
     3  N   -0.465851
     4  C    0.296079
     5  C   -0.296258
     6  C   -0.333064
     7  N   -0.600627
     8  H    0.107064
     9  H    0.091269
    10  H    0.101959
    11  H    0.253287
    12  H    0.231033
    13  H    0.078898
    14  H    0.100292
    15  H    0.121117
    16  H    0.116995
    17  H    0.096681
    18  H    0.113979
    19  H    0.240698
    20  H    0.230807
 Sum of Mulliken charges =  -0.00000

 Dipole moment (field-independent basis, Debye):
    X=             -0.1627    Y=              0.1244    Z=              0.4256  Tot=              0.4723
 Quadrupole moment (field-independent basis, Debye-Ang):
   XX=            -39.2043   YY=            -45.5198   ZZ=            -46.6911
   XY=              1.2369   XZ=              1.5755   YZ=             -1.8171

  Exact polarizability:  71.179   1.738  65.681   0.403  -0.741  60.052
 Approx polarizability:  91.240   4.438  89.200   1.382  -1.481  87.873

                      1                      2                      3
                      A                      A                      A
 Frequencies --    110.4629               211.7902               237.9579
 Red. masses --      2.9425                 1.2615                 1.0881
 Frc consts  --      0.0212                 0.0333                 0.0363
 IR Inten    --      1.2440                54.4898                21.1025

                      4                      5                      6
                      A                      A                      A
 Frequencies --    255.4874               274.0721               298.6480
 Red. masses --      1.1363                 1.6389                 1.5167
 Frc consts  --      0.0437                 0.0725                 0.0797
 IR Inten    --      3.3075                 2.3344                 1.7831

                      7                      8                      9
                      A                      A                      A
 Frequencies --    321.4308               371.4917               388.1894
 Red. masses --      1.6319                 1.9769                 2.3438
 Frc consts  --      0.0993                 0.1607                 0.2081
 IR Inten    --      3.9448                 1.9467                 2.6753

                     10                     11                     12
                      A                      A                      A
 Frequencies --    401.3765               411.2787               484.3498
 Red. masses --      1.3961                 1.9861                 2.2292
 Frc consts  --      0.1325                 0.1979                 0.3081
 IR Inten    --      6.6838                 2.8169                 2.8979

                     13                     14                     15
                      A                      A                      A
 Frequencies --    519.5922               576.7761               712.1049
 Red. masses --      3.0826                 3.1182                 3.7865
 Frc consts  --      0.4903                 0.6112                 1.1313
 IR Inten    --      6.0498                 4.5911                 4.4358

                     16                     17                     18
                      A                      A                      A
 Frequencies --    821.0221               897.9173               932.0585
 Red. masses --      2.8190                 2.1838                 1.4013
 Frc consts  --      1.1196                 1.0374                 0.7172
 IR Inten    --     73.8016                61.0196                60.9999

                     19                     20                     21
                      A                      A                      A
 Frequencies --    940.4888               960.1602              1020.1513
 Red. masses --      1.4498                 1.7946                 1.3711
 Frc consts  --      0.7555                 0.9748                 0.8407
 IR Inten    --     29.8154                 0.7283                13.1027

                     22                     23                     24
                      A                      A                      A
 Frequencies --   1055.3608              1087.8843              1127.2614
 Red. masses --      1.4413                 1.4094                 2.1799
 Frc consts  --      0.9458                 0.9827                 1.6320
 IR Inten    --     26.6729                12.2598                 9.6509

                     25                     26                     27
                      A                      A                      A
 Frequencies --   1154.1252              1226.5421              1238.2501
 Red. masses --      1.7172                 2.4484                 2.1683
 Frc consts  --      1.3476                 2.1702                 1.9588
 IR Inten    --      2.6877                34.3042                47.0677

                     28                     29                     30
                      A                      A                      A
 Frequencies --   1279.1595              1318.2749              1353.6937
 Red. masses --      2.7659                 1.2871                 1.7733
 Frc consts  --      2.6665                 1.3178                 1.9146
 IR Inten    --     22.8795                11.2764                 7.1511

                     31                     32                     33
                      A                      A                      A
 Frequencies --   1404.6378              1424.8263              1452.4194
 Red. masses --      1.3441                 1.2924                 1.1817
 Frc consts  --      1.5625                 1.5459                 1.4688
 IR Inten    --     13.8574                14.3425                 2.2792

                     34                     35                     36
                      A                      A                      A
 Frequencies --   1492.5563              1496.0088              1508.1073
 Red. masses --      1.0639                 1.0471                 1.0498
 Frc consts  --      1.3964                 1.3807                 1.4067
 IR Inten    --      1.1644                 5.6669                 4.2194

                     37                     38                     39
                      A                      A                      A
 Frequencies --   1515.2978              1524.1448              1535.5666
 Red. masses --      1.0505                 1.0495                 1.0549
 Frc consts  --      1.4211                 1.4364                 1.4656
 IR Inten    --      0.5444                 4.9236                 1.2977

                     40                     41                     42
                      A                      A                      A
 Frequencies --   1646.3632              1672.1037              2983.7683
 Red. masses --      1.0933                 1.0850                 1.0516
 Frc consts  --      1.7459                 1.7874                 5.5162
 IR Inten    --     35.2100                15.9057                50.5477

                     43                     44                     45
                      A                      A                      A
 Frequencies --   3045.2168              3055.6312              3085.1755
 Red. masses --      1.0371                 1.0367                 1.0850
 Frc consts  --      5.6665                 5.7031                 6.0849
 IR Inten    --     21.6233                19.5813                36.3250

                     46                     47                     48
                      A                      A                      A
 Frequencies --   3114.0029              3122.0026              3130.8686
 Red. masses --      1.1021                 1.1015                 1.0992
 Frc consts  --      6.2967                 6.3257                 6.3485
 IR Inten    --     15.8603                46.2273                26.7040

                     49                     50                     51
                      A                      A                      A
 Frequencies --   3144.5554              3148.9148              3387.9113
 Red. masses --      1.1032                 1.1005                 1.0557
 Frc consts  --      6.4272                 6.4292                 7.1392
 IR Inten    --     20.8421                14.8605                14.4482

                     52                     53                     54
                      A                      A                      A
 Frequencies --   3487.0588              3540.5906              3572.6490
 Red. masses --      1.0493                 1.0855                 1.0923
 Frc consts  --      7.5174                 8.0174                 8.2145
 IR Inten    --      0.9303                 0.0487                 0.4603

 - Thermochemistry -
 -------------------
 Temperature   298.150 Kelvin.  Pressure   1.00000 Atm.
 Atom     1 has atomic number  6 and mass  12.00000

 Molecular mass:   103.11095 amu.
 Principal axes and moments of inertia in atomic units:
                           1         2         3
     Eigenvalues --   562.96530 761.00084 922.38668
           X            0.99937  -0.03075  -0.01763
           Y            0.03061   0.99950  -0.00835
           Z            0.01788   0.00781   0.99981
 This molecule is an asymmetric top.
 Rotational symmetry number  1.
 Warning -- assumption of classical behavior for rotation
           may cause significant error
 Rotational temperatures (Kelvin)      0.15385     0.11382     0.09390
 Rotational constants (GHZ):           3.20578     2.37154     1.95660
 Zero-point vibrational energy     481363.8 (Joules/Mol)
                                  115.04870 (Kcal/Mol)
 Warning -- explicit consideration of  14 degrees of freedom as
           vibrations may cause significant error
 Vibrational temperatures:    158.93   304.72   342.37   367.59   394.33
          (Kelvin)            429.69   462.47   534.49   558.52   577.49
                              591.74   696.87   747.58   829.85  1024.56
                             1181.27  1291.90  1341.02  1353.15  1381.45
                             1467.77  1518.43  1565.22  1621.88  1660.53
                             1764.72  1781.56  1840.42  1896.70  1947.66
                             2020.96  2050.00  2089.70  2147.45  2152.42
                             2169.83  2180.17  2192.90  2209.34  2368.75
                             2405.78  4292.97  4381.38  4396.37  4438.87
                             4480.35  4491.86  4504.62  4524.31  4530.58
                             4874.44  5017.09  5094.11  5140.24

 Zero-point correction=                           0.183342 (Hartree/Particle)
 Thermal correction to Energy=                    0.192187
 Thermal correction to Enthalpy=                  0.193131
 Thermal correction to Gibbs Free Energy=         0.151451
 Sum of electronic and zero-point Energies=           -324.300886
 Sum of electronic and thermal Energies=              -324.292041
 Sum of electronic and thermal Enthalpies=            -324.291096
 Sum of electronic and thermal Free Energies=         -324.332776

                     E (Thermal)             CV                S
                      KCal/Mol        Cal/Mol-Kelvin    Cal/Mol-Kelvin
 Total                  120.599             34.116             87.723
 Electronic               0.000              0.000              0.000
 Translational            0.889              2.981             39.809
 Rotational               0.889              2.981             27.471
 Vibrational            118.822             28.155             20.442
 Vibration     1          0.606              1.941              3.261
 Vibration     2          0.643              1.823              2.028
 Vibration     3          0.656              1.783              1.818
 Vibration     4          0.666              1.754              1.692
 Vibration     5          0.676              1.721              1.570
 Vibration     6          0.692              1.676              1.424
 Vibration     7          0.707              1.632              1.303
 Vibration     8          0.743              1.531              1.074
 Vibration     9          0.756              1.495              1.007
 Vibration    10          0.767              1.467              0.958
 Vibration    11          0.775              1.446              0.922
 Vibration    12          0.840              1.285              0.698
 Vibration    13          0.875              1.207              0.611
 Vibration    14          0.933              1.081              0.491

 Optimization completed.
    -- Stationary point found.
 Normal termination of Gaussian 09 at Thu Sep  8 15:22:11 2022.
