 Gaussian 09, Revision E.01,
 Gaussian 09:  ES64L-G09RevE.01 30-Nov-2015

 ----------------------------
 #P OPT Freq B3LYP/6-31G(d,p)
 ----------------------------

 --------
 Frag_698
 --------
 Symbolic Z-matrix:
 Charge =  0 Multiplicity = 1

 SCF Done:  E(RB3LYP) =  -245.824216286     A.U. after   13 cycles
 SCF Done:  E(RB3LYP) =  -245.824245796     A.U. after   10 cycles
 SCF Done:  E(RB3LYP) =  -245.824250225     A.U. after    8 cycles
 SCF Done:  E(RB3LYP) =  -245.824250607     A.U. after    7 cycles
 SCF Done:  E(RB3LYP) =  -245.824250657     A.U. after    7 cycles
 Optimization completed.
    -- Stationary point found.
 Normal termination of Gaussian 09 at Thu Sep  8 15:14:35 2022.

 ----------------------------------------------------------------------
 #P Geom=AllCheck Guess=TCheck SCRF=Check GenChk RB3LYP/6-31G(d,p) Freq
 ----------------------------------------------------------------------

 Structure from the checkpoint file:  "B3LYP6-31Gdp.Frag_698.chk"
 --------
 Frag_698
 --------
 Charge =  0 Multiplicity = 1

                         Standard orientation:
 ---------------------------------------------------------------------
 Center     Atomic      Atomic             Coordinates (Angstroms)
 Number     Number       Type             X           Y           Z
 ---------------------------------------------------------------------
      1          6           0        1.729231   -0.031587   -0.510303
      2          6           0        0.832718    0.041569    0.731876
      3          7           0       -0.623458   -0.007577    0.508803
      4          7           0       -0.995838    1.121065   -0.379938
      5          7           0       -0.945921   -1.220401   -0.160826
      6          1           0        1.603284   -0.988229   -1.025620
      7          1           0        1.504371    0.771918   -1.216275
      8          1           0        2.780472    0.051179   -0.215817
      9          1           0        1.050784   -0.792442    1.403985
     10          1           0        1.032112    0.966303    1.289111
     11          1           0       -0.626716    1.954984    0.084491
     12          1           0       -2.006245    1.206584   -0.246496
     13          1           0       -0.815368   -1.092476   -1.169794
     14          1           0       -1.937875   -1.389314   -0.009294
 ---------------------------------------------------------------------

 SCF Done:  E(RB3LYP) =  -245.824250657     A.U. after    1 cycles

 The electronic state is 1-A.
 Alpha  occ. eigenvalues --  -14.36793 -14.33943 -14.33402 -10.20174 -10.16680
 Alpha  occ. eigenvalues --   -0.98971  -0.84667  -0.77333  -0.68706  -0.58738
 Alpha  occ. eigenvalues --   -0.50715  -0.48569  -0.47508  -0.41641  -0.40959
 Alpha  occ. eigenvalues --   -0.39766  -0.35246  -0.34143  -0.30976  -0.25193
 Alpha  occ. eigenvalues --   -0.19745
 Alpha virt. eigenvalues --    0.06928   0.10911   0.12751   0.14003   0.14922
 Alpha virt. eigenvalues --    0.16148   0.16868   0.18146   0.19576   0.20720
 Alpha virt. eigenvalues --    0.23237   0.24407   0.27477   0.52879   0.54056

 Mulliken charges:
               1
     1  C   -0.334141
     2  C   -0.016922
     3  N   -0.253754
     4  N   -0.464397
     5  N   -0.435358
     6  H    0.115888
     7  H    0.119643
     8  H    0.099322
     9  H    0.119154
    10  H    0.086943
    11  H    0.241177
    12  H    0.241948
    13  H    0.231507
    14  H    0.248991
 Sum of Mulliken charges =  -0.00000

 Dipole moment (field-independent basis, Debye):
    X=             -0.7299    Y=              1.1513    Z=             -0.1421  Tot=              1.3706
 Quadrupole moment (field-independent basis, Debye-Ang):
   XX=            -27.4040   YY=            -31.5973   ZZ=            -34.0923
   XY=              0.0735   XZ=              1.4478   YZ=              2.4817

  Exact polarizability:  50.109   0.643  47.036   2.111   1.736  38.521
 Approx polarizability:  62.403   1.420  66.160   3.080   2.045  53.901

                      1                      2                      3
                      A                      A                      A
 Frequencies --    129.7197               180.0242               230.8919
 Red. masses --      1.6595                 1.2544                 1.1850
 Frc consts  --      0.0165                 0.0240                 0.0372
 IR Inten    --      7.8916                36.2250                 2.9809

                      4                      5                      6
                      A                      A                      A
 Frequencies --    281.8108               382.8604               446.3992
 Red. masses --      2.4597                 1.1902                 2.1753
 Frc consts  --      0.1151                 0.1028                 0.2554
 IR Inten    --      3.1936                43.6588                 2.5104

                      7                      8                      9
                      A                      A                      A
 Frequencies --    480.5931               573.4901               775.5551
 Red. masses --      2.5377                 2.7337                 3.5412
 Frc consts  --      0.3453                 0.5297                 1.2550
 IR Inten    --     39.4987                10.1551                 4.7101

                     10                     11                     12
                      A                      A                      A
 Frequencies --    799.1033               896.0575               927.8341
 Red. masses --      1.2929                 2.2711                 2.9209
 Frc consts  --      0.4864                 1.0744                 1.4815
 IR Inten    --      1.4164                23.6371                86.0592

                     13                     14                     15
                      A                      A                      A
 Frequencies --   1018.9917              1090.9282              1114.7001
 Red. masses --      2.2706                 1.7218                 1.3089
 Frc consts  --      1.3891                 1.2073                 0.9582
 IR Inten    --     29.4842                 9.6781                45.6019

                     16                     17                     18
                      A                      A                      A
 Frequencies --   1167.3705              1185.4486              1317.6530
 Red. masses --      1.5243                 1.9139                 1.2293
 Frc consts  --      1.2239                 1.5847                 1.2575
 IR Inten    --     36.6421                 3.8766                 1.9600

                     19                     20                     21
                      A                      A                      A
 Frequencies --   1339.2685              1380.7271              1399.0286
 Red. masses --      1.1998                 1.2752                 1.5010
 Frc consts  --      1.2679                 1.4323                 1.7309
 IR Inten    --      1.6712                 5.1059                 4.9359

                     22                     23                     24
                      A                      A                      A
 Frequencies --   1415.7205              1492.2481              1505.0284
 Red. masses --      1.2757                 1.0841                 1.0417
 Frc consts  --      1.5065                 1.4224                 1.3902
 IR Inten    --     18.7842                 1.8197                 3.8435

                     25                     26                     27
                      A                      A                      A
 Frequencies --   1526.6494              1653.6918              1683.0128
 Red. masses --      1.0548                 1.0707                 1.0794
 Frc consts  --      1.4485                 1.7252                 1.8015
 IR Inten    --      3.2109                31.2225                16.7967

                     28                     29                     30
                      A                      A                      A
 Frequencies --   3039.1594              3054.8859              3110.1692
 Red. masses --      1.0687                 1.0360                 1.0968
 Frc consts  --      5.8159                 5.6967                 6.2511
 IR Inten    --     41.6937                18.2630                 8.5624

                     31                     32                     33
                      A                      A                      A
 Frequencies --   3122.7128              3142.0651              3389.0858
 Red. masses --      1.1010                 1.1028                 1.0544
 Frc consts  --      6.3257                 6.4148                 7.1357
 IR Inten    --     29.9142                30.5248                11.7068

                     34                     35                     36
                      A                      A                      A
 Frequencies --   3415.6435              3500.1246              3532.0299
 Red. masses --      1.0503                 1.0915                 1.0861
 Frc consts  --      7.2197                 7.8781                 7.9828
 IR Inten    --      6.0788                 1.7387                 0.4919

 - Thermochemistry -
 -------------------
 Temperature   298.150 Kelvin.  Pressure   1.00000 Atm.
 Atom     1 has atomic number  6 and mass  12.00000

 Molecular mass:    75.07965 amu.
 Principal axes and moments of inertia in atomic units:
                           1         2         3
     Eigenvalues --   261.98152 438.94841 535.33285
           X            0.99999  -0.00322   0.00128
           Y            0.00315   0.99877   0.04953
           Z           -0.00144  -0.04953   0.99877
 This molecule is an asymmetric top.
 Rotational symmetry number  1.
 Rotational temperatures (Kelvin)      0.33061     0.19732     0.16179
 Rotational constants (GHZ):           6.88881     4.11151     3.37125
 Zero-point vibrational energy     333164.1 (Joules/Mol)
                                   79.62812 (Kcal/Mol)
 Warning -- explicit consideration of   8 degrees of freedom as
           vibrations may cause significant error
 Vibrational temperatures:    186.64   259.01   332.20   405.46   550.85
          (Kelvin)            642.27   691.47   825.12  1115.85  1149.73
                             1289.23  1334.94  1466.10  1569.60  1603.80
                             1679.58  1705.59  1895.81  1926.91  1986.56
                             2012.89  2036.90  2147.01  2165.40  2196.51
                             2379.29  2421.48  4372.67  4395.29  4474.83
                             4492.88  4520.73  4876.13  4914.34  5035.89
                             5081.80

 Zero-point correction=                           0.126895 (Hartree/Particle)
 Thermal correction to Energy=                    0.133415
 Thermal correction to Enthalpy=                  0.134359
 Thermal correction to Gibbs Free Energy=         0.097605
 Sum of electronic and zero-point Energies=           -245.697355
 Sum of electronic and thermal Energies=              -245.690836
 Sum of electronic and thermal Enthalpies=            -245.689892
 Sum of electronic and thermal Free Energies=         -245.726645

                     E (Thermal)             CV                S
                      KCal/Mol        Cal/Mol-Kelvin    Cal/Mol-Kelvin
 Total                   83.719             23.068             77.354
 Electronic               0.000              0.000              0.000
 Translational            0.889              2.981             38.864
 Rotational               0.889              2.981             25.624
 Vibrational             81.941             17.106             12.867
 Vibration     1          0.612              1.924              2.950
 Vibration     2          0.629              1.867              2.328
 Vibration     3          0.653              1.794              1.872
 Vibration     4          0.681              1.707              1.523
 Vibration     5          0.752              1.507              1.028
 Vibration     6          0.806              1.369              0.807
 Vibration     7          0.837              1.293              0.708
 Vibration     8          0.930              1.089              0.498

 Optimization completed.
    -- Stationary point found.
 Normal termination of Gaussian 09 at Thu Sep  8 15:14:45 2022.
