 Gaussian 09, Revision D.01,
 Gaussian 09:  ES64L-G09RevD.01 24-Apr-2013

 -------------------------
 #P OPT Freq B3LYP/6-31G**
 -------------------------

 -------
 Frag_34
 -------
 Symbolic Z-matrix:
 Charge =  0 Multiplicity = 1

 SCF Done:  E(RB3LYP) =  -210.341196061     A.U. after   12 cycles
 Optimization completed.
    -- Stationary point found.
 Normal termination of Gaussian 09 at Thu Jul 22 20:15:38 2021.

 ----------------------------------------------------------------------
 #P Geom=AllCheck Guess=TCheck SCRF=Check GenChk RB3LYP/6-31G(d,p) Freq
 ----------------------------------------------------------------------

 Structure from the checkpoint file:  "/vol2/users/liuj201281/HOFBenchmark/IsodesmicSplit/Sample60/Ring26/Running/Gau-250582.chk"
 -------
 Frag_34
 -------
 Charge =  0 Multiplicity = 1

                         Standard orientation:
 ---------------------------------------------------------------------
 Center     Atomic      Atomic             Coordinates (Angstroms)
 Number     Number       Type             X           Y           Z
 ---------------------------------------------------------------------
      1          6           0       -1.516899    0.502896   -0.086809
      2          6           0       -0.555801   -0.626505    0.273791
      3          8           0        0.697499   -0.561107   -0.409409
      4          7           0        1.548501    0.484692    0.051591
      5          1           0       -1.690399    0.527096   -1.166409
      6          1           0       -1.134998    1.481696    0.222791
      7          1           0       -2.478500    0.357497    0.415991
      8          1           0       -0.974902   -1.592305   -0.027809
      9          1           0       -0.386201   -0.662005    1.363291
     10          1           0        1.044302    1.365593   -0.081509
     11          1           0        1.637400    0.360092    1.065891
 ---------------------------------------------------------------------

 SCF Done:  E(RB3LYP) =  -210.341196061     A.U. after    1 cycles

 The electronic state is 1-A.
 Alpha  occ. eigenvalues --  -19.16977 -14.36684 -10.23566 -10.18659  -1.05803
 Alpha  occ. eigenvalues --   -0.81738  -0.74136  -0.61988  -0.51041  -0.49010
 Alpha  occ. eigenvalues --   -0.47148  -0.42240  -0.38733  -0.38187  -0.33417
 Alpha  occ. eigenvalues --   -0.26596  -0.25266
 Alpha virt. eigenvalues --    0.06531   0.09724   0.11797   0.13143   0.14901
 Alpha virt. eigenvalues --    0.16183   0.17531   0.20246   0.23256   0.24912
 Alpha virt. eigenvalues --    0.50839   0.53521   0.55593   0.56560   0.63550

 Mulliken charges:
               1
     1  C   -0.334104
     2  C    0.057208
     3  O   -0.392605
     4  N   -0.334962
     5  H    0.126693
     6  H    0.096451
     7  H    0.109728
     8  H    0.112818
     9  H    0.076877
    10  H    0.243681
    11  H    0.238213
 Sum of Mulliken charges =   0.00000

 Dipole moment (field-independent basis, Debye):
    X=             -2.0214    Y=              1.0805    Z=              1.8711  Tot=              2.9588
 Quadrupole moment (field-independent basis, Debye-Ang):
   XX=            -28.6741   YY=            -24.3114   ZZ=            -25.1230
   XY=              1.6305   XZ=              2.8414   YZ=             -0.1817

  Exact polarizability:  38.194   2.837  34.103   1.694  -0.011  31.339
 Approx polarizability:  47.741   4.322  46.729   1.107   1.805  44.112

                      1                      2                      3
                      A                      A                      A
 Frequencies --    137.4687               236.4094               292.0097
 Red. masses --      1.6985                 1.0985                 1.4945
 Frc consts  --      0.0189                 0.0362                 0.0751
 IR Inten    --     17.8275                10.7713                29.0991

                      4                      5                      6
                      A                      A                      A
 Frequencies --    394.8984               497.7650               799.4336
 Red. masses --      2.3127                 2.3982                 1.1825
 Frc consts  --      0.2125                 0.3501                 0.4453
 IR Inten    --      0.3888                 7.4289                 2.7187

                      7                      8                      9
                      A                      A                      A
 Frequencies --    846.0692               939.1604              1055.3309
 Red. masses --      2.7867                 3.1242                 3.5767
 Frc consts  --      1.1753                 1.6236                 2.3470
 IR Inten    --     22.1095                10.0772                10.9430

                     10                     11                     12
                      A                      A                      A
 Frequencies --   1107.4601              1162.1605              1215.7317
 Red. masses --      1.8722                 1.4757                 1.7587
 Frc consts  --      1.3529                 1.1743                 1.5315
 IR Inten    --      5.1542                85.6899                43.6481

                     13                     14                     15
                      A                      A                      A
 Frequencies --   1316.3842              1342.3759              1395.8501
 Red. masses --      1.1148                 1.1380                 1.2408
 Frc consts  --      1.1382                 1.2082                 1.4244
 IR Inten    --      4.6554                 5.3097                14.7681

                     16                     17                     18
                      A                      A                      A
 Frequencies --   1424.2448              1494.3037              1504.7988
 Red. masses --      1.2879                 1.0775                 1.0425
 Frc consts  --      1.5392                 1.4176                 1.3909
 IR Inten    --     24.4324                 1.2583                 5.6169

                     19                     20                     21
                      A                      A                      A
 Frequencies --   1518.4160              1657.0818              2978.5143
 Red. masses --      1.0620                 1.0701                 1.0709
 Frc consts  --      1.4426                 1.7313                 5.5976
 IR Inten    --      1.3147                18.8407                64.0502

                     22                     23                     24
                      A                      A                      A
 Frequencies --   3046.8852              3086.7319              3114.7070
 Red. masses --      1.0365                 1.0933                 1.1001
 Frc consts  --      5.6695                 6.1374                 6.2883
 IR Inten    --     13.1384                12.8180                41.8422

                     25                     26                     27
                      A                      A                      A
 Frequencies --   3132.9379              3367.2409              3474.0892
 Red. masses --      1.1034                 1.0455                 1.0958
 Frc consts  --      6.3812                 6.9843                 7.7919
 IR Inten    --     25.4679                10.9296                 7.3839

 - Thermochemistry -
 -------------------
 Temperature   298.150 Kelvin.  Pressure   1.00000 Atm.
 Atom     1 has atomic number  6 and mass  12.00000

 Molecular mass:    61.05276 amu.
 Principal axes and moments of inertia in atomic units:
                           1         2         3
     Eigenvalues --   113.86143 342.64736 397.85250
           X            0.99976   0.00488   0.02144
           Y           -0.00397   0.99909  -0.04252
           Z           -0.02163   0.04242   0.99887
 This molecule is an asymmetric top.
 Rotational symmetry number  1.
 Rotational temperatures (Kelvin)      0.76069     0.25278     0.21770
 Rotational constants (GHZ):          15.85033     5.26705     4.53621
 Zero-point vibrational energy     254436.5 (Joules/Mol)
                                   60.81178 (Kcal/Mol)
 Warning -- explicit consideration of   5 degrees of freedom as
           vibrations may cause significant error
 Vibrational temperatures:    197.79   340.14   420.14   568.17   716.17
          (Kelvin)           1150.21  1217.30  1351.24  1518.38  1593.39
                             1672.09  1749.16  1893.98  1931.38  2008.31
                             2049.17  2149.97  2165.07  2184.66  2384.17
                             4285.41  4383.78  4441.11  4481.36  4507.59
                             4844.70  4998.43

 Zero-point correction=                           0.096910 (Hartree/Particle)
 Thermal correction to Energy=                    0.102215
 Thermal correction to Enthalpy=                  0.103160
 Thermal correction to Gibbs Free Energy=         0.069366
 Sum of electronic and zero-point Energies=           -210.244286
 Sum of electronic and thermal Energies=              -210.238981
 Sum of electronic and thermal Enthalpies=            -210.238036
 Sum of electronic and thermal Free Energies=         -210.271830

                     E (Thermal)             CV                S
                      KCal/Mol        Cal/Mol-Kelvin    Cal/Mol-Kelvin
 Total                   64.141             17.523             71.124
 Electronic               0.000              0.000              0.000
 Translational            0.889              2.981             38.247
 Rotational               0.889              2.981             24.255
 Vibrational             62.364             11.561              8.622
 Vibration     1          0.614              1.916              2.839
 Vibration     2          0.655              1.785              1.830
 Vibration     3          0.687              1.689              1.462
 Vibration     4          0.762              1.481              0.982
 Vibration     5          0.853              1.255              0.664

 Optimization completed.
    -- Stationary point found.
 Normal termination of Gaussian 09 at Thu Jul 22 20:15:49 2021.
