 Gaussian 09, Revision E.01,
 Gaussian 09:  ES64L-G09RevE.01 30-Nov-2015

 ----------------------------
 #P OPT Freq B3LYP/6-31G(d,p)
 ----------------------------

 ---------
 Frag_1067
 ---------
 Symbolic Z-matrix:
 Charge =  0 Multiplicity = 1

 SCF Done:  E(RB3LYP) =  -263.241200545     A.U. after   17 cycles
 SCF Done:  E(RB3LYP) =  -263.241320744     A.U. after   12 cycles
 SCF Done:  E(RB3LYP) =  -263.241327839     A.U. after   10 cycles
 SCF Done:  E(RB3LYP) =  -263.241329921     A.U. after   10 cycles
 SCF Done:  E(RB3LYP) =  -263.241330555     A.U. after   10 cycles
 Optimization completed.
    -- Stationary point found.
 Normal termination of Gaussian 09 at Thu Sep  8 14:46:23 2022.

 ----------------------------------------------------------------------
 #P Geom=AllCheck Guess=TCheck SCRF=Check GenChk RB3LYP/6-31G(d,p) Freq
 ----------------------------------------------------------------------

 Structure from the checkpoint file:  "B3LYP6-31Gdp.Frag_1067.chk"
 ---------
 Frag_1067
 ---------
 Charge =  0 Multiplicity = 1

                         Standard orientation:
 ---------------------------------------------------------------------
 Center     Atomic      Atomic             Coordinates (Angstroms)
 Number     Number       Type             X           Y           Z
 ---------------------------------------------------------------------
      1          6           0       -0.367922    1.443136    0.010187
      2          6           0       -0.431518    0.100597   -0.010435
      3          7           0       -1.546054   -0.716137   -0.085595
      4          7           0        0.772747   -0.733555    0.029193
      5          8           0        1.830026   -0.136477   -0.012999
      6          1           0        0.608436    1.910078    0.026856
      7          1           0       -1.252929    2.068221    0.006013
      8          1           0       -2.415605   -0.333920    0.255201
      9          1           0       -1.370326   -1.667115    0.212222
 ---------------------------------------------------------------------

 SCF Done:  E(RB3LYP) =  -263.241330555     A.U. after    1 cycles

 The electronic state is 1-A.
 Alpha  occ. eigenvalues --  -19.20691 -14.44881 -14.35488 -10.25631 -10.19141
 Alpha  occ. eigenvalues --   -1.15254  -0.93569  -0.77710  -0.70848  -0.56566
 Alpha  occ. eigenvalues --   -0.53574  -0.50737  -0.45746  -0.45504  -0.41936
 Alpha  occ. eigenvalues --   -0.40433  -0.35225  -0.22835  -0.22713
 Alpha virt. eigenvalues --   -0.10238   0.05676   0.08320   0.11911   0.14614
 Alpha virt. eigenvalues --    0.16447   0.24611   0.30159   0.30728   0.36113
 Alpha virt. eigenvalues --    0.53787   0.54437   0.56803   0.61040   0.63415

 Mulliken charges:
               1
     1  C   -0.260738
     2  C    0.405495
     3  N   -0.632591
     4  N   -0.017947
     5  O   -0.264215
     6  H    0.127976
     7  H    0.103078
     8  H    0.266998
     9  H    0.271944
 Sum of Mulliken charges =   0.00000

 Dipole moment (field-independent basis, Debye):
    X=             -2.9479    Y=              0.3107    Z=              0.9836  Tot=              3.1232
 Quadrupole moment (field-independent basis, Debye-Ang):
   XX=            -27.6662   YY=            -26.8618   ZZ=            -29.9474
   XY=              1.4973   XZ=             -2.1389   YZ=             -0.9015

  Exact polarizability:  47.686  -0.626  51.938  -0.468   0.107  16.946
 Approx polarizability:  76.637  -2.816  92.551  -0.412   1.651  24.661

                      1                      2                      3
                      A                      A                      A
 Frequencies --    120.0695               307.0665               344.8903
 Red. masses --      9.5123                 1.0586                 4.0920
 Frc consts  --      0.0808                 0.0588                 0.2868
 IR Inten    --      0.7865                20.8211                 1.2585

                      4                      5                      6
                      A                      A                      A
 Frequencies --    410.3858               495.3467               587.6728
 Red. masses --      2.4171                 2.0107                 1.8534
 Frc consts  --      0.2398                 0.2907                 0.3771
 IR Inten    --     11.0316                77.2809               200.9542

                      7                      8                      9
                      A                      A                      A
 Frequencies --    628.7877               695.2802               847.0736
 Red. masses --      3.4570                 1.1722                 6.9472
 Frc consts  --      0.8053                 0.3339                 2.9370
 IR Inten    --     15.0813                 2.1389                68.3642

                     10                     11                     12
                      A                      A                      A
 Frequencies --    854.0940               977.2665              1104.8206
 Red. masses --      1.3722                 1.7199                 1.5931
 Frc consts  --      0.5898                 0.9678                 1.1457
 IR Inten    --     57.2052                15.3182                 9.2129

                     13                     14                     15
                      A                      A                      A
 Frequencies --   1325.6494              1433.6195              1601.6427
 Red. masses --      2.3198                 1.2331                 3.8905
 Frc consts  --      2.4019                 1.4932                 5.8802
 IR Inten    --     59.4456                 8.9068               117.4062

                     16                     17                     18
                      A                      A                      A
 Frequencies --   1644.2818              1738.7207              3185.8536
 Red. masses --      1.4112                 7.2183                 1.0576
 Frc consts  --      2.2480                12.8571                 6.3244
 IR Inten    --    135.0086                67.2369                 9.0468

                     19                     20                     21
                      A                      A                      A
 Frequencies --   3284.9367              3572.5567              3692.7140
 Red. masses --      1.1178                 1.0477                 1.0989
 Frc consts  --      7.1069                 7.8784                 8.8286
 IR Inten    --      0.4887                26.9926                26.7870

 - Thermochemistry -
 -------------------
 Temperature   298.150 Kelvin.  Pressure   1.00000 Atm.
 Atom     1 has atomic number  6 and mass  12.00000

 Molecular mass:    72.03236 amu.
 Principal axes and moments of inertia in atomic units:
                           1         2         3
     Eigenvalues --   182.67980 389.19644 570.32222
           X            0.99962   0.02629  -0.00860
           Y           -0.02635   0.99963  -0.00733
           Z            0.00841   0.00755   0.99994
 This molecule is an asymmetric top.
 Rotational symmetry number  1.
 Rotational temperatures (Kelvin)      0.47413     0.22255     0.15187
 Rotational constants (GHZ):           9.87926     4.63710     3.16442
 Zero-point vibrational energy     172577.6 (Joules/Mol)
                                   41.24705 (Kcal/Mol)
 Warning -- explicit consideration of   6 degrees of freedom as
           vibrations may cause significant error
 Vibrational temperatures:    172.75   441.80   496.22   590.45   712.69
          (Kelvin)            845.53   904.68  1000.35  1218.75  1228.85
                             1406.07  1589.59  1907.31  2062.66  2304.40
                             2365.75  2501.63  4583.73  4726.29  5140.11
                             5312.99

 Zero-point correction=                           0.065731 (Hartree/Particle)
 Thermal correction to Energy=                    0.071211
 Thermal correction to Enthalpy=                  0.072156
 Thermal correction to Gibbs Free Energy=         0.037491
 Sum of electronic and zero-point Energies=           -263.175599
 Sum of electronic and thermal Energies=              -263.170119
 Sum of electronic and thermal Enthalpies=            -263.169175
 Sum of electronic and thermal Free Energies=         -263.203840

                     E (Thermal)             CV                S
                      KCal/Mol        Cal/Mol-Kelvin    Cal/Mol-Kelvin
 Total                   44.686             18.896             72.959
 Electronic               0.000              0.000              0.000
 Translational            0.889              2.981             38.740
 Rotational               0.889              2.981             25.209
 Vibrational             42.908             12.934              9.009
 Vibration     1          0.609              1.933              3.099
 Vibration     2          0.697              1.660              1.378
 Vibration     3          0.723              1.586              1.189
 Vibration     4          0.775              1.448              0.925
 Vibration     5          0.851              1.260              0.670
 Vibration     6          0.945              1.058              0.471

 Normal termination of Gaussian 09 at Thu Sep  8 14:46:31 2022.
