 Gaussian 09, Revision E.01,
 Gaussian 09:  ES64L-G09RevE.01 30-Nov-2015

 ----------------------------
 #P OPT Freq B3LYP/6-31G(d,p)
 ----------------------------

 --------
 Frag_887
 --------
 Symbolic Z-matrix:
 Charge =  0 Multiplicity = 1

 SCF Done:  E(RB3LYP) =  -206.458547320     A.U. after   14 cycles
 SCF Done:  E(RB3LYP) =  -206.458590497     A.U. after   11 cycles
 SCF Done:  E(RB3LYP) =  -206.458592818     A.U. after    8 cycles
 SCF Done:  E(RB3LYP) =  -206.458593763     A.U. after    8 cycles
 Optimization completed.
    -- Stationary point found.
 Normal termination of Gaussian 09 at Thu Sep  8 15:12:43 2022.

 ----------------------------------------------------------------------
 #P Geom=AllCheck Guess=TCheck SCRF=Check GenChk RB3LYP/6-31G(d,p) Freq
 ----------------------------------------------------------------------

 Structure from the checkpoint file:  "B3LYP6-31Gdp.Frag_887.chk"
 --------
 Frag_887
 --------
 Charge =  0 Multiplicity = 1

                         Standard orientation:
 ---------------------------------------------------------------------
 Center     Atomic      Atomic             Coordinates (Angstroms)
 Number     Number       Type             X           Y           Z
 ---------------------------------------------------------------------
      1          7           0        1.840977   -0.181087   -0.058533
      2          6           0        0.521074    0.436033   -0.035014
      3          7           0       -0.452933   -0.610332   -0.133203
      4          7           0       -1.700354    0.052428    0.052696
      5          1           0        1.863092   -0.887151    0.674470
      6          1           0        2.551688    0.510668    0.165415
      7          1           0        0.339806    1.067087    0.895241
      8          1           0        0.492473    1.181357   -0.872061
      9          1           0       -1.782313    0.615345    0.939667
     10          1           0       -2.427903   -0.662747    0.076670
     11          1           0       -1.977115    0.732176   -0.696040
 ---------------------------------------------------------------------

 SCF Done:  E(RB3LYP) =  -206.458593763     A.U. after    1 cycles

 The electronic state is 1-A.
 Alpha  occ. eigenvalues --  -14.46086 -14.28285 -14.25572 -10.20141  -1.00270
 Alpha  occ. eigenvalues --   -0.85808  -0.75127  -0.60230  -0.55162  -0.55069
 Alpha  occ. eigenvalues --   -0.48137  -0.41831  -0.38127  -0.36625  -0.24008
 Alpha  occ. eigenvalues --   -0.20622  -0.14672
 Alpha virt. eigenvalues --    0.02405   0.09031   0.09909   0.11419   0.16236
 Alpha virt. eigenvalues --    0.19143   0.20060   0.21567   0.26258   0.30717
 Alpha virt. eigenvalues --    0.57087   0.60190   0.61349   0.65604   0.67596

 Mulliken charges:
               1
     1  N   -0.599445
     2  C    0.151286
     3  N   -0.492172
     4  N   -0.366421
     5  H    0.234182
     6  H    0.222225
     7  H   -0.015792
     8  H    0.033882
     9  H    0.245997
    10  H    0.322180
    11  H    0.264079
 Sum of Mulliken charges =  -0.00000

 Dipole moment (field-independent basis, Debye):
    X=             -4.2213    Y=              2.4808    Z=              1.8143  Tot=              5.2216
 Quadrupole moment (field-independent basis, Debye-Ang):
   XX=            -14.2553   YY=            -27.3979   ZZ=            -26.9646
   XY=              0.3107   XZ=              2.5310   YZ=             -1.7550

  Exact polarizability:  50.362  -2.727  35.654  -0.586  -0.538  31.753
 Approx polarizability:  62.973  -6.208  54.702  -2.314   0.999  43.860

                      1                      2                      3
                      A                      A                      A
 Frequencies --    125.9614               229.2045               328.4634
 Red. masses --      2.8017                 1.1442                 2.3013
 Frc consts  --      0.0262                 0.0354                 0.1463
 IR Inten    --     16.8868                60.0709                 6.4642

                      4                      5                      6
                      A                      A                      A
 Frequencies --    333.2574               508.5474               813.4226
 Red. masses --      1.1313                 3.7346                 4.2928
 Frc consts  --      0.0740                 0.5691                 1.6735
 IR Inten    --      5.7262                20.1123                18.3166

                      7                      8                      9
                      A                      A                      A
 Frequencies --    864.1895              1004.1083              1081.2331
 Red. masses --      1.3168                 2.2454                 1.4832
 Frc consts  --      0.5794                 1.3338                 1.0216
 IR Inten    --    202.7232                30.6480                55.5183

                     10                     11                     12
                      A                      A                      A
 Frequencies --   1118.8686              1133.3203              1174.3107
 Red. masses --      1.3159                 1.7558                 1.6485
 Frc consts  --      0.9706                 1.3287                 1.3394
 IR Inten    --     27.1438                14.6782                25.0279

                     13                     14                     15
                      A                      A                      A
 Frequencies --   1227.5105              1311.0191              1446.3971
 Red. masses --      1.4034                 1.5626                 1.3400
 Frc consts  --      1.2459                 1.5824                 1.6517
 IR Inten    --      9.7265                 7.8586               100.0717

                     16                     17                     18
                      A                      A                      A
 Frequencies --   1500.6662              1559.1548              1600.7589
 Red. masses --      1.1413                 1.1144                 1.0621
 Frc consts  --      1.5143                 1.5961                 1.6034
 IR Inten    --     28.6108                30.5980                18.9398

                     19                     20                     21
                      A                      A                      A
 Frequencies --   1641.5330              1683.7421              2552.3060
 Red. masses --      1.1001                 1.0499                 1.0769
 Frc consts  --      1.7466                 1.7537                 4.1332
 IR Inten    --     43.1127                31.9553               369.5300

                     22                     23                     24
                      A                      A                      A
 Frequencies --   2759.0885              2901.3521              3022.5111
 Red. masses --      1.0681                 1.0899                 1.0401
 Frc consts  --      4.7907                 5.4055                 5.5985
 IR Inten    --    237.4201               112.8046               257.7318

                     25                     26                     27
                      A                      A                      A
 Frequencies --   3486.3547              3507.0592              3580.9536
 Red. masses --      1.0491                 1.0769                 1.0924
 Frc consts  --      7.5133                 7.8036                 8.2531
 IR Inten    --      3.4142                31.7692                 0.2230

 - Thermochemistry -
 -------------------
 Temperature   298.150 Kelvin.  Pressure   1.00000 Atm.
 Atom     1 has atomic number  7 and mass  14.00307

 Molecular mass:    61.06400 amu.
 Principal axes and moments of inertia in atomic units:
                           1         2         3
     Eigenvalues --    59.37024 433.19848 465.91151
           X            0.99995  -0.00302   0.00933
           Y            0.00355   0.99837  -0.05701
           Z           -0.00915   0.05704   0.99833
 This molecule is an asymmetric top.
 Rotational symmetry number  1.
 Rotational temperatures (Kelvin)      1.45888     0.19994     0.18590
 Rotational constants (GHZ):          30.39808     4.16608     3.87357
 Zero-point vibrational energy     254178.3 (Joules/Mol)
                                   60.75007 (Kcal/Mol)
 Warning -- explicit consideration of   5 degrees of freedom as
           vibrations may cause significant error
 Vibrational temperatures:    181.23   329.77   472.59   479.48   731.69
          (Kelvin)           1170.33  1243.37  1444.69  1555.65  1609.80
                             1630.59  1689.57  1766.11  1886.26  2081.04
                             2159.12  2243.27  2303.13  2361.80  2422.53
                             3672.19  3969.71  4174.39  4348.71  5016.08
                             5045.87  5152.19

 Zero-point correction=                           0.096811 (Hartree/Particle)
 Thermal correction to Energy=                    0.102142
 Thermal correction to Enthalpy=                  0.103086
 Thermal correction to Gibbs Free Energy=         0.069314
 Sum of electronic and zero-point Energies=           -206.361782
 Sum of electronic and thermal Energies=              -206.356452
 Sum of electronic and thermal Enthalpies=            -206.355507
 Sum of electronic and thermal Free Energies=         -206.389280

                     E (Thermal)             CV                S
                      KCal/Mol        Cal/Mol-Kelvin    Cal/Mol-Kelvin
 Total                   64.095             17.427             71.080
 Electronic               0.000              0.000              0.000
 Translational            0.889              2.981             38.248
 Rotational               0.889              2.981             23.998
 Vibrational             62.318             11.465              8.834
 Vibration     1          0.611              1.927              3.007
 Vibration     2          0.652              1.796              1.885
 Vibration     3          0.712              1.619              1.268
 Vibration     4          0.715              1.609              1.244
 Vibration     5          0.864              1.231              0.637

 Optimization completed.
    -- Stationary point found.
 Normal termination of Gaussian 09 at Thu Sep  8 15:12:51 2022.
