 Gaussian 09, Revision D.01,
 Gaussian 09:  ES64L-G09RevD.01 24-Apr-2013

 --------------------------------
 #P OPT=calcfc Freq B3LYP/6-31G**
 --------------------------------

 -------
 Frag_90
 -------
 Symbolic Z-matrix:
 Charge =  0 Multiplicity = 1

 SCF Done:  E(RB3LYP) =  -212.588850805     A.U. after   13 cycles
 SCF Done:  E(RB3LYP) =  -212.590026477     A.U. after   13 cycles
 SCF Done:  E(RB3LYP) =  -212.590787477     A.U. after   13 cycles
 SCF Done:  E(RB3LYP) =  -212.592425765     A.U. after   13 cycles
 SCF Done:  E(RB3LYP) =  -212.591835311     A.U. after   12 cycles
 SCF Done:  E(RB3LYP) =  -212.592428469     A.U. after    8 cycles
 SCF Done:  E(RB3LYP) =  -212.593554228     A.U. after   13 cycles
 SCF Done:  E(RB3LYP) =  -212.569171918     A.U. after   12 cycles
 SCF Done:  E(RB3LYP) =  -212.593567337     A.U. after    7 cycles
 SCF Done:  E(RB3LYP) =  -212.573934859     A.U. after   13 cycles
 SCF Done:  E(RB3LYP) =  -212.593911020     A.U. after   10 cycles
 SCF Done:  E(RB3LYP) =  -212.593753642     A.U. after   11 cycles
 SCF Done:  E(RB3LYP) =  -212.593998887     A.U. after    9 cycles
 SCF Done:  E(RB3LYP) =  -212.594471960     A.U. after   13 cycles
 SCF Done:  E(RB3LYP) =  -212.594594353     A.U. after   10 cycles
 SCF Done:  E(RB3LYP) =  -212.594630971     A.U. after    9 cycles
 SCF Done:  E(RB3LYP) =  -212.594637228     A.U. after    9 cycles
 SCF Done:  E(RB3LYP) =  -212.594638322     A.U. after    7 cycles
 SCF Done:  E(RB3LYP) =  -212.594638476     A.U. after    7 cycles
 Optimization completed.
    -- Stationary point found.

 1\1\GINC-FN16\FOpt\RB3LYP\6-31G(d,p)\C4H9N1\LIUJ201281\23-Jul-2021\0\\
 #P OPT=calcfc Freq B3LYP/6-31G**\\Frag_90\\0,1\C,-2.0725427622,-0.1121
 861905,0.2199173416\C,-0.6861684113,-0.6851187718,0.1476077666\C,0.476
 7446373,-0.0244998721,-0.0010723759\C,0.6238327653,1.4633659595,-0.185
 7927192\N,1.7237070296,-0.6797325903,0.089620676\H,-2.7223019572,-0.53
 67086952,-0.5571784261\H,-2.5511517901,-0.3400197476,1.1822171634\H,-2
 .0912339552,0.9739768097,0.1006173463\H,-0.6270611544,-1.7688423019,0.
 2629541964\H,1.1756225818,1.684894817,-1.1096751437\H,-0.3367495545,1.

 Normal termination of Gaussian 09 at Fri Jul 23 14:37:34 2021.

 ----------------------------------------------------------------------
 #P Geom=AllCheck Guess=TCheck SCRF=Check GenChk RB3LYP/6-31G(d,p) Freq
 ----------------------------------------------------------------------

 Structure from the checkpoint file:  "/vol2/users/liuj201281/HOFBenchmark/IsodesmicSplit/Sample60/Ring26/Running/Gau-355632.chk"
 -------
 Frag_90
 -------
 Charge =  0 Multiplicity = 1

                         Standard orientation:
 ---------------------------------------------------------------------
 Center     Atomic      Atomic             Coordinates (Angstroms)
 Number     Number       Type             X           Y           Z
 ---------------------------------------------------------------------
      1          6           0        2.090580    0.002962   -0.003334
      2          6           0        0.744336   -0.661904    0.029719
      3          6           0       -0.468434   -0.079232    0.005773
      4          6           0       -0.729586    1.404415   -0.003849
      5          7           0       -1.656518   -0.833820   -0.101581
      6          1           0        2.697432   -0.277964    0.867927
      7          1           0        2.664771   -0.297463   -0.890489
      8          1           0        2.026595    1.093870   -0.015907
      9          1           0        0.767641   -1.753024    0.042755
     10          1           0       -1.372776    1.688565    0.840350
     11          1           0        0.186151    1.990572    0.067573
     12          1           0       -1.258185    1.693294   -0.919480
     13          1           0       -1.522521   -1.822162    0.078903
     14          1           0       -2.414856   -0.476387    0.469572
 ---------------------------------------------------------------------

 SCF Done:  E(RB3LYP) =  -212.594638476     A.U. after    1 cycles

 The electronic state is 1-A.
 Alpha  occ. eigenvalues --  -14.32447 -10.20903 -10.17855 -10.17084 -10.15835
 Alpha  occ. eigenvalues --   -0.89709  -0.76131  -0.71141  -0.64202  -0.53123
 Alpha  occ. eigenvalues --   -0.48709  -0.47167  -0.41645  -0.39155  -0.38971
 Alpha  occ. eigenvalues --   -0.37615  -0.37195  -0.33410  -0.30084  -0.18864
 Alpha virt. eigenvalues --    0.05249   0.08840   0.11640   0.12634   0.14266
 Alpha virt. eigenvalues --    0.16191   0.17551   0.19657   0.20372   0.23212
 Alpha virt. eigenvalues --    0.24494   0.26681   0.35388   0.46648   0.50583

 Mulliken charges:
               1
     1  C   -0.346438
     2  C   -0.131674
     3  C    0.271790
     4  C   -0.368688
     5  N   -0.624213
     6  H    0.105387
     7  H    0.107797
     8  H    0.099376
     9  H    0.052428
    10  H    0.103112
    11  H    0.114364
    12  H    0.128278
    13  H    0.245162
    14  H    0.243319
 Sum of Mulliken charges =   0.00000

 Dipole moment (field-independent basis, Debye):
    X=             -0.6881    Y=             -0.0351    Z=              1.0540  Tot=              1.2592
 Quadrupole moment (field-independent basis, Debye-Ang):
   XX=            -30.1773   YY=            -29.4074   ZZ=            -34.1715
   XY=              0.5689   XZ=             -2.7787   YZ=             -0.9625

  Exact polarizability:  70.913  -4.673  51.243  -0.893  -0.018  33.367
 Approx polarizability: 100.632 -10.334  69.191   0.030   0.234  46.807

                      1                      2                      3
                      A                      A                      A
 Frequencies --    123.0241               143.5268               239.7263
 Red. masses --      1.0401                 1.0599                 2.4457
 Frc consts  --      0.0093                 0.0129                 0.0828
 IR Inten    --      0.4521                 1.7191                 4.8505

                      4                      5                      6
                      A                      A                      A
 Frequencies --    296.3208               340.2767               430.3610
 Red. masses --      2.2851                 1.1209                 2.4556
 Frc consts  --      0.1182                 0.0765                 0.2680
 IR Inten    --      7.1210                45.7445                 3.6591

                      7                      8                      9
                      A                      A                      A
 Frequencies --    489.6722               534.1819               708.0581
 Red. masses --      2.2307                 2.9564                 1.3002
 Frc consts  --      0.3151                 0.4970                 0.3841
 IR Inten    --     19.7119                 5.7172               228.7368

                     10                     11                     12
                      A                      A                      A
 Frequencies --    799.4683               835.3639               983.6424
 Red. masses --      2.9156                 1.3442                 1.5566
 Frc consts  --      1.0980                 0.5527                 0.8874
 IR Inten    --      2.1129                65.3887                 8.1034

                     13                     14                     15
                      A                      A                      A
 Frequencies --   1019.5690              1061.7668              1069.3263
 Red. masses --      1.4138                 1.4305                 1.4801
 Frc consts  --      0.8659                 0.9502                 0.9971
 IR Inten    --      2.7281                 0.4098                 3.7726

                     16                     17                     18
                      A                      A                      A
 Frequencies --   1103.2567              1193.3843              1285.1533
 Red. masses --      1.9590                 1.4549                 2.5703
 Frc consts  --      1.4049                 1.2208                 2.5012
 IR Inten    --      2.6460                 1.3122                67.5009

                     19                     20                     21
                      A                      A                      A
 Frequencies --   1391.7552              1437.7982              1443.3851
 Red. masses --      1.2726                 1.2388                 1.6917
 Frc consts  --      1.4524                 1.5089                 2.0765
 IR Inten    --      0.7009                 3.1262                 7.1105

                     22                     23                     24
                      A                      A                      A
 Frequencies --   1492.1230              1497.1458              1503.4421
 Red. masses --      1.0445                 1.0436                 1.0555
 Frc consts  --      1.3701                 1.3782                 1.4056
 IR Inten    --      0.2767                 8.5512                 2.2052

                     25                     26                     27
                      A                      A                      A
 Frequencies --   1516.2441              1659.4240              1757.9900
 Red. masses --      1.0640                 1.1329                 5.8035
 Frc consts  --      1.4413                 1.8381                10.5675
 IR Inten    --      8.0792                43.4140                58.0683

                     28                     29                     30
                      A                      A                      A
 Frequencies --   3016.9616              3028.1226              3055.5488
 Red. masses --      1.0411                 1.0470                 1.1003
 Frc consts  --      5.5834                 5.6565                 6.0523
 IR Inten    --     68.3477                31.6758                36.7897

                     31                     32                     33
                      A                      A                      A
 Frequencies --   3083.2265              3115.1033              3129.6038
 Red. masses --      1.0942                 1.0899                 1.0926
 Frc consts  --      6.1285                 6.2312                 6.3049
 IR Inten    --     23.0051                 5.1878                54.6732

                     34                     35                     36
                      A                      A                      A
 Frequencies --   3164.0961              3522.6442              3627.0136
 Red. masses --      1.0954                 1.0481                 1.0960
 Frc consts  --      6.4611                 7.6630                 8.4946
 IR Inten    --     20.0126                 0.7181                 1.1470

 - Thermochemistry -
 -------------------
 Temperature   298.150 Kelvin.  Pressure   1.00000 Atm.
 Atom     1 has atomic number  6 and mass  12.00000

 Molecular mass:    71.07350 amu.
 Principal axes and moments of inertia in atomic units:
                           1         2         3
     Eigenvalues --   214.19886 503.43378 692.67645
           X            0.99991  -0.00971  -0.00926
           Y            0.00964   0.99992  -0.00784
           Z            0.00933   0.00775   0.99993
 This molecule is an asymmetric top.
 Rotational symmetry number  1.
 Rotational temperatures (Kelvin)      0.40436     0.17205     0.12504
 Rotational constants (GHZ):           8.42554     3.58486     2.60546
 Zero-point vibrational energy     329557.5 (Joules/Mol)
                                   78.76613 (Kcal/Mol)
 Warning -- explicit consideration of   8 degrees of freedom as
           vibrations may cause significant error
 Vibrational temperatures:    177.00   206.50   344.91   426.34   489.58
          (Kelvin)            619.19   704.53   768.57  1018.74  1150.26
                             1201.90  1415.24  1466.93  1527.64  1538.52
                             1587.34  1717.01  1849.05  2002.42  2068.67
                             2076.71  2146.83  2154.06  2163.12  2181.53
                             2387.54  2529.35  4340.73  4356.79  4396.25
                             4436.07  4481.93  4502.80  4552.42  5068.29
                             5218.46

 Zero-point correction=                           0.125522 (Hartree/Particle)
 Thermal correction to Energy=                    0.132196
 Thermal correction to Enthalpy=                  0.133141
 Thermal correction to Gibbs Free Energy=         0.096008
 Sum of electronic and zero-point Energies=           -212.469117
 Sum of electronic and thermal Energies=              -212.462442
 Sum of electronic and thermal Enthalpies=            -212.461498
 Sum of electronic and thermal Free Energies=         -212.498630

                     E (Thermal)             CV                S
                      KCal/Mol        Cal/Mol-Kelvin    Cal/Mol-Kelvin
 Total                   82.954             23.446             78.151
 Electronic               0.000              0.000              0.000
 Translational            0.889              2.981             38.700
 Rotational               0.889              2.981             25.816
 Vibrational             81.177             17.485             13.635
 Vibration     1          0.610              1.930              3.052
 Vibration     2          0.616              1.910              2.756
 Vibration     3          0.657              1.780              1.805
 Vibration     4          0.690              1.681              1.438
 Vibration     5          0.720              1.595              1.211
 Vibration     6          0.792              1.404              0.857
 Vibration     7          0.846              1.273              0.684
 Vibration     8          0.889              1.174              0.578

 Optimization completed.
    -- Stationary point found.

 1\1\GINC-FN16\Freq\RB3LYP\6-31G(d,p)\C4H9N1\LIUJ201281\23-Jul-2021\0\\
 #P Geom=AllCheck Guess=TCheck SCRF=Check GenChk RB3LYP/6-31G(d,p) Freq
 \\Frag_90\\0,1\C,-2.0725427622,-0.1121861905,0.2199173416\C,-0.6861684
 113,-0.6851187718,0.1476077666\C,0.4767446373,-0.0244998721,-0.0010723
 759\C,0.6238327653,1.4633659595,-0.1857927192\N,1.7237070296,-0.679732
 5903,0.089620676\H,-2.7223019572,-0.5367086952,-0.5571784261\H,-2.5511
 517901,-0.3400197476,1.1822171634\H,-2.0912339552,0.9739768097,0.10061
 73463\H,-0.6270611544,-1.7688423019,0.2629541964\H,1.1756225818,1.6848

 Normal termination of Gaussian 09 at Fri Jul 23 14:37:46 2021.
