 Gaussian 09, Revision E.01,
 Gaussian 09:  ES64L-G09RevE.01 30-Nov-2015

 ----------------------------
 #P OPT Freq B3LYP/6-31G(d,p)
 ----------------------------

 --------
 Frag_706
 --------
 Symbolic Z-matrix:
 Charge =  0 Multiplicity = 1

 SCF Done:  E(RB3LYP) =  -210.103176584     A.U. after   15 cycles
 SCF Done:  E(RB3LYP) =  -210.103287449     A.U. after   12 cycles
 SCF Done:  E(RB3LYP) =  -210.103035882     A.U. after   12 cycles
 SCF Done:  E(RB3LYP) =  -210.103298967     A.U. after    9 cycles
 SCF Done:  E(RB3LYP) =  -210.103245452     A.U. after   11 cycles
 SCF Done:  E(RB3LYP) =  -210.103305180     A.U. after   10 cycles
 SCF Done:  E(RB3LYP) =  -210.103305910     A.U. after    8 cycles
 Optimization completed.
    -- Stationary point found.
 Normal termination of Gaussian 09 at Thu Sep  8 15:16:34 2022.

 ----------------------------------------------------------------------
 #P Geom=AllCheck Guess=TCheck SCRF=Check GenChk RB3LYP/6-31G(d,p) Freq
 ----------------------------------------------------------------------

 Structure from the checkpoint file:  "B3LYP6-31Gdp.Frag_706.chk"
 --------
 Frag_706
 --------
 Charge =  0 Multiplicity = 1

                         Standard orientation:
 ---------------------------------------------------------------------
 Center     Atomic      Atomic             Coordinates (Angstroms)
 Number     Number       Type             X           Y           Z
 ---------------------------------------------------------------------
      1          6           0       -2.201355    0.092783   -0.000065
      2          6           0       -1.002806   -0.067006    0.000029
      3          6           0        0.437179   -0.175167    0.000052
      4          6           0        1.177480    1.147967   -0.000014
      5          7           0        0.963730   -1.343124   -0.000010
      6          1           0       -3.261766    0.199857    0.000148
      7          1           0        2.259322    0.989005   -0.000415
      8          1           0        0.903573    1.738742   -0.880633
      9          1           0        0.904199    1.738414    0.881025
     10          1           0        1.985580   -1.255619   -0.000071
 ---------------------------------------------------------------------

 SCF Done:  E(RB3LYP) =  -210.103305910     A.U. after    1 cycles

 The electronic state is 1-A.
 Alpha  occ. eigenvalues --  -14.32555 -10.26043 -10.20134 -10.19781 -10.19521
 Alpha  occ. eigenvalues --   -0.91539  -0.76621  -0.73240  -0.63270  -0.52725
 Alpha  occ. eigenvalues --   -0.47898  -0.45758  -0.43921  -0.40622  -0.34038
 Alpha  occ. eigenvalues --   -0.28180  -0.27061  -0.26907
 Alpha virt. eigenvalues --   -0.03622   0.04417   0.09192   0.10028   0.11776
 Alpha virt. eigenvalues --    0.12966   0.18244   0.18629   0.21551   0.29256
 Alpha virt. eigenvalues --    0.41329   0.43085   0.49710   0.51337   0.54539

 Mulliken charges:
               1
     1  C   -0.428609
     2  C    0.352214
     3  C    0.122172
     4  C   -0.352444
     5  N   -0.481497
     6  H    0.168452
     7  H    0.113339
     8  H    0.139585
     9  H    0.139590
    10  H    0.227197
 Sum of Mulliken charges =   0.00000

 Dipole moment (field-independent basis, Debye):
    X=              0.5281    Y=              2.3564    Z=              0.0002  Tot=              2.4149
 Quadrupole moment (field-independent basis, Debye-Ang):
   XX=            -20.8363   YY=            -33.2672   ZZ=            -30.2781
   XY=             -0.0940   XZ=             -0.0007   YZ=              0.0001

  Exact polarizability:  69.458  -7.835  41.320   0.001   0.000  24.111
 Approx polarizability: 111.665 -22.390  64.621   0.003   0.001  33.643

                      1                      2                      3
                      A                      A                      A
 Frequencies --    146.5536               191.1487               274.4515
 Red. masses --      1.0420                 3.5596                 3.6577
 Frc consts  --      0.0132                 0.0766                 0.1623
 IR Inten    --      0.0260                 4.0492                 5.0500

                      4                      5                      6
                      A                      A                      A
 Frequencies --    443.3730               591.0237               597.8219
 Red. masses --      2.9281                 3.1899                 5.6048
 Frc consts  --      0.3391                 0.6565                 1.1802
 IR Inten    --      5.2289                 2.2823                10.6286

                      7                      8                      9
                      A                      A                      A
 Frequencies --    644.7699               660.3505               772.8654
 Red. masses --      1.2641                 1.2461                 4.2660
 Frc consts  --      0.3096                 0.3201                 1.5013
 IR Inten    --     43.8980                42.7714                 6.1137

                     10                     11                     12
                      A                      A                      A
 Frequencies --    902.2831               995.7867              1079.7530
 Red. masses --      1.2087                 1.9136                 1.5409
 Frc consts  --      0.5798                 1.1180                 1.0585
 IR Inten    --     33.2127                12.9352                15.3167

                     13                     14                     15
                      A                      A                      A
 Frequencies --   1114.2055              1378.5494              1415.7506
 Red. masses --      1.5795                 1.6848                 1.3557
 Frc consts  --      1.1553                 1.8864                 1.6010
 IR Inten    --     70.2956                64.3763                29.4088

                     16                     17                     18
                      A                      A                      A
 Frequencies --   1481.8679              1493.6527              1693.5450
 Red. masses --      1.0449                 1.0739                 8.0758
 Frc consts  --      1.3519                 1.4116                13.6467
 IR Inten    --      6.9894                23.6698                66.6845

                     19                     20                     21
                      A                      A                      A
 Frequencies --   2226.7922              3045.4731              3114.6474
 Red. masses --      6.0238                 1.0348                 1.1008
 Frc consts  --     17.5986                 5.6550                 6.2921
 IR Inten    --     17.9396                 6.4658                 8.6149

                     22                     23                     24
                      A                      A                      A
 Frequencies --   3134.9618              3432.4913              3487.3113
 Red. masses --      1.1045                 1.0743                 1.1594
 Frc consts  --      6.3954                 7.4572                 8.3075
 IR Inten    --     15.5584                 2.9558                56.1401

 - Thermochemistry -
 -------------------
 Temperature   298.150 Kelvin.  Pressure   1.00000 Atm.
 Atom     1 has atomic number  6 and mass  12.00000

 Molecular mass:    67.04220 amu.
 Principal axes and moments of inertia in atomic units:
                           1         2         3
     Eigenvalues --   184.35667 446.98393 620.17129
           X            0.99949   0.03209  -0.00001
           Y           -0.03209   0.99949   0.00000
           Z            0.00001  -0.00000   1.00000
 This molecule is an asymmetric top.
 Rotational symmetry number  1.
 Rotational temperatures (Kelvin)      0.46982     0.19377     0.13966
 Rotational constants (GHZ):           9.78940     4.03760     2.91007
 Zero-point vibrational energy     205275.8 (Joules/Mol)
                                   49.06209 (Kcal/Mol)
 Warning -- explicit consideration of   6 degrees of freedom as
           vibrations may cause significant error
 Vibrational temperatures:    210.86   275.02   394.87   637.91   850.35
          (Kelvin)            860.13   927.68   950.10  1111.98  1298.18
                             1432.71  1553.52  1603.09  1983.42  2036.95
                             2132.07  2149.03  2436.63  3203.85  4381.75
                             4481.28  4510.51  4938.58  5017.46

 Zero-point correction=                           0.078185 (Hartree/Particle)
 Thermal correction to Energy=                    0.083813
 Thermal correction to Enthalpy=                  0.084758
 Thermal correction to Gibbs Free Energy=         0.049791
 Sum of electronic and zero-point Energies=           -210.025120
 Sum of electronic and thermal Energies=              -210.019493
 Sum of electronic and thermal Enthalpies=            -210.018548
 Sum of electronic and thermal Free Energies=         -210.053515

                     E (Thermal)             CV                S
                      KCal/Mol        Cal/Mol-Kelvin    Cal/Mol-Kelvin
 Total                   52.594             19.304             73.594
 Electronic               0.000              0.000              0.000
 Translational            0.889              2.981             38.526
 Rotational               0.889              2.981             25.439
 Vibrational             50.816             13.342              9.629
 Vibration     1          0.617              1.906              2.717
 Vibration     2          0.634              1.852              2.217
 Vibration     3          0.677              1.721              1.568
 Vibration     4          0.803              1.376              0.816
 Vibration     5          0.948              1.051              0.465
 Vibration     6          0.956              1.036              0.453

 Optimization completed.
    -- Stationary point found.
 Normal termination of Gaussian 09 at Thu Sep  8 15:16:41 2022.
