 Gaussian 09, Revision E.01,
 Gaussian 09:  ES64L-G09RevE.01 30-Nov-2015

 --------------------------------
 #P OPT=calcfc Freq B3LYP/6-31G**
 --------------------------------

 --------
 Frag_142
 --------
 Symbolic Z-matrix:
 Charge =  0 Multiplicity = 1

 SCF Done:  E(RB3LYP) =  -226.184768971     A.U. after   15 cycles
 SCF Done:  E(RB3LYP) =  -226.186909781     A.U. after   14 cycles
 SCF Done:  E(RB3LYP) =  -226.189730424     A.U. after   15 cycles
 SCF Done:  E(RB3LYP) =  -226.153330851     A.U. after   15 cycles
 SCF Done:  E(RB3LYP) =  -226.189807935     A.U. after   10 cycles
 SCF Done:  E(RB3LYP) =  -226.193004373     A.U. after   13 cycles
 SCF Done:  E(RB3LYP) =  -226.193334243     A.U. after   12 cycles
 SCF Done:  E(RB3LYP) =  -226.193357442     A.U. after    9 cycles
 SCF Done:  E(RB3LYP) =  -226.193359886     A.U. after    9 cycles
 SCF Done:  E(RB3LYP) =  -226.193360052     A.U. after    8 cycles
 SCF Done:  E(RB3LYP) =  -226.193360073     A.U. after    8 cycles
 Optimization completed.
    -- Stationary point found.
 Normal termination of Gaussian 09 at Sat Aug 21 02:18:50 2021.

 ----------------------------------------------------------------------
 #P Geom=AllCheck Guess=TCheck SCRF=Check GenChk RB3LYP/6-31G(d,p) Freq
 ----------------------------------------------------------------------

 Structure from the checkpoint file:  "/public/home/users/caep010/.cache/gau_scr/Gau-157123.chk"
 --------
 Frag_142
 --------
 Charge =  0 Multiplicity = 1

                         Standard orientation:
 ---------------------------------------------------------------------
 Center     Atomic      Atomic             Coordinates (Angstroms)
 Number     Number       Type             X           Y           Z
 ---------------------------------------------------------------------
      1          6           0       -1.065191    1.249806    0.018117
      2          6           0       -0.426760    0.064829   -0.002637
      3          7           0       -1.026686   -1.194316   -0.087192
      4          6           0        1.015721    0.035365   -0.010556
      5          7           0        2.177224   -0.011169    0.005874
      6          1           0       -0.509976    2.177203   -0.005660
      7          1           0       -2.148724    1.302383    0.033142
      8          1           0       -2.012803   -1.199724    0.138189
      9          1           0       -0.524881   -1.941473    0.374010
 ---------------------------------------------------------------------

 SCF Done:  E(RB3LYP) =  -226.193360073     A.U. after    1 cycles

 The electronic state is 1-A.
 Alpha  occ. eigenvalues --  -14.36622 -14.34312 -10.27329 -10.23453 -10.19870
 Alpha  occ. eigenvalues --   -0.94572  -0.90304  -0.77557  -0.65408  -0.55486
 Alpha  occ. eigenvalues --   -0.51486  -0.45640  -0.42176  -0.39723  -0.36452
 Alpha  occ. eigenvalues --   -0.34029  -0.32525  -0.23593
 Alpha virt. eigenvalues --   -0.03255   0.02128   0.06941   0.10465   0.12060
 Alpha virt. eigenvalues --    0.14822   0.16730   0.19833   0.31044   0.34555
 Alpha virt. eigenvalues --    0.35580   0.51309   0.54815   0.55426   0.59136

 Mulliken charges:
               1
     1  C   -0.267196
     2  C    0.294463
     3  N   -0.621613
     4  C    0.285744
     5  N   -0.462118
     6  H    0.125997
     7  H    0.102933
     8  H    0.267239
     9  H    0.274551
 Sum of Mulliken charges =  -0.00000

 Dipole moment (field-independent basis, Debye):
    X=             -3.8848    Y=             -0.7606    Z=              1.0421  Tot=              4.0934
 Quadrupole moment (field-independent basis, Debye-Ang):
   XX=            -32.9257   YY=            -24.8494   ZZ=            -30.8728
   XY=              1.0628   XZ=             -1.1672   YZ=             -2.1419

  Exact polarizability:  56.801  -6.631  48.284  -0.105  -0.303  18.366
 Approx polarizability:  94.780 -17.583  77.207   0.027   1.074  25.902

                      1                      2                      3
                      A                      A                      A
 Frequencies --    198.5134               279.0396               319.0370
 Red. masses --      4.8962                 1.4900                 2.0414
 Frc consts  --      0.1137                 0.0684                 0.1224
 IR Inten    --      3.9401                22.4051                18.3773

                      4                      5                      6
                      A                      A                      A
 Frequencies --    419.8586               579.9565               614.6849
 Red. masses --      2.5062                 1.8448                 3.0603
 Frc consts  --      0.2603                 0.3656                 0.6813
 IR Inten    --      4.5021               196.0411                55.3612

                      7                      8                      9
                      A                      A                      A
 Frequencies --    670.4992               721.3832               800.6188
 Red. masses --      3.4935                 1.1863                 4.0807
 Frc consts  --      0.9254                 0.3637                 1.5411
 IR Inten    --     46.9495                15.3291                 2.5279

                     10                     11                     12
                      A                      A                      A
 Frequencies --    838.4578               998.9106              1135.8476
 Red. masses --      1.3935                 1.5747                 1.4478
 Frc consts  --      0.5772                 0.9258                 1.1005
 IR Inten    --     60.4346                 6.6507                 3.5708

                     13                     14                     15
                      A                      A                      A
 Frequencies --   1377.0103              1453.0849              1657.6288
 Red. masses --      3.4042                 1.1813                 1.1737
 Frc consts  --      3.8031                 1.4696                 1.9002
 IR Inten    --     63.6300                 2.0568                35.0329

                     16                     17                     18
                      A                      A                      A
 Frequencies --   1698.0578              2354.8928              3182.4448
 Red. masses --      4.4632                12.6833                 1.0615
 Frc consts  --      7.5823                41.4405                 6.3345
 IR Inten    --    108.6481                12.2524                 4.3595

                     19                     20                     21
                      A                      A                      A
 Frequencies --   3286.4990              3565.2269              3675.9932
 Red. masses --      1.1160                 1.0476                 1.0992
 Frc consts  --      7.1018                 7.8453                 8.7517
 IR Inten    --      2.0826                22.1434                18.5078

 - Thermochemistry -
 -------------------
 Temperature   298.150 Kelvin.  Pressure   1.00000 Atm.
 Atom     1 has atomic number  6 and mass  12.00000

 Molecular mass:    68.03745 amu.
 Principal axes and moments of inertia in atomic units:
                           1         2         3
     Eigenvalues --   181.34790 423.04330 602.58966
           X            0.99996  -0.00754  -0.00484
           Y            0.00746   0.99983  -0.01690
           Z            0.00497   0.01686   0.99985
 This molecule is an asymmetric top.
 Rotational symmetry number  1.
 Rotational temperatures (Kelvin)      0.47761     0.20474     0.14374
 Rotational constants (GHZ):           9.95182     4.26609     2.99498
 Zero-point vibrational energy     178408.9 (Joules/Mol)
                                   42.64076 (Kcal/Mol)
 Warning -- explicit consideration of   6 degrees of freedom as
           vibrations may cause significant error
 Vibrational temperatures:    285.62   401.48   459.02   604.08   834.43
          (Kelvin)            884.39   964.70  1037.91  1151.91  1206.35
                             1437.21  1634.23  1981.21  2090.66  2384.96
                             2443.12  3388.16  4578.82  4728.53  5129.56
                             5288.93

 Zero-point correction=                           0.067952 (Hartree/Particle)
 Thermal correction to Energy=                    0.073259
 Thermal correction to Enthalpy=                  0.074203
 Thermal correction to Gibbs Free Energy=         0.040033
 Sum of electronic and zero-point Energies=           -226.125408
 Sum of electronic and thermal Energies=              -226.120101
 Sum of electronic and thermal Enthalpies=            -226.119157
 Sum of electronic and thermal Free Energies=         -226.153327

                     E (Thermal)             CV                S
                      KCal/Mol        Cal/Mol-Kelvin    Cal/Mol-Kelvin
 Total                   45.971             18.485             71.917
 Electronic               0.000              0.000              0.000
 Translational            0.889              2.981             38.570
 Rotational               0.889              2.981             25.339
 Vibrational             44.193             12.523              8.007
 Vibration     1          0.637              1.842              2.147
 Vibration     2          0.679              1.712              1.540
 Vibration     3          0.705              1.637              1.315
 Vibration     4          0.783              1.427              0.892
 Vibration     5          0.937              1.075              0.485
 Vibration     6          0.974              1.001              0.425

 Optimization completed.
    -- Stationary point found.
 Normal termination of Gaussian 09 at Sat Aug 21 02:18:57 2021.
