 Gaussian 09, Revision E.01,
 Gaussian 09:  ES64L-G09RevE.01 30-Nov-2015

 ----------------------------
 #P OPT Freq B3LYP/6-31G(d,p)
 ----------------------------

 ---------
 Frag_1156
 ---------
 Symbolic Z-matrix:
 Charge =  0 Multiplicity = 1

 SCF Done:  E(RB3LYP) =  -324.931423836     A.U. after   13 cycles
 SCF Done:  E(RB3LYP) =  -324.931476466     A.U. after    8 cycles
 SCF Done:  E(RB3LYP) =  -324.931480338     A.U. after    8 cycles
 SCF Done:  E(RB3LYP) =  -324.931481091     A.U. after    7 cycles
 SCF Done:  E(RB3LYP) =  -324.931481505     A.U. after    7 cycles
 SCF Done:  E(RB3LYP) =  -324.931481689     A.U. after    7 cycles
 SCF Done:  E(RB3LYP) =  -324.931481814     A.U. after    7 cycles
 Optimization completed.
    -- Stationary point found.
 Normal termination of Gaussian 09 at Thu Sep  8 14:47:24 2022.

 ----------------------------------------------------------------------
 #P Geom=AllCheck Guess=TCheck SCRF=Check GenChk RB3LYP/6-31G(d,p) Freq
 ----------------------------------------------------------------------

 Structure from the checkpoint file:  "B3LYP6-31Gdp.Frag_1156.chk"
 ---------
 Frag_1156
 ---------
 Charge =  0 Multiplicity = 1

                         Standard orientation:
 ---------------------------------------------------------------------
 Center     Atomic      Atomic             Coordinates (Angstroms)
 Number     Number       Type             X           Y           Z
 ---------------------------------------------------------------------
      1          6           0       -0.855505    1.287802    0.555993
      2          7           0       -0.645727    0.190774   -0.388702
      3          6           0       -1.729987   -0.785616   -0.328561
      4          6           0        0.666082   -0.423002   -0.280040
      5          8           0        1.652985    0.499703   -0.682313
      6          8           0        1.029599   -0.872050    1.000460
      7          1           0       -0.968646    0.943253    1.597173
      8          1           0       -1.760647    1.835956    0.278272
      9          1           0       -0.010207    1.978512    0.506918
     10          1           0       -2.675932   -0.291012   -0.570051
     11          1           0       -1.829751   -1.259506    0.661859
     12          1           0       -1.563022   -1.573075   -1.070066
     13          1           0        0.655927   -1.318230   -0.917371
     14          1           0        1.281400    0.972417   -1.440676
     15          1           0        1.446763   -0.120064    1.445331
 ---------------------------------------------------------------------

 SCF Done:  E(RB3LYP) =  -324.931481814     A.U. after    1 cycles

 The electronic state is 1-A.
 Alpha  occ. eigenvalues --  -19.15420 -19.14632 -14.33019 -10.30405 -10.20507
 Alpha  occ. eigenvalues --  -10.20495  -1.07036  -0.99259  -0.91011  -0.71030
 Alpha  occ. eigenvalues --   -0.68540  -0.60172  -0.53774  -0.50787  -0.48773
 Alpha  occ. eigenvalues --   -0.44970  -0.42814  -0.40080  -0.38902  -0.37035
 Alpha  occ. eigenvalues --   -0.36098  -0.35227  -0.30502  -0.28194  -0.22611
 Alpha virt. eigenvalues --    0.07748   0.10044   0.11084   0.14259   0.15068
 Alpha virt. eigenvalues --    0.15729   0.16573   0.17190   0.18089   0.20953
 Alpha virt. eigenvalues --    0.24028   0.24508   0.28073   0.29520   0.50730

 Mulliken charges:
               1
     1  C   -0.183670
     2  N   -0.425467
     3  C   -0.166770
     4  C    0.510211
     5  O   -0.553270
     6  O   -0.528260
     7  H    0.097613
     8  H    0.110562
     9  H    0.109646
    10  H    0.106885
    11  H    0.105318
    12  H    0.107862
    13  H    0.086268
    14  H    0.312335
    15  H    0.310737
 Sum of Mulliken charges =  -0.00000

 Dipole moment (field-independent basis, Debye):
    X=             -1.2781    Y=              1.2376    Z=             -0.4587  Tot=              1.8373
 Quadrupole moment (field-independent basis, Debye-Ang):
   XX=            -38.8448   YY=            -36.9547   ZZ=            -35.1308
   XY=              1.7025   XZ=              0.1255   YZ=              1.9567

  Exact polarizability:  49.372   1.528  47.505   0.259   1.502  44.469
 Approx polarizability:  63.648   2.128  64.256   0.972  -0.067  62.670

                      1                      2                      3
                      A                      A                      A
 Frequencies --    105.6234               209.5008               235.1890
 Red. masses --      3.5071                 1.5904                 1.0604
 Frc consts  --      0.0231                 0.0411                 0.0346
 IR Inten    --      0.8197                 1.9233                 3.6094

                      4                      5                      6
                      A                      A                      A
 Frequencies --    273.5177               297.0854               311.6038
 Red. masses --      1.6219                 1.2079                 2.5394
 Frc consts  --      0.0715                 0.0628                 0.1453
 IR Inten    --      8.0154                70.5405                22.5219

                      7                      8                      9
                      A                      A                      A
 Frequencies --    386.5618               403.3993               508.1238
 Red. masses --      2.1531                 1.2924                 2.4009
 Frc consts  --      0.1896                 0.1239                 0.3652
 IR Inten    --     11.9415                99.2901                41.9379

                     10                     11                     12
                      A                      A                      A
 Frequencies --    550.0464               659.6470               854.1312
 Red. masses --      4.9409                 3.7815                 3.6358
 Frc consts  --      0.8808                 0.9695                 1.5628
 IR Inten    --      2.9362                21.3591                12.4325

                     13                     14                     15
                      A                      A                      A
 Frequencies --   1004.0715              1026.4765              1072.0831
 Red. masses --      3.3999                 2.4403                 1.5522
 Frc consts  --      2.0195                 1.5149                 1.0511
 IR Inten    --    126.4987                92.6241                28.4362

                     16                     17                     18
                      A                      A                      A
 Frequencies --   1091.5483              1120.3191              1192.0177
 Red. masses --      3.5512                 1.2718                 1.4987
 Frc consts  --      2.4929                 0.9405                 1.2546
 IR Inten    --    183.6557                 2.6061                 8.3235

                     19                     20                     21
                      A                      A                      A
 Frequencies --   1198.2274              1258.9584              1314.4236
 Red. masses --      1.7097                 1.6744                 2.3121
 Frc consts  --      1.4463                 1.5637                 2.3536
 IR Inten    --     62.2928                43.4095                36.5692

                     22                     23                     24
                      A                      A                      A
 Frequencies --   1349.4444              1416.5790              1442.1827
 Red. masses --      1.4765                 1.4005                 1.1982
 Frc consts  --      1.5841                 1.6558                 1.4684
 IR Inten    --     82.0758                69.0402                40.1300

                     25                     26                     27
                      A                      A                      A
 Frequencies --   1448.8309              1488.4902              1495.3745
 Red. masses --      1.1742                 1.2027                 1.0459
 Frc consts  --      1.4522                 1.5700                 1.3780
 IR Inten    --     19.0921                21.1942                 9.7356

                     28                     29                     30
                      A                      A                      A
 Frequencies --   1515.3798              1521.0858              1536.1132
 Red. masses --      1.0635                 1.0478                 1.0566
 Frc consts  --      1.4389                 1.4283                 1.4689
 IR Inten    --      7.3752                 3.6206                15.5346

                     31                     32                     33
                      A                      A                      A
 Frequencies --   2980.5951              2986.9339              3033.9969
 Red. masses --      1.0527                 1.0538                 1.0864
 Frc consts  --      5.5100                 5.5394                 5.8924
 IR Inten    --     38.2717                82.3856                58.8846

                     34                     35                     36
                      A                      A                      A
 Frequencies --   3079.2643              3087.5755              3118.5430
 Red. masses --      1.0817                 1.0800                 1.1035
 Frc consts  --      6.0433                 6.0658                 6.3231
 IR Inten    --     35.2318                30.1033                31.1258

                     37                     38                     39
                      A                      A                      A
 Frequencies --   3133.4413              3798.1128              3808.6049
 Red. masses --      1.1024                 1.0654                 1.0646
 Frc consts  --      6.3774                 9.0550                 9.0987
 IR Inten    --     19.7748                24.8149                29.3456

 - Thermochemistry -
 -------------------
 Temperature   298.150 Kelvin.  Pressure   1.00000 Atm.
 Atom     1 has atomic number  6 and mass  12.00000

 Molecular mass:    91.06333 amu.
 Principal axes and moments of inertia in atomic units:
                           1         2         3
     Eigenvalues --   366.39919 636.72134 712.12221
           X            0.99979   0.02057  -0.00175
           Y           -0.01994   0.98440   0.17482
           Z            0.00532  -0.17475   0.98460
 This molecule is an asymmetric top.
 Rotational symmetry number  1.
 Rotational temperatures (Kelvin)      0.23639     0.13603     0.12163
 Rotational constants (GHZ):           4.92561     2.83443     2.53431
 Zero-point vibrational energy     342808.5 (Joules/Mol)
                                   81.93319 (Kcal/Mol)
 Warning -- explicit consideration of  10 degrees of freedom as
           vibrations may cause significant error
 Vibrational temperatures:    151.97   301.42   338.38   393.53   427.44
          (Kelvin)            448.33   556.18   580.40   731.08   791.39
                              949.08  1228.90  1444.63  1476.87  1542.49
                             1570.49  1611.89  1715.05  1723.98  1811.36
                             1891.16  1941.55  2038.14  2074.98  2084.54
                             2141.60  2151.51  2180.29  2188.50  2210.12
                             4288.41  4297.53  4365.24  4430.37  4442.33
                             4486.88  4508.32  5464.63  5479.73

 Zero-point correction=                           0.130569 (Hartree/Particle)
 Thermal correction to Energy=                    0.137950
 Thermal correction to Enthalpy=                  0.138894
 Thermal correction to Gibbs Free Energy=         0.099956
 Sum of electronic and zero-point Energies=           -324.800913
 Sum of electronic and thermal Energies=              -324.793532
 Sum of electronic and thermal Enthalpies=            -324.792588
 Sum of electronic and thermal Free Energies=         -324.831526

                     E (Thermal)             CV                S
                      KCal/Mol        Cal/Mol-Kelvin    Cal/Mol-Kelvin
 Total                   86.565             26.452             81.951
 Electronic               0.000              0.000              0.000
 Translational            0.889              2.981             39.439
 Rotational               0.889              2.981             26.610
 Vibrational             84.787             20.490             15.902
 Vibration     1          0.605              1.945              3.348
 Vibration     2          0.642              1.826              2.048
 Vibration     3          0.655              1.787              1.839
 Vibration     4          0.676              1.722              1.574
 Vibration     5          0.691              1.679              1.433
 Vibration     6          0.700              1.652              1.354
 Vibration     7          0.755              1.499              1.013
 Vibration     8          0.769              1.463              0.950
 Vibration     9          0.863              1.232              0.638
 Vibration    10          0.905              1.140              0.544

 Optimization completed.
    -- Stationary point found.
 Normal termination of Gaussian 09 at Thu Sep  8 14:47:36 2022.
