 Gaussian 09, Revision E.01,
 Gaussian 09:  ES64L-G09RevE.01 30-Nov-2015

 --------------------------------
 #P OPT=calcfc Freq B3LYP/6-31G**
 --------------------------------

 --------
 Frag_192
 --------
 Symbolic Z-matrix:
 Charge =  0 Multiplicity = 1

 SCF Done:  E(RB3LYP) =  -355.635803756     A.U. after   17 cycles
 SCF Done:  E(RB3LYP) =  -355.662670667     A.U. after   15 cycles
 SCF Done:  E(RB3LYP) =  -355.664771029     A.U. after   15 cycles
 SCF Done:  E(RB3LYP) =  -355.664803353     A.U. after   13 cycles
 SCF Done:  E(RB3LYP) =  -355.665158234     A.U. after   13 cycles
 SCF Done:  E(RB3LYP) =  -355.665253726     A.U. after   12 cycles
 SCF Done:  E(RB3LYP) =  -355.665283162     A.U. after   10 cycles
 SCF Done:  E(RB3LYP) =  -355.665304014     A.U. after   11 cycles
 SCF Done:  E(RB3LYP) =  -355.665338804     A.U. after   11 cycles
 SCF Done:  E(RB3LYP) =  -355.665405205     A.U. after   12 cycles
 SCF Done:  E(RB3LYP) =  -355.666479108     A.U. after   14 cycles
 SCF Done:  E(RB3LYP) =  -355.667132644     A.U. after   13 cycles
 SCF Done:  E(RB3LYP) =  -355.667408521     A.U. after   13 cycles
 SCF Done:  E(RB3LYP) =  -355.667530612     A.U. after   12 cycles
 SCF Done:  E(RB3LYP) =  -355.667551516     A.U. after   12 cycles
 SCF Done:  E(RB3LYP) =  -355.667553527     A.U. after   10 cycles
 SCF Done:  E(RB3LYP) =  -355.667554398     A.U. after    9 cycles
 SCF Done:  E(RB3LYP) =  -355.667554684     A.U. after    8 cycles
 SCF Done:  E(RB3LYP) =  -355.667554770     A.U. after    9 cycles
 Optimization completed.
    -- Stationary point found.
 Normal termination of Gaussian 09 at Sat Aug 21 02:20:52 2021.

 ----------------------------------------------------------------------
 #P Geom=AllCheck Guess=TCheck SCRF=Check GenChk RB3LYP/6-31G(d,p) Freq
 ----------------------------------------------------------------------

 Structure from the checkpoint file:  "/public/home/users/caep010/.cache/gau_scr/Gau-182862.chk"
 --------
 Frag_192
 --------
 Charge =  0 Multiplicity = 1

                         Standard orientation:
 ---------------------------------------------------------------------
 Center     Atomic      Atomic             Coordinates (Angstroms)
 Number     Number       Type             X           Y           Z
 ---------------------------------------------------------------------
      1          6           0        1.314550    1.158595    0.042794
      2          7           0        0.583233   -0.064216   -0.292199
      3          7           0        1.128252   -1.279278    0.094166
      4          7           0       -0.831640    0.008901   -0.023686
      5          8           0       -1.448119   -1.037096    0.029076
      6          8           0       -1.293834    1.145001    0.051125
      7          1           0        1.380228    1.319684    1.128595
      8          1           0        2.319503    1.046316   -0.368861
      9          1           0        0.830370    2.017513   -0.414997
     10          1           0        1.656966   -1.202514    0.960914
     11          1           0        1.702343   -1.653661   -0.651987
 ---------------------------------------------------------------------

 SCF Done:  E(RB3LYP) =  -355.667554770     A.U. after    1 cycles

 The electronic state is 1-A.
 Alpha  occ. eigenvalues --  -19.17569 -19.17424 -14.58662 -14.43115 -14.37985
 Alpha  occ. eigenvalues --  -10.23806  -1.23370  -1.05608  -1.02161  -0.83905
 Alpha  occ. eigenvalues --   -0.74317  -0.61200  -0.56052  -0.55400  -0.53071
 Alpha  occ. eigenvalues --   -0.51248  -0.48453  -0.44170  -0.43090  -0.32464
 Alpha  occ. eigenvalues --   -0.30625  -0.30035  -0.28253  -0.26691
 Alpha virt. eigenvalues --   -0.04350   0.05595   0.10333   0.11400   0.13267
 Alpha virt. eigenvalues --    0.13802   0.15589   0.19085   0.22143   0.29021
 Alpha virt. eigenvalues --    0.38533   0.50261   0.52231   0.53567   0.60606

 Mulliken charges:
               1
     1  C   -0.172172
     2  N   -0.225883
     3  N   -0.409941
     4  N    0.648437
     5  O   -0.374663
     6  O   -0.413778
     7  H    0.120441
     8  H    0.122853
     9  H    0.167367
    10  H    0.257412
    11  H    0.279928
 Sum of Mulliken charges =  -0.00000

 Dipole moment (field-independent basis, Debye):
    X=              5.0795    Y=              0.3462    Z=              0.2611  Tot=              5.0979
 Quadrupole moment (field-independent basis, Debye-Ang):
   XX=            -33.1240   YY=            -36.4181   ZZ=            -32.7908
   XY=             -1.5808   XZ=              0.7365   YZ=              0.3066

  Exact polarizability:  48.290  -1.060  47.406  -0.228   0.257  27.650
 Approx polarizability:  69.339  -1.423  85.353  -2.401   0.521  39.915

                      1                      2                      3
                      A                      A                      A
 Frequencies --     91.6099               158.5249               259.2232
 Red. masses --      4.6281                 1.1933                 3.6790
 Frc consts  --      0.0229                 0.0177                 0.1457
 IR Inten    --      0.6838                 0.6731                12.5919

                      4                      5                      6
                      A                      A                      A
 Frequencies --    318.0868               362.0979               425.5584
 Red. masses --      1.0820                 3.9907                 2.7320
 Frc consts  --      0.0645                 0.3083                 0.2915
 IR Inten    --     28.1819                 0.6917                 6.3159

                      7                      8                      9
                      A                      A                      A
 Frequencies --    565.7208               599.1366               712.4946
 Red. masses --      3.1634                 5.1967                 2.2550
 Frc consts  --      0.5965                 1.0991                 0.6745
 IR Inten    --     32.6350                 4.3782               152.1017

                     10                     11                     12
                      A                      A                      A
 Frequencies --    778.4732               860.6645              1014.3423
 Red. masses --     11.2195                11.4946                 2.1209
 Frc consts  --      4.0060                 5.0166                 1.2857
 IR Inten    --     23.3880                61.3343                23.2309

                     13                     14                     15
                      A                      A                      A
 Frequencies --   1130.2273              1187.4516              1290.7803
 Red. masses --      1.4144                 2.0625                 2.9825
 Frc consts  --      1.0645                 1.7135                 2.9277
 IR Inten    --     15.7546                 3.1119                 6.1903

                     16                     17                     18
                      A                      A                      A
 Frequencies --   1320.8390              1356.4016              1453.7600
 Red. masses --      1.6921                 3.5999                 1.2458
 Frc consts  --      1.7393                 3.9023                 1.5513
 IR Inten    --     62.4777               160.0956                27.4767

                     19                     20                     21
                      A                      A                      A
 Frequencies --   1498.7393              1512.2694              1681.0092
 Red. masses --      1.0635                 1.0499                 1.4623
 Frc consts  --      1.4074                 1.4146                 2.4346
 IR Inten    --      7.8482                12.4992                85.5217

                     22                     23                     24
                      A                      A                      A
 Frequencies --   1709.7737              3018.9903              3125.2744
 Red. masses --      3.2143                 1.0511                 1.0890
 Frc consts  --      5.5363                 5.6443                 6.2670
 IR Inten    --    204.2126                38.9033                19.0849

                     25                     26                     27
                      A                      A                      A
 Frequencies --   3197.4202              3476.3647              3607.1963
 Red. masses --      1.1000                 1.0491                 1.0956
 Frc consts  --      6.6256                 7.4698                 8.3992
 IR Inten    --      1.7679                 1.4556                 6.8712

 - Thermochemistry -
 -------------------
 Temperature   298.150 Kelvin.  Pressure   1.00000 Atm.
 Atom     1 has atomic number  6 and mass  12.00000

 Molecular mass:    91.03818 amu.
 Principal axes and moments of inertia in atomic units:
                           1         2         3
     Eigenvalues --   331.08239 467.00869 767.04656
           X            0.99944   0.03260   0.00731
           Y           -0.03262   0.99946   0.00247
           Z           -0.00722  -0.00271   0.99997
 This molecule is an asymmetric top.
 Rotational symmetry number  1.
 Rotational temperatures (Kelvin)      0.26161     0.18547     0.11292
 Rotational constants (GHZ):           5.45103     3.86447     2.35284
 Zero-point vibrational energy     219589.1 (Joules/Mol)
                                   52.48305 (Kcal/Mol)
 Warning -- explicit consideration of   8 degrees of freedom as
           vibrations may cause significant error
 Vibrational temperatures:    131.81   228.08   372.96   457.66   520.98
          (Kelvin)            612.28   813.95   862.02  1025.12  1120.05
                             1238.30  1459.41  1626.14  1708.48  1857.14
                             1900.39  1951.56  2091.63  2156.35  2175.82
                             2418.59  2459.98  4343.65  4496.57  4600.37
                             5001.71  5189.94

 Zero-point correction=                           0.083637 (Hartree/Particle)
 Thermal correction to Energy=                    0.090075
 Thermal correction to Enthalpy=                  0.091019
 Thermal correction to Gibbs Free Energy=         0.053563
 Sum of electronic and zero-point Energies=           -355.583918
 Sum of electronic and thermal Energies=              -355.577480
 Sum of electronic and thermal Enthalpies=            -355.576536
 Sum of electronic and thermal Free Energies=         -355.613992

                     E (Thermal)             CV                S
                      KCal/Mol        Cal/Mol-Kelvin    Cal/Mol-Kelvin
 Total                   56.523             21.902             78.833
 Electronic               0.000              0.000              0.000
 Translational            0.889              2.981             39.438
 Rotational               0.889              2.981             26.275
 Vibrational             54.745             15.940             13.120
 Vibration     1          0.602              1.955              3.625
 Vibration     2          0.621              1.893              2.567
 Vibration     3          0.668              1.747              1.667
 Vibration     4          0.704              1.639              1.320
 Vibration     5          0.736              1.550              1.113
 Vibration     6          0.787              1.415              0.873
 Vibration     7          0.922              1.105              0.513
 Vibration     8          0.957              1.034              0.451

 Optimization completed.
    -- Stationary point found.
 Normal termination of Gaussian 09 at Sat Aug 21 02:21:01 2021.
