 Gaussian 09, Revision E.01,
 Gaussian 09:  ES64L-G09RevE.01 30-Nov-2015

 ----------------------------
 #P OPT Freq B3LYP/6-31G(d,p)
 ----------------------------

 --------
 Frag_762
 --------
 Symbolic Z-matrix:
 Charge =  0 Multiplicity = 1

 SCF Done:  E(RB3LYP) =  -305.072612348     A.U. after   13 cycles
 SCF Done:  E(RB3LYP) =  -305.072649694     A.U. after   10 cycles
 SCF Done:  E(RB3LYP) =  -305.072626949     A.U. after    9 cycles
 SCF Done:  E(RB3LYP) =  -305.072660583     A.U. after    9 cycles
 SCF Done:  E(RB3LYP) =  -305.072660872     A.U. after    6 cycles
 SCF Done:  E(RB3LYP) =  -305.072660877     A.U. after    6 cycles
 Optimization completed.
    -- Stationary point found.
 Normal termination of Gaussian 09 at Thu Sep  8 15:12:32 2022.

 ----------------------------------------------------------------------
 #P Geom=AllCheck Guess=TCheck SCRF=Check GenChk RB3LYP/6-31G(d,p) Freq
 ----------------------------------------------------------------------

 Structure from the checkpoint file:  "B3LYP6-31Gdp.Frag_762.chk"
 --------
 Frag_762
 --------
 Charge =  0 Multiplicity = 1

                         Standard orientation:
 ---------------------------------------------------------------------
 Center     Atomic      Atomic             Coordinates (Angstroms)
 Number     Number       Type             X           Y           Z
 ---------------------------------------------------------------------
      1          6           0        1.726987   -0.720339   -0.334120
      2          6           0        0.447402    0.023653    0.035487
      3          7           0        0.580814    1.427144   -0.402889
      4          8           0        0.315901    0.008219    1.440121
      5          6           0       -0.801268   -0.678301   -0.560489
      6          7           0       -2.009802   -0.060698    0.004806
      7          1           0        1.889446   -0.710787   -1.417430
      8          1           0        1.677374   -1.758737    0.004677
      9          1           0        2.574464   -0.228047    0.146814
     10          1           0        0.514515    1.496857   -1.417197
     11          1           0       -0.176528    1.978013   -0.004609
     12          1           0       -0.641451    0.115760    1.592808
     13          1           0       -0.788535   -1.729018   -0.252658
     14          1           0       -0.757381   -0.654970   -1.661361
     15          1           0       -2.809048   -0.680984   -0.073860
     16          1           0       -2.245876    0.790959   -0.496836
 ---------------------------------------------------------------------

 SCF Done:  E(RB3LYP) =  -305.072660877     A.U. after    1 cycles

 The electronic state is 1-A.
 Alpha  occ. eigenvalues --  -19.12086 -14.33518 -14.30447 -10.25410 -10.21141
 Alpha  occ. eigenvalues --  -10.16369  -1.01245  -0.89299  -0.85729  -0.73188
 Alpha  occ. eigenvalues --   -0.66706  -0.56712  -0.51318  -0.48754  -0.47332
 Alpha  occ. eigenvalues --   -0.46075  -0.44661  -0.38762  -0.37435  -0.36677
 Alpha  occ. eigenvalues --   -0.36069  -0.31595  -0.27135  -0.25581  -0.22868
 Alpha virt. eigenvalues --    0.05449   0.10000   0.11665   0.13021   0.15025
 Alpha virt. eigenvalues --    0.15592   0.17313   0.18569   0.19277   0.21159
 Alpha virt. eigenvalues --    0.22410   0.23913   0.26678   0.27803   0.29416

 Mulliken charges:
               1
     1  C   -0.295028
     2  C    0.375093
     3  N   -0.581467
     4  O   -0.553345
     5  C   -0.072361
     6  N   -0.630757
     7  H    0.084795
     8  H    0.102030
     9  H    0.130862
    10  H    0.220804
    11  H    0.227586
    12  H    0.314201
    13  H    0.108803
    14  H    0.075030
    15  H    0.252690
    16  H    0.241064
 Sum of Mulliken charges =   0.00000

 Dipole moment (field-independent basis, Debye):
    X=             -3.1542    Y=             -0.5279    Z=             -2.6937  Tot=              4.1814
 Quadrupole moment (field-independent basis, Debye-Ang):
   XX=            -34.8852   YY=            -37.0966   ZZ=            -39.0164
   XY=             -2.2688   XZ=             -0.3671   YZ=             -1.0659

  Exact polarizability:  55.192  -1.564  49.551  -1.767  -0.893  47.666
 Approx polarizability:  69.246  -1.365  67.979  -2.533  -1.890  69.763

                      1                      2                      3
                      A                      A                      A
 Frequencies --    142.8900               200.1073               223.5320
 Red. masses --      2.7193                 1.0940                 1.0490
 Frc consts  --      0.0327                 0.0258                 0.0309
 IR Inten    --      2.6194                17.5903                 3.2104

                      4                      5                      6
                      A                      A                      A
 Frequencies --    260.2364               292.6122               357.8455
 Red. masses --      2.9094                 1.1001                 2.7181
 Frc consts  --      0.1161                 0.0555                 0.2051
 IR Inten    --      0.9213                46.6051                 1.9997

                      7                      8                      9
                      A                      A                      A
 Frequencies --    386.1391               438.2844               496.7025
 Red. masses --      2.7477                 2.2072                 3.9084
 Frc consts  --      0.2414                 0.2498                 0.5681
 IR Inten    --      8.9702                 5.3389                 5.2962

                     10                     11                     12
                      A                      A                      A
 Frequencies --    589.5600               640.5524               761.9476
 Red. masses --      2.5299                 1.1453                 3.1539
 Frc consts  --      0.5181                 0.2769                 1.0788
 IR Inten    --     39.6734                72.2408                16.1314

                     13                     14                     15
                      A                      A                      A
 Frequencies --    835.5215               864.9462               917.7875
 Red. masses --      1.2799                 1.3971                 2.0230
 Frc consts  --      0.5264                 0.6158                 1.0040
 IR Inten    --    145.3015               123.7921                14.8274

                     16                     17                     18
                      A                      A                      A
 Frequencies --    941.9401               986.8658              1046.2618
 Red. masses --      2.1366                 1.3904                 2.0687
 Frc consts  --      1.1169                 0.7978                 1.3342
 IR Inten    --     62.4658                 4.0072                41.4924

                     19                     20                     21
                      A                      A                      A
 Frequencies --   1075.2483              1108.5333              1163.1765
 Red. masses --      2.4773                 1.3209                 1.7242
 Frc consts  --      1.6875                 0.9563                 1.3745
 IR Inten    --      6.2667                11.6387                21.5400

                     22                     23                     24
                      A                      A                      A
 Frequencies --   1260.3328              1295.2719              1344.7911
 Red. masses --      2.1658                 1.6226                 1.4408
 Frc consts  --      2.0269                 1.6039                 1.5352
 IR Inten    --     38.4051                27.8970                82.0512

                     25                     26                     27
                      A                      A                      A
 Frequencies --   1392.2339              1419.2021              1464.6286
 Red. masses --      1.2616                 1.2960                 1.6580
 Frc consts  --      1.4408                 1.5380                 2.0954
 IR Inten    --     19.8633                12.8239                85.2410

                     28                     29                     30
                      A                      A                      A
 Frequencies --   1496.1701              1507.1194              1510.7936
 Red. masses --      1.0722                 1.0610                 1.0792
 Frc consts  --      1.4141                 1.4199                 1.4513
 IR Inten    --      4.3315                 1.7831                 4.0522

                     31                     32                     33
                      A                      A                      A
 Frequencies --   1641.8832              1662.1507              2986.0266
 Red. masses --      1.1114                 1.0962                 1.0703
 Frc consts  --      1.7652                 1.7843                 5.6227
 IR Inten    --     26.1891                25.9732                61.2426

                     34                     35                     36
                      A                      A                      A
 Frequencies --   3052.7503              3087.5015              3125.2552
 Red. masses --      1.0378                 1.0935                 1.1003
 Frc consts  --      5.6983                 6.1416                 6.3319
 IR Inten    --     19.1102                24.1800                31.0455

                     37                     38                     39
                      A                      A                      A
 Frequencies --   3153.2969              3471.8549              3515.5137
 Red. masses --      1.1026                 1.0485                 1.0504
 Frc consts  --      6.4596                 7.4463                 7.6483
 IR Inten    --     15.0839                 2.1557                 0.3826

                     40                     41                     42
                      A                      A                      A
 Frequencies --   3573.5451              3601.9004              3655.9683
 Red. masses --      1.0933                 1.0929                 1.0647
 Frc consts  --      8.2262                 8.3536                 8.3848
 IR Inten    --      1.0796                 2.0518                84.8246

 - Thermochemistry -
 -------------------
 Temperature   298.150 Kelvin.  Pressure   1.00000 Atm.
 Atom     1 has atomic number  6 and mass  12.00000

 Molecular mass:    90.07931 amu.
 Principal axes and moments of inertia in atomic units:
                           1         2         3
     Eigenvalues --   374.28053 667.98991 684.28380
           X            0.99944  -0.02951  -0.01588
           Y            0.03047   0.99749   0.06398
           Z            0.01395  -0.06443   0.99782
 This molecule is an asymmetric top.
 Rotational symmetry number  1.
 Rotational temperatures (Kelvin)      0.23141     0.12966     0.12658
 Rotational constants (GHZ):           4.82189     2.70175     2.63742
 Zero-point vibrational energy     376517.9 (Joules/Mol)
                                   89.98994 (Kcal/Mol)
 Warning -- explicit consideration of  10 degrees of freedom as
           vibrations may cause significant error
 Vibrational temperatures:    205.59   287.91   321.61   374.42   421.00
          (Kelvin)            514.86   555.57   630.59   714.64   848.24
                              921.61  1096.27  1202.13  1244.46  1320.49
                             1355.24  1419.88  1505.34  1547.04  1594.93
                             1673.55  1813.34  1863.61  1934.85  2003.11
                             2041.91  2107.27  2152.65  2168.41  2173.69
                             2362.30  2391.46  4296.22  4392.22  4442.22
                             4496.54  4536.89  4995.22  5058.03  5141.53
                             5182.32  5260.12

 Zero-point correction=                           0.143408 (Hartree/Particle)
 Thermal correction to Energy=                    0.150896
 Thermal correction to Enthalpy=                  0.151840
 Thermal correction to Gibbs Free Energy=         0.112950
 Sum of electronic and zero-point Energies=           -304.929253
 Sum of electronic and thermal Energies=              -304.921765
 Sum of electronic and thermal Enthalpies=            -304.920821
 Sum of electronic and thermal Free Energies=         -304.959711

                     E (Thermal)             CV                S
                      KCal/Mol        Cal/Mol-Kelvin    Cal/Mol-Kelvin
 Total                   94.689             28.009             81.852
 Electronic               0.000              0.000              0.000
 Translational            0.889              2.981             39.407
 Rotational               0.889              2.981             26.639
 Vibrational             92.911             22.047             15.806
 Vibration     1          0.616              1.910              2.765
 Vibration     2          0.638              1.840              2.132
 Vibration     3          0.649              1.805              1.930
 Vibration     4          0.668              1.745              1.660
 Vibration     5          0.688              1.688              1.459
 Vibration     6          0.733              1.559              1.131
 Vibration     7          0.755              1.500              1.015
 Vibration     8          0.798              1.387              0.832
 Vibration     9          0.852              1.257              0.666
 Vibration    10          0.947              1.054              0.468

 Normal termination of Gaussian 09 at Thu Sep  8 15:12:45 2022.
