 Gaussian 09, Revision E.01,
 Gaussian 09:  ES64L-G09RevE.01 30-Nov-2015

 --------------------------------
 #P OPT=calcfc Freq B3LYP/6-31G**
 --------------------------------

 --------
 Frag_214
 --------
 Symbolic Z-matrix:
 Charge =  0 Multiplicity = 1

 SCF Done:  E(RB3LYP) =  -244.611438757     A.U. after   13 cycles
 SCF Done:  E(RB3LYP) =  -244.627881101     A.U. after   13 cycles
 SCF Done:  E(RB3LYP) =  -244.627635154     A.U. after   12 cycles
 SCF Done:  E(RB3LYP) =  -244.628640349     A.U. after   10 cycles
 SCF Done:  E(RB3LYP) =  -244.628285049     A.U. after   12 cycles
 SCF Done:  E(RB3LYP) =  -244.628909909     A.U. after   10 cycles
 SCF Done:  E(RB3LYP) =  -244.630407103     A.U. after   12 cycles
 SCF Done:  E(RB3LYP) =  -244.630704726     A.U. after   11 cycles
 SCF Done:  E(RB3LYP) =  -244.630789810     A.U. after   11 cycles
 SCF Done:  E(RB3LYP) =  -244.630801515     A.U. after    9 cycles
 SCF Done:  E(RB3LYP) =  -244.630802200     A.U. after    8 cycles
 SCF Done:  E(RB3LYP) =  -244.630802286     A.U. after    7 cycles
 SCF Done:  E(RB3LYP) =  -244.630802308     A.U. after    7 cycles
 Optimization completed.
    -- Stationary point found.
 Normal termination of Gaussian 09 at Sat Aug 21 02:20:32 2021.

 ----------------------------------------------------------------------
 #P Geom=AllCheck Guess=TCheck SCRF=Check GenChk RB3LYP/6-31G(d,p) Freq
 ----------------------------------------------------------------------

 Structure from the checkpoint file:  "/public/home/users/caep010/.cache/gau_scr/Gau-162677.chk"
 --------
 Frag_214
 --------
 Charge =  0 Multiplicity = 1

                         Standard orientation:
 ---------------------------------------------------------------------
 Center     Atomic      Atomic             Coordinates (Angstroms)
 Number     Number       Type             X           Y           Z
 ---------------------------------------------------------------------
      1          6           0        1.737586   -0.705871   -0.085796
      2          6           0        0.582266   -0.020107    0.029389
      3          7           0        0.466057    1.362692   -0.046834
      4          7           0       -0.644965   -0.688456    0.254430
      5          7           0       -1.816695    0.017982   -0.111060
      6          1           0        1.749462   -1.788671   -0.056535
      7          1           0        2.684265   -0.190826   -0.185844
      8          1           0        1.281335    1.865526    0.271365
      9          1           0       -0.410617    1.710244    0.319382
     10          1           0       -0.604621   -1.646702   -0.080231
     11          1           0       -2.073681   -0.138590   -1.086936
     12          1           0       -2.576032   -0.300633    0.481490
 ---------------------------------------------------------------------

 SCF Done:  E(RB3LYP) =  -244.630802308     A.U. after    1 cycles

 The electronic state is 1-A.
 Alpha  occ. eigenvalues --  -14.36025 -14.35811 -14.31970 -10.23416 -10.12902
 Alpha  occ. eigenvalues --   -0.98375  -0.88734  -0.78813  -0.68337  -0.57311
 Alpha  occ. eigenvalues --   -0.51861  -0.50667  -0.49531  -0.44999  -0.39686
 Alpha  occ. eigenvalues --   -0.37201  -0.34304  -0.27318  -0.24701  -0.16994
 Alpha virt. eigenvalues --    0.06217   0.07984   0.10537   0.12884   0.14876
 Alpha virt. eigenvalues --    0.15966   0.17959   0.19155   0.23396   0.28378
 Alpha virt. eigenvalues --    0.37722   0.39871   0.56261   0.57891   0.58949

 Mulliken charges:
               1
     1  C   -0.358577
     2  C    0.503471
     3  N   -0.639430
     4  N   -0.452688
     5  N   -0.475819
     6  H    0.061713
     7  H    0.069229
     8  H    0.255706
     9  H    0.273032
    10  H    0.247972
    11  H    0.251148
    12  H    0.264242
 Sum of Mulliken charges =   0.00000

 Dipole moment (field-independent basis, Debye):
    X=             -2.2549    Y=             -0.3123    Z=             -0.0339  Tot=              2.2767
 Quadrupole moment (field-independent basis, Debye-Ang):
   XX=            -26.3252   YY=            -27.1070   ZZ=            -32.9393
   XY=              4.3950   XZ=              1.6041   YZ=              2.9436

  Exact polarizability:  60.382  -5.583  45.331  -0.808   0.718  23.787
 Approx polarizability:  82.695 -12.557  64.384  -2.565   0.292  33.619

                      1                      2                      3
                      A                      A                      A
 Frequencies --    102.8662               283.6963               301.1394
 Red. masses --      2.9118                 1.2486                 1.5598
 Frc consts  --      0.0182                 0.0592                 0.0833
 IR Inten    --     15.1566                63.8208                16.7214

                      4                      5                      6
                      A                      A                      A
 Frequencies --    389.8955               442.7516               553.0497
 Red. masses --      1.5324                 2.0420                 1.6220
 Frc consts  --      0.1373                 0.2358                 0.2923
 IR Inten    --     19.5511                14.6888               119.2399

                      7                      8                      9
                      A                      A                      A
 Frequencies --    576.8425               640.8438               658.8832
 Red. masses --      1.8720                 1.3368                 1.1879
 Frc consts  --      0.3670                 0.3235                 0.3038
 IR Inten    --    112.3325                23.6239                16.5883

                     10                     11                     12
                      A                      A                      A
 Frequencies --    707.6908               720.5505               879.2490
 Red. masses --      3.4423                 1.7146                 1.7271
 Frc consts  --      1.0157                 0.5245                 0.7867
 IR Inten    --    127.8562                78.7355                49.1826

                     13                     14                     15
                      A                      A                      A
 Frequencies --    956.9796               983.3793              1141.5099
 Red. masses --      1.7829                 1.7312                 1.7288
 Frc consts  --      0.9620                 0.9864                 1.3272
 IR Inten    --     62.2278                13.7931                 0.9056

                     16                     17                     18
                      A                      A                      A
 Frequencies --   1179.4377              1311.8756              1420.5914
 Red. masses --      1.9405                 1.1956                 1.2222
 Frc consts  --      1.5904                 1.2123                 1.4532
 IR Inten    --     17.9736                16.5461                 5.7077

                     19                     20                     21
                      A                      A                      A
 Frequencies --   1429.8176              1501.8009              1621.0002
 Red. masses --      2.8683                 1.2114                 1.1917
 Frc consts  --      3.4549                 1.6098                 1.8450
 IR Inten    --     44.4401                 7.9517                94.4229

                     22                     23                     24
                      A                      A                      A
 Frequencies --   1685.6039              1730.3665              3182.3779
 Red. masses --      1.1177                 4.5787                 1.0591
 Frc consts  --      1.8710                 8.0773                 6.3196
 IR Inten    --     24.5878               222.1874                 0.2831

                     25                     26                     27
                      A                      A                      A
 Frequencies --   3268.8540              3430.8348              3517.9094
 Red. masses --      1.1169                 1.0543                 1.0755
 Frc consts  --      7.0315                 7.3114                 7.8421
 IR Inten    --     14.2975                20.4242                 4.5124

                     28                     29                     30
                      A                      A                      A
 Frequencies --   3568.4949              3576.0068              3691.7498
 Red. masses --      1.0471                 1.0890                 1.0988
 Frc consts  --      7.8564                 8.2049                 8.8235
 IR Inten    --     24.8871                 1.7605                27.9685

 - Thermochemistry -
 -------------------
 Temperature   298.150 Kelvin.  Pressure   1.00000 Atm.
 Atom     1 has atomic number  6 and mass  12.00000

 Molecular mass:    73.06400 amu.
 Principal axes and moments of inertia in atomic units:
                           1         2         3
     Eigenvalues --   192.95688 434.80863 607.67491
           X            0.99998   0.00120   0.00584
           Y           -0.00136   0.99963   0.02728
           Z           -0.00580  -0.02729   0.99961
 This molecule is an asymmetric top.
 Rotational symmetry number  1.
 Rotational temperatures (Kelvin)      0.44888     0.19920     0.14253
 Rotational constants (GHZ):           9.35308     4.15066     2.96991
 Zero-point vibrational energy     271887.5 (Joules/Mol)
                                   64.98268 (Kcal/Mol)
 Warning -- explicit consideration of   7 degrees of freedom as
           vibrations may cause significant error
 Vibrational temperatures:    148.00   408.18   433.27   560.97   637.02
          (Kelvin)            795.71   829.95   922.03   947.98  1018.21
                             1036.71  1265.04  1376.88  1414.86  1642.38
                             1696.95  1887.49  2043.91  2057.19  2160.75
                             2332.25  2425.21  2489.61  4578.73  4703.15
                             4936.20  5061.48  5134.26  5145.07  5311.60

 Zero-point correction=                           0.103556 (Hartree/Particle)
 Thermal correction to Energy=                    0.109628
 Thermal correction to Enthalpy=                  0.110572
 Thermal correction to Gibbs Free Energy=         0.074815
 Sum of electronic and zero-point Energies=           -244.527246
 Sum of electronic and thermal Energies=              -244.521174
 Sum of electronic and thermal Enthalpies=            -244.520230
 Sum of electronic and thermal Free Energies=         -244.555988

                     E (Thermal)             CV                S
                      KCal/Mol        Cal/Mol-Kelvin    Cal/Mol-Kelvin
 Total                   68.793             22.176             75.258
 Electronic               0.000              0.000              0.000
 Translational            0.889              2.981             38.783
 Rotational               0.889              2.981             25.436
 Vibrational             67.015             16.215             11.039
 Vibration     1          0.605              1.947              3.399
 Vibration     2          0.682              1.704              1.511
 Vibration     3          0.693              1.672              1.411
 Vibration     4          0.758              1.492              1.001
 Vibration     5          0.802              1.377              0.818
 Vibration     6          0.908              1.133              0.538
 Vibration     7          0.933              1.081              0.491

 Optimization completed.
    -- Stationary point found.
 Normal termination of Gaussian 09 at Sat Aug 21 02:20:40 2021.
