 Gaussian 09, Revision E.01,
 Gaussian 09:  ES64L-G09RevE.01 30-Nov-2015

 ----------------------------
 #P OPT Freq B3LYP/6-31G(d,p)
 ----------------------------

 --------
 Frag_960
 --------
 Symbolic Z-matrix:
 Charge =  0 Multiplicity = 1

 SCF Done:  E(RB3LYP) =  -303.844498662     A.U. after   14 cycles
 SCF Done:  E(RB3LYP) =  -303.844552989     A.U. after   10 cycles
 SCF Done:  E(RB3LYP) =  -303.844554511     A.U. after    9 cycles
 SCF Done:  E(RB3LYP) =  -303.844556723     A.U. after    9 cycles
 SCF Done:  E(RB3LYP) =  -303.844556061     A.U. after    8 cycles
 SCF Done:  E(RB3LYP) =  -303.844555431     A.U. after    8 cycles
 SCF Done:  E(RB3LYP) =  -303.844554960     A.U. after    8 cycles
 SCF Done:  E(RB3LYP) =  -303.844555336     A.U. after    7 cycles
 Optimization completed.
    -- Stationary point found.
 Normal termination of Gaussian 09 at Thu Sep  8 15:15:19 2022.

 ----------------------------------------------------------------------
 #P Geom=AllCheck Guess=TCheck SCRF=Check GenChk RB3LYP/6-31G(d,p) Freq
 ----------------------------------------------------------------------

 Structure from the checkpoint file:  "B3LYP6-31Gdp.Frag_960.chk"
 --------
 Frag_960
 --------
 Charge =  0 Multiplicity = 1

                         Standard orientation:
 ---------------------------------------------------------------------
 Center     Atomic      Atomic             Coordinates (Angstroms)
 Number     Number       Type             X           Y           Z
 ---------------------------------------------------------------------
      1          6           0       -1.210740    1.265464   -0.263501
      2          6           0       -0.797842   -0.158570    0.018220
      3          7           0       -1.694863   -1.059655    0.140100
      4          6           0        0.710977   -0.439371    0.129851
      5          7           0        1.465018   -0.204033   -1.083965
      6          8           0        1.303980    0.399177    1.109212
      7          1           0       -0.744360    1.949700    0.451840
      8          1           0       -2.296499    1.350948   -0.212610
      9          1           0       -0.881959    1.576031   -1.262305
     10          1           0       -1.256675   -1.970296    0.330668
     11          1           0        0.831030   -1.506468    0.388698
     12          1           0        1.121415   -0.795119   -1.835639
     13          1           0        1.368835    0.766618   -1.372285
     14          1           0        0.820909    0.275846    1.937572
 ---------------------------------------------------------------------

 SCF Done:  E(RB3LYP) =  -303.844555336     A.U. after    1 cycles

 The electronic state is 1-A.
 Alpha  occ. eigenvalues --  -19.15932 -14.32913 -14.32055 -10.27510 -10.23502
 Alpha  occ. eigenvalues --  -10.18645  -1.04057  -0.91061  -0.88197  -0.73384
 Alpha  occ. eigenvalues --   -0.66700  -0.56367  -0.54322  -0.51037  -0.45540
 Alpha  occ. eigenvalues --   -0.44615  -0.42459  -0.39777  -0.38769  -0.36839
 Alpha  occ. eigenvalues --   -0.31170  -0.29713  -0.27788  -0.23533
 Alpha virt. eigenvalues --   -0.00517   0.06282   0.08734   0.10155   0.12890
 Alpha virt. eigenvalues --    0.14624   0.16755   0.18677   0.19871   0.21879
 Alpha virt. eigenvalues --    0.23082   0.24974   0.31687   0.43558   0.53527

 Mulliken charges:
               1
     1  C   -0.353871
     2  C    0.246028
     3  N   -0.516767
     4  C    0.241651
     5  N   -0.570414
     6  O   -0.522531
     7  H    0.126191
     8  H    0.138008
     9  H    0.113217
    10  H    0.213790
    11  H    0.077498
    12  H    0.245720
    13  H    0.250945
    14  H    0.310536
 Sum of Mulliken charges =  -0.00000

 Dipole moment (field-independent basis, Debye):
    X=             -0.1293    Y=              0.0640    Z=             -0.1526  Tot=              0.2100
 Quadrupole moment (field-independent basis, Debye-Ang):
   XX=            -49.5006   YY=            -33.6001   ZZ=            -30.7016
   XY=             -2.6417   XZ=             -0.6297   YZ=             -1.0460

  Exact polarizability:  50.296   3.993  53.962  -2.598  -2.217  42.706
 Approx polarizability:  72.997  13.293  78.691  -4.543  -2.994  59.751

                      1                      2                      3
                      A                      A                      A
 Frequencies --     51.8684               142.7108               216.9040
 Red. masses --      2.8633                 1.1281                 1.3590
 Frc consts  --      0.0045                 0.0135                 0.0377
 IR Inten    --      3.1928                 0.4910                43.8202

                      4                      5                      6
                      A                      A                      A
 Frequencies --    250.5970               276.6989               324.2785
 Red. masses --      2.3100                 3.2636                 1.0852
 Frc consts  --      0.0855                 0.1472                 0.0672
 IR Inten    --      9.0979                13.3445               116.9086

                      7                      8                      9
                      A                      A                      A
 Frequencies --    407.1731               513.4779               582.9710
 Red. masses --      3.6546                 2.7691                 2.2436
 Frc consts  --      0.3570                 0.4302                 0.4493
 IR Inten    --     17.0969                18.0621                19.5428

                     10                     11                     12
                      A                      A                      A
 Frequencies --    599.7781               773.7354               862.2189
 Red. masses --      3.8099                 2.4707                 1.7095
 Frc consts  --      0.8075                 0.8715                 0.7488
 IR Inten    --      6.9678                57.3320               166.7828

                     13                     14                     15
                      A                      A                      A
 Frequencies --    926.4918              1000.5106              1022.3613
 Red. masses --      1.4409                 2.2652                 1.8625
 Frc consts  --      0.7287                 1.3360                 1.1470
 IR Inten    --     67.9885                11.2807                24.8036

                     16                     17                     18
                      A                      A                      A
 Frequencies --   1083.3636              1104.5476              1133.0330
 Red. masses --      1.4290                 2.4203                 1.7755
 Frc consts  --      0.9882                 1.7397                 1.3429
 IR Inten    --      9.0809               109.0334                71.0869

                     19                     20                     21
                      A                      A                      A
 Frequencies --   1185.2384              1344.2219              1344.7408
 Red. masses --      1.2205                 1.3508                 1.5602
 Frc consts  --      1.0102                 1.4381                 1.6623
 IR Inten    --     16.9951                 1.9834                93.9644

                     22                     23                     24
                      A                      A                      A
 Frequencies --   1376.8640              1423.7051              1427.7870
 Red. masses --      1.3003                 1.4121                 1.5419
 Frc consts  --      1.4524                 1.6864                 1.8520
 IR Inten    --     18.3753                 6.3977                47.2958

                     25                     26                     27
                      A                      A                      A
 Frequencies --   1489.1793              1493.3653              1650.7090
 Red. masses --      1.0520                 1.0545                 1.1107
 Frc consts  --      1.3745                 1.3855                 1.7831
 IR Inten    --     11.5617                 7.4829                29.9856

                     28                     29                     30
                      A                      A                      A
 Frequencies --   1726.8260              2959.9908              3049.4309
 Red. masses --      8.4744                 1.0853                 1.0402
 Frc consts  --     14.8887                 5.6026                 5.6989
 IR Inten    --     44.0917                68.9600                10.7185

                     31                     32                     33
                      A                      A                      A
 Frequencies --   3110.4679              3167.0978              3384.2650
 Red. masses --      1.0956                 1.1025                 1.0735
 Frc consts  --      6.2454                 6.5155                 7.2439
 IR Inten    --     13.3690                 6.6098                15.2644

                     34                     35                     36
                      A                      A                      A
 Frequencies --   3505.4823              3603.7728              3814.9876
 Red. masses --      1.0488                 1.0936                 1.0662
 Frc consts  --      7.5931                 8.3678                 9.1427
 IR Inten    --      1.2758                 2.1276                21.5011

 - Thermochemistry -
 -------------------
 Temperature   298.150 Kelvin.  Pressure   1.00000 Atm.
 Atom     1 has atomic number  6 and mass  12.00000

 Molecular mass:    88.06366 amu.
 Principal axes and moments of inertia in atomic units:
                           1         2         3
     Eigenvalues --   373.96673 678.61363 707.92434
           X            0.99862  -0.05239  -0.00239
           Y            0.05079   0.97742  -0.20512
           Z            0.01308   0.20472   0.97873
 This molecule is an asymmetric top.
 Rotational symmetry number  1.
 Rotational temperatures (Kelvin)      0.23161     0.12763     0.12235
 Rotational constants (GHZ):           4.82594     2.65945     2.54934
 Zero-point vibrational energy     313008.0 (Joules/Mol)
                                   74.81071 (Kcal/Mol)
 Warning -- explicit consideration of  10 degrees of freedom as
           vibrations may cause significant error
 Vibrational temperatures:     74.63   205.33   312.08   360.55   398.11
          (Kelvin)            466.56   585.83   738.78   838.76   862.95
                             1113.23  1240.54  1333.01  1439.51  1470.95
                             1558.72  1589.20  1630.18  1705.29  1934.03
                             1934.78  1981.00  2048.39  2054.26  2142.59
                             2148.62  2375.00  2484.51  4258.76  4387.45
                             4475.26  4556.74  4869.20  5043.60  5185.02
                             5488.91

 Zero-point correction=                           0.119218 (Hartree/Particle)
 Thermal correction to Energy=                    0.126659
 Thermal correction to Enthalpy=                  0.127603
 Thermal correction to Gibbs Free Energy=         0.087863
 Sum of electronic and zero-point Energies=           -303.725337
 Sum of electronic and thermal Energies=              -303.717896
 Sum of electronic and thermal Enthalpies=            -303.716952
 Sum of electronic and thermal Free Energies=         -303.756692

                     E (Thermal)             CV                S
                      KCal/Mol        Cal/Mol-Kelvin    Cal/Mol-Kelvin
 Total                   79.480             25.822             83.640
 Electronic               0.000              0.000              0.000
 Translational            0.889              2.981             39.339
 Rotational               0.889              2.981             26.688
 Vibrational             77.702             19.861             17.613
 Vibration     1          0.596              1.977              4.745
 Vibration     2          0.616              1.910              2.767
 Vibration     3          0.646              1.815              1.985
 Vibration     4          0.663              1.762              1.726
 Vibration     5          0.678              1.717              1.554
 Vibration     6          0.709              1.627              1.288
 Vibration     7          0.772              1.455              0.937
 Vibration     8          0.869              1.220              0.625
 Vibration     9          0.940              1.068              0.480
 Vibration    10          0.958              1.032              0.450

 Optimization completed.
    -- Stationary point found.
 Normal termination of Gaussian 09 at Thu Sep  8 15:15:31 2022.
