 Gaussian 09, Revision E.01,
 Gaussian 09:  ES64L-G09RevE.01 30-Nov-2015

 --------------------------------
 #P OPT=calcfc Freq B3LYP/6-31G**
 --------------------------------

 --------
 Frag_286
 --------
 Symbolic Z-matrix:
 Charge =  0 Multiplicity = 1

 SCF Done:  E(RB3LYP) =  -282.750683892     A.U. after   15 cycles
 SCF Done:  E(RB3LYP) =  -282.773603041     A.U. after   14 cycles
 SCF Done:  E(RB3LYP) =  -282.773005508     A.U. after   14 cycles
 SCF Done:  E(RB3LYP) =  -282.774519737     A.U. after   11 cycles
 SCF Done:  E(RB3LYP) =  -282.771760889     A.U. after   13 cycles
 SCF Done:  E(RB3LYP) =  -282.774609247     A.U. after   10 cycles
 SCF Done:  E(RB3LYP) =  -282.776161644     A.U. after   12 cycles
 SCF Done:  E(RB3LYP) =  -282.776300898     A.U. after   12 cycles
 SCF Done:  E(RB3LYP) =  -282.776319332     A.U. after   10 cycles
 SCF Done:  E(RB3LYP) =  -282.776320781     A.U. after    8 cycles
 SCF Done:  E(RB3LYP) =  -282.776320845     A.U. after    7 cycles
 Optimization completed.
    -- Stationary point found.
 Normal termination of Gaussian 09 at Fri Sep 10 17:29:45 2021.

 ----------------------------------------------------------------------
 #P Geom=AllCheck Guess=TCheck SCRF=Check GenChk RB3LYP/6-31G(d,p) Freq
 ----------------------------------------------------------------------

 Structure from the checkpoint file:  "/public/home/users/caep010/.cache/gau_scr/Gau-53282.chk"
 --------
 Frag_286
 --------
 Charge =  0 Multiplicity = 1

                         Standard orientation:
 ---------------------------------------------------------------------
 Center     Atomic      Atomic             Coordinates (Angstroms)
 Number     Number       Type             X           Y           Z
 ---------------------------------------------------------------------
      1          6           0        1.232194    1.343829   -0.274813
      2          6           0        0.723994    0.125670   -0.015411
      3          7           0        1.492609   -1.019238    0.214921
      4          6           0       -0.752539   -0.148418   -0.040576
      5          7           0       -1.285819   -1.285402   -0.310436
      6          7           0       -1.554195    0.944436    0.230732
      7          1           0        0.589125    2.151186   -0.599033
      8          1           0        2.301021    1.533026   -0.242647
      9          1           0        1.129800   -1.629666    0.937077
     10          1           0        2.482953   -0.845777    0.326091
     11          1           0       -0.560136   -1.937436   -0.611883
     12          1           0       -1.199789    1.612837    0.898836
     13          1           0       -2.533027    0.710775    0.329834
 ---------------------------------------------------------------------

 SCF Done:  E(RB3LYP) =  -282.776320845     A.U. after    1 cycles

 The electronic state is 1-A.
 Alpha  occ. eigenvalues --  -14.34747 -14.33909 -14.28833 -10.25364 -10.23164
 Alpha  occ. eigenvalues --  -10.17262  -0.94788  -0.90770  -0.83822  -0.74328
 Alpha  occ. eigenvalues --   -0.62419  -0.56461  -0.53965  -0.50861  -0.45970
 Alpha  occ. eigenvalues --   -0.43860  -0.42700  -0.39317  -0.37225  -0.32533
 Alpha  occ. eigenvalues --   -0.25292  -0.23540  -0.21842
 Alpha virt. eigenvalues --   -0.01003   0.07261   0.08883   0.11226   0.13047
 Alpha virt. eigenvalues --    0.14741   0.15896   0.16715   0.17947   0.27509
 Alpha virt. eigenvalues --    0.31748   0.33223   0.38839   0.40909   0.54989

 Mulliken charges:
               1
     1  C   -0.318320
     2  C    0.283640
     3  N   -0.648967
     4  C    0.399573
     5  N   -0.579020
     6  N   -0.608155
     7  H    0.109536
     8  H    0.083642
     9  H    0.261197
    10  H    0.258778
    11  H    0.229516
    12  H    0.258415
    13  H    0.270167
 Sum of Mulliken charges =  -0.00000

 Dipole moment (field-independent basis, Debye):
    X=              1.9906    Y=              0.9952    Z=              2.3465  Tot=              3.2340
 Quadrupole moment (field-independent basis, Debye-Ang):
   XX=            -32.9966   YY=            -35.2241   ZZ=            -36.5108
   XY=             -5.6293   XZ=             -0.7034   YZ=             -0.3597

  Exact polarizability:  58.277   5.365  69.974  -0.705  -0.746  27.303
 Approx polarizability:  78.215  15.143 123.131  -0.706  -0.440  39.128

                      1                      2                      3
                      A                      A                      A
 Frequencies --    114.4491               285.4490               319.7241
 Red. masses --      4.1988                 3.5202                 1.7403
 Frc consts  --      0.0324                 0.1690                 0.1048
 IR Inten    --      2.2707                 2.2230                 4.5000

                      4                      5                      6
                      A                      A                      A
 Frequencies --    387.9071               409.0465               465.3072
 Red. masses --      1.3364                 2.4296                 1.3080
 Frc consts  --      0.1185                 0.2395                 0.1669
 IR Inten    --     35.0687                13.9969                35.4719

                      7                      8                      9
                      A                      A                      A
 Frequencies --    529.5608               556.6897               606.2763
 Red. masses --      1.9141                 2.1756                 1.4024
 Frc consts  --      0.3163                 0.3972                 0.3037
 IR Inten    --     32.1958                51.1413               275.6176

                     10                     11                     12
                      A                      A                      A
 Frequencies --    651.3559               757.4209               769.0391
 Red. masses --      1.3917                 2.2623                 2.8646
 Frc consts  --      0.3479                 0.7647                 0.9982
 IR Inten    --     87.9693                43.3759                 5.4033

                     13                     14                     15
                      A                      A                      A
 Frequencies --    780.8748               844.6520               899.6888
 Red. masses --      2.0918                 1.4064                 1.1223
 Frc consts  --      0.7515                 0.5912                 0.5352
 IR Inten    --     28.0638                51.8093                46.3218

                     16                     17                     18
                      A                      A                      A
 Frequencies --    995.3167              1113.1360              1141.6086
 Red. masses --      1.5943                 1.7865                 1.4579
 Frc consts  --      0.9306                 1.3042                 1.1195
 IR Inten    --      9.3597                22.5877                 2.0992

                     19                     20                     21
                      A                      A                      A
 Frequencies --   1176.8894              1340.8361              1438.5405
 Red. masses --      1.3326                 2.3314                 1.4764
 Frc consts  --      1.0875                 2.4696                 1.8001
 IR Inten    --     93.2198                44.6994                11.9419

                     22                     23                     24
                      A                      A                      A
 Frequencies --   1472.3252              1617.7666              1643.5108
 Red. masses --      1.9694                 1.3583                 1.1800
 Frc consts  --      2.5153                 2.0945                 1.8779
 IR Inten    --     54.7256                61.0977                58.6984

                     25                     26                     27
                      A                      A                      A
 Frequencies --   1685.4141              1732.4045              3169.5305
 Red. masses --      5.3515                 4.2899                 1.0625
 Frc consts  --      8.9565                 7.5858                 6.2888
 IR Inten    --    235.3346                49.7555                 8.8581

                     28                     29                     30
                      A                      A                      A
 Frequencies --   3271.1897              3493.9226              3549.7088
 Red. masses --      1.1133                 1.0740                 1.0478
 Frc consts  --      7.0189                 7.7244                 7.7787
 IR Inten    --      5.5180                 1.2451                 8.9461

                     31                     32                     33
                      A                      A                      A
 Frequencies --   3576.0111              3661.4446              3701.2742
 Red. masses --      1.0462                 1.0979                 1.1006
 Frc consts  --      7.8826                 8.6720                 8.8836
 IR Inten    --     18.3782                 9.5103                20.8057

 - Thermochemistry -
 -------------------
 Temperature   298.150 Kelvin.  Pressure   1.00000 Atm.
 Atom     1 has atomic number  6 and mass  12.00000

 Molecular mass:    85.06400 amu.
 Principal axes and moments of inertia in atomic units:
                           1         2         3
     Eigenvalues --   342.54839 525.90752 822.98783
           X            0.99942  -0.03393  -0.00425
           Y            0.03391   0.99940  -0.00677
           Z            0.00448   0.00663   0.99997
 This molecule is an asymmetric top.
 Rotational symmetry number  1.
 Rotational temperatures (Kelvin)      0.25285     0.16469     0.10524
 Rotational constants (GHZ):           5.26857     3.43167     2.19291
 Zero-point vibrational energy     288050.4 (Joules/Mol)
                                   68.84570 (Kcal/Mol)
 Warning -- explicit consideration of   9 degrees of freedom as
           vibrations may cause significant error
 Vibrational temperatures:    164.67   410.70   460.01   558.11   588.53
          (Kelvin)            669.47   761.92   800.95   872.30   937.15
                             1089.76  1106.47  1123.50  1215.26  1294.45
                             1432.04  1601.55  1642.52  1693.28  1929.16
                             2069.74  2118.34  2327.60  2364.64  2424.93
                             2492.54  4560.24  4706.51  5026.97  5107.23
                             5145.08  5268.00  5325.30

 Zero-point correction=                           0.109713 (Hartree/Particle)
 Thermal correction to Energy=                    0.116155
 Thermal correction to Enthalpy=                  0.117099
 Thermal correction to Gibbs Free Energy=         0.080183
 Sum of electronic and zero-point Energies=           -282.666608
 Sum of electronic and thermal Energies=              -282.660166
 Sum of electronic and thermal Enthalpies=            -282.659222
 Sum of electronic and thermal Free Energies=         -282.696138

                     E (Thermal)             CV                S
                      KCal/Mol        Cal/Mol-Kelvin    Cal/Mol-Kelvin
 Total                   72.888             24.540             77.696
 Electronic               0.000              0.000              0.000
 Translational            0.889              2.981             39.236
 Rotational               0.889              2.981             26.497
 Vibrational             71.111             18.579             11.964
 Vibration     1          0.607              1.937              3.192
 Vibration     2          0.683              1.701              1.501
 Vibration     3          0.706              1.636              1.312
 Vibration     4          0.756              1.496              1.008
 Vibration     5          0.773              1.451              0.930
 Vibration     6          0.823              1.327              0.751
 Vibration     7          0.885              1.185              0.588
 Vibration     8          0.912              1.125              0.530
 Vibration     9          0.965              1.019              0.439

 Optimization completed.
    -- Stationary point found.
 Normal termination of Gaussian 09 at Fri Sep 10 17:29:55 2021.
