 Gaussian 09, Revision E.01,
 Gaussian 09:  ES64L-G09RevE.01 30-Nov-2015

 ----------------------------
 #P OPT Freq B3LYP/6-31G(d,p)
 ----------------------------

 ---------
 Frag_1049
 ---------
 Symbolic Z-matrix:
 Charge =  0 Multiplicity = 1

 SCF Done:  E(RB3LYP) =  -264.526925401     A.U. after   13 cycles
 SCF Done:  E(RB3LYP) =  -264.526995328     A.U. after    9 cycles
 SCF Done:  E(RB3LYP) =  -264.527000597     A.U. after    8 cycles
 SCF Done:  E(RB3LYP) =  -264.527002385     A.U. after    8 cycles
 SCF Done:  E(RB3LYP) =  -264.527003166     A.U. after    8 cycles
 SCF Done:  E(RB3LYP) =  -264.527003463     A.U. after    8 cycles
 SCF Done:  E(RB3LYP) =  -264.527003542     A.U. after    7 cycles
 Optimization completed.
    -- Stationary point found.
 Normal termination of Gaussian 09 at Thu Sep  8 14:53:06 2022.

 ----------------------------------------------------------------------
 #P Geom=AllCheck Guess=TCheck SCRF=Check GenChk RB3LYP/6-31G(d,p) Freq
 ----------------------------------------------------------------------

 Structure from the checkpoint file:  "B3LYP6-31Gdp.Frag_1049.chk"
 ---------
 Frag_1049
 ---------
 Charge =  0 Multiplicity = 1

                         Standard orientation:
 ---------------------------------------------------------------------
 Center     Atomic      Atomic             Coordinates (Angstroms)
 Number     Number       Type             X           Y           Z
 ---------------------------------------------------------------------
      1          7           0       -1.708402   -0.642584    0.107900
      2          6           0       -0.444388   -0.034375   -0.002926
      3          7           0       -0.515417    1.361380   -0.084834
      4          6           0        0.718573   -0.711213   -0.036621
      5          8           0        1.927994   -0.010965   -0.070091
      6          1           0       -2.339859   -0.327417   -0.623824
      7          1           0       -1.653322   -1.654417    0.105988
      8          1           0        0.413349    1.767618   -0.066539
      9          1           0       -1.109934    1.758890    0.635689
     10          1           0        0.763424   -1.791896   -0.147835
     11          1           0        2.424014   -0.223093    0.733068
 ---------------------------------------------------------------------

 SCF Done:  E(RB3LYP) =  -264.527003542     A.U. after    1 cycles

 The electronic state is 1-A.
 Alpha  occ. eigenvalues --  -19.14841 -14.33049 -14.32299 -10.23249 -10.19508
 Alpha  occ. eigenvalues --   -1.01760  -0.92950  -0.85132  -0.69743  -0.57058
 Alpha  occ. eigenvalues --   -0.52200  -0.51251  -0.46832  -0.43076  -0.42570
 Alpha  occ. eigenvalues --   -0.38983  -0.33533  -0.28708  -0.25519  -0.17751
 Alpha virt. eigenvalues --    0.06864   0.07938   0.08734   0.13204   0.14199
 Alpha virt. eigenvalues --    0.16126   0.19621   0.22597   0.29026   0.39205
 Alpha virt. eigenvalues --    0.44265   0.55803   0.56744   0.61131   0.62499

 Mulliken charges:
               1
     1  N   -0.640914
     2  C    0.401942
     3  N   -0.633427
     4  C    0.019895
     5  O   -0.549439
     6  H    0.257454
     7  H    0.251375
     8  H    0.266799
     9  H    0.252882
    10  H    0.062280
    11  H    0.311153
 Sum of Mulliken charges =  -0.00000

 Dipole moment (field-independent basis, Debye):
    X=             -0.4654    Y=             -0.6554    Z=              1.3073  Tot=              1.5346
 Quadrupole moment (field-independent basis, Debye-Ang):
   XX=            -27.2249   YY=            -25.4446   ZZ=            -31.0398
   XY=              0.6946   XZ=              5.1472   YZ=              2.2930

  Exact polarizability:  53.928  -4.490  43.163   1.766   0.241  22.165
 Approx polarizability:  79.721 -11.223  60.377   1.000  -1.216  31.592

                      1                      2                      3
                      A                      A                      A
 Frequencies --    241.6202               253.1405               305.2906
 Red. masses --      1.6150                 2.2901                 2.0823
 Frc consts  --      0.0556                 0.0865                 0.1143
 IR Inten    --     85.3329                 9.1178                95.3257

                      4                      5                      6
                      A                      A                      A
 Frequencies --    349.8080               412.5130               446.6720
 Red. masses --      1.1611                 1.1797                 2.5591
 Frc consts  --      0.0837                 0.1183                 0.3008
 IR Inten    --     10.1278                67.6136                 2.6728

                      7                      8                      9
                      A                      A                      A
 Frequencies --    549.1928               612.7333               677.0498
 Red. masses --      2.3865                 4.0364                 1.3637
 Frc consts  --      0.4241                 0.8929                 0.3683
 IR Inten    --     58.3452                19.1294                94.8457

                     10                     11                     12
                      A                      A                      A
 Frequencies --    804.8673               818.0904               930.0848
 Red. masses --      1.5689                 1.3491                 3.6545
 Frc consts  --      0.5988                 0.5320                 1.8626
 IR Inten    --    262.1444               183.3064                 3.3621

                     13                     14                     15
                      A                      A                      A
 Frequencies --   1098.6073              1161.3602              1192.1944
 Red. masses --      3.0129                 1.3409                 1.5530
 Frc consts  --      2.1425                 1.0656                 1.3005
 IR Inten    --     71.2048                 9.6295                71.1642

                     16                     17                     18
                      A                      A                      A
 Frequencies --   1234.9333              1352.1689              1434.0107
 Red. masses --      1.1242                 1.7307                 2.3519
 Frc consts  --      1.0101                 1.8644                 2.8496
 IR Inten    --     48.0881                24.9725                29.3140

                     19                     20                     21
                      A                      A                      A
 Frequencies --   1633.7531              1640.5956              1776.2225
 Red. masses --      1.1692                 1.1506                 5.3417
 Frc consts  --      1.8387                 1.8247                 9.9295
 IR Inten    --     22.1994                88.0436                62.5781

                     22                     23                     24
                      A                      A                      A
 Frequencies --   3168.3035              3507.3545              3518.8792
 Red. masses --      1.0908                 1.0506                 1.0482
 Frc consts  --      6.4513                 7.6147                 7.6470
 IR Inten    --     29.2875                 2.0793                 5.8072

                     25                     26                     27
                      A                      A                      A
 Frequencies --   3624.3966              3632.1958              3764.0101
 Red. masses --      1.0928                 1.0952                 1.0668
 Frc consts  --      8.4576                 8.5131                 8.9054
 IR Inten    --      3.2626                13.8245                13.5593

 - Thermochemistry -
 -------------------
 Temperature   298.150 Kelvin.  Pressure   1.00000 Atm.
 Atom     1 has atomic number  7 and mass  14.00307

 Molecular mass:    74.04801 amu.
 Principal axes and moments of inertia in atomic units:
                           1         2         3
     Eigenvalues --   185.44609 465.97197 639.50182
           X            0.99984   0.00414   0.01725
           Y           -0.00454   0.99972   0.02315
           Z           -0.01715  -0.02323   0.99958
 This molecule is an asymmetric top.
 Rotational symmetry number  1.
 Rotational temperatures (Kelvin)      0.46706     0.18588     0.13544
 Rotational constants (GHZ):           9.73189     3.87307     2.82210
 Zero-point vibrational energy     240090.8 (Joules/Mol)
                                   57.38308 (Kcal/Mol)
 Warning -- explicit consideration of   8 degrees of freedom as
           vibrations may cause significant error
 Vibrational temperatures:    347.64   364.21   439.24   503.30   593.51
          (Kelvin)            642.66   790.16   881.59   974.12  1158.02
                             1177.05  1338.18  1580.65  1670.94  1715.30
                             1776.79  1945.47  2063.22  2350.60  2360.45
                             2555.58  4558.48  5046.29  5062.88  5214.69
                             5225.91  5415.56

 Zero-point correction=                           0.091446 (Hartree/Particle)
 Thermal correction to Energy=                    0.097361
 Thermal correction to Enthalpy=                  0.098305
 Thermal correction to Gibbs Free Energy=         0.063055
 Sum of electronic and zero-point Energies=           -264.435558
 Sum of electronic and thermal Energies=              -264.429643
 Sum of electronic and thermal Enthalpies=            -264.428698
 Sum of electronic and thermal Free Energies=         -264.463948

                     E (Thermal)             CV                S
                      KCal/Mol        Cal/Mol-Kelvin    Cal/Mol-Kelvin
 Total                   61.095             21.535             74.190
 Electronic               0.000              0.000              0.000
 Translational            0.889              2.981             38.822
 Rotational               0.889              2.981             25.516
 Vibrational             59.317             15.574              9.851
 Vibration     1          0.658              1.777              1.791
 Vibration     2          0.664              1.757              1.709
 Vibration     3          0.696              1.664              1.388
 Vibration     4          0.727              1.576              1.167
 Vibration     5          0.776              1.443              0.918
 Vibration     6          0.806              1.368              0.806
 Vibration     7          0.904              1.141              0.546
 Vibration     8          0.972              1.005              0.428

 Optimization completed.
    -- Stationary point found.
 Normal termination of Gaussian 09 at Thu Sep  8 14:53:14 2022.
