 Gaussian 09, Revision E.01,
 Gaussian 09:  ES64L-G09RevE.01 30-Nov-2015

 ----------------------------
 #P OPT Freq B3LYP/6-31G(d,p)
 ----------------------------

 --------
 Frag_671
 --------
 Symbolic Z-matrix:
 Charge =  0 Multiplicity = 1

 SCF Done:  E(RB3LYP) =  -263.310849628     A.U. after   14 cycles
 SCF Done:  E(RB3LYP) =  -263.310921036     A.U. after   11 cycles
 SCF Done:  E(RB3LYP) =  -263.310924428     A.U. after    8 cycles
 Optimization completed.
    -- Stationary point found.
 Normal termination of Gaussian 09 at Thu Sep  8 15:14:16 2022.

 ----------------------------------------------------------------------
 #P Geom=AllCheck Guess=TCheck SCRF=Check GenChk RB3LYP/6-31G(d,p) Freq
 ----------------------------------------------------------------------

 Structure from the checkpoint file:  "B3LYP6-31Gdp.Frag_671.chk"
 --------
 Frag_671
 --------
 Charge =  0 Multiplicity = 1

                         Standard orientation:
 ---------------------------------------------------------------------
 Center     Atomic      Atomic             Coordinates (Angstroms)
 Number     Number       Type             X           Y           Z
 ---------------------------------------------------------------------
      1          7           0       -1.893189    0.081139   -0.000000
      2          6           0       -0.815382   -0.590606    0.000005
      3          6           0        0.509438    0.124561   -0.000014
      4          7           0        0.663069    1.381733    0.000002
      5          8           0        1.607646   -0.678359    0.000001
      6          1           0       -2.713186   -0.529914   -0.000007
      7          1           0       -0.777259   -1.692469   -0.000004
      8          1           0       -0.265506    1.812587    0.000020
      9          1           0        1.341286   -1.607170    0.000021
 ---------------------------------------------------------------------

 SCF Done:  E(RB3LYP) =  -263.310924428     A.U. after    1 cycles

 The electronic state is 1-A.
 Alpha  occ. eigenvalues --  -19.19168 -14.35992 -14.30951 -10.28842 -10.26969
 Alpha  occ. eigenvalues --   -1.07969  -0.94167  -0.88599  -0.68379  -0.61476
 Alpha  occ. eigenvalues --   -0.53781  -0.50274  -0.46772  -0.42886  -0.38975
 Alpha  occ. eigenvalues --   -0.35296  -0.30448  -0.27268  -0.27072
 Alpha virt. eigenvalues --   -0.06632   0.04740   0.07665   0.08113   0.13082
 Alpha virt. eigenvalues --    0.17584   0.24117   0.28329   0.37816   0.42014
 Alpha virt. eigenvalues --    0.51301   0.53755   0.57227   0.59221   0.61731

 Mulliken charges:
               1
     1  N   -0.465570
     2  C    0.084116
     3  C    0.494896
     4  N   -0.520283
     5  O   -0.497616
     6  H    0.251722
     7  H    0.081367
     8  H    0.255861
     9  H    0.315507
 Sum of Mulliken charges =  -0.00000

 Dipole moment (field-independent basis, Debye):
    X=             -2.6490    Y=             -4.2360    Z=              0.0000  Tot=              4.9961
 Quadrupole moment (field-independent basis, Debye-Ang):
   XX=            -30.7761   YY=            -25.8561   ZZ=            -29.5649
   XY=             -1.1511   XZ=              0.0000   YZ=             -0.0000

  Exact polarizability:  45.743  -0.971  45.933   0.000   0.000  16.269
 Approx polarizability:  68.652  -5.148  76.473   0.000   0.000  23.446

                      1                      2                      3
                      A                      A                      A
 Frequencies --    115.7618               291.7496               303.8956
 Red. masses --      2.8453                 1.2135                 4.1024
 Frc consts  --      0.0225                 0.0609                 0.2232
 IR Inten    --     16.8334                89.9942                 5.8203

                      4                      5                      6
                      A                      A                      A
 Frequencies --    497.8894               519.5842               652.1826
 Red. masses --      5.0788                 2.2763                 4.9628
 Frc consts  --      0.7418                 0.3621                 1.2437
 IR Inten    --      2.0163                13.9817                12.2469

                      7                      8                      9
                      A                      A                      A
 Frequencies --    832.2191               867.0867               907.3127
 Red. masses --      2.0389                 3.8712                 1.1182
 Frc consts  --      0.8320                 1.7148                 0.5423
 IR Inten    --     13.8002                47.7846               112.3311

                     10                     11                     12
                      A                      A                      A
 Frequencies --   1097.1117              1112.3847              1199.9174
 Red. masses --      1.2204                 1.7591                 1.1215
 Frc consts  --      0.8655                 1.2825                 0.9513
 IR Inten    --      7.8520               127.8579                17.5901

                     13                     14                     15
                      A                      A                      A
 Frequencies --   1249.0960              1396.4014              1448.0518
 Red. masses --      1.2863                 1.7598                 1.7513
 Frc consts  --      1.1825                 2.0218                 2.1637
 IR Inten    --    250.5109               116.9227                89.3399

                     16                     17                     18
                      A                      A                      A
 Frequencies --   1718.7399              1768.7519              2995.1209
 Red. masses --      7.6378                 7.7241                 1.0876
 Frc consts  --     13.2934                14.2374                 5.7485
 IR Inten    --     33.1694                51.5848                70.0573

                     19                     20                     21
                      A                      A                      A
 Frequencies --   3477.3364              3479.1398              3818.8468
 Red. masses --      1.0738                 1.0767                 1.0661
 Frc consts  --      7.6498                 7.6785                 9.1606
 IR Inten    --      8.7044                 1.2284                36.0715

 - Thermochemistry -
 -------------------
 Temperature   298.150 Kelvin.  Pressure   1.00000 Atm.
 Atom     1 has atomic number  7 and mass  14.00307

 Molecular mass:    72.03236 amu.
 Principal axes and moments of inertia in atomic units:
                           1         2         3
     Eigenvalues --   169.93570 423.56857 593.50427
           X            1.00000   0.00245   0.00000
           Y           -0.00245   1.00000   0.00000
           Z           -0.00000  -0.00000   1.00000
 This molecule is an asymmetric top.
 Rotational symmetry number  1.
 Rotational temperatures (Kelvin)      0.50969     0.20449     0.14594
 Rotational constants (GHZ):          10.62014     4.26080     3.04082
 Zero-point vibrational energy     177936.0 (Joules/Mol)
                                   42.52773 (Kcal/Mol)
 Warning -- explicit consideration of   5 degrees of freedom as
           vibrations may cause significant error
 Vibrational temperatures:    166.56   419.76   437.24   716.35   747.56
          (Kelvin)            938.34  1197.38  1247.54  1305.42  1578.50
                             1600.47  1726.41  1797.17  2009.11  2083.42
                             2472.88  2544.84  4309.31  5003.11  5005.70
                             5494.46

 Zero-point correction=                           0.067772 (Hartree/Particle)
 Thermal correction to Energy=                    0.073005
 Thermal correction to Enthalpy=                  0.073949
 Thermal correction to Gibbs Free Energy=         0.039555
 Sum of electronic and zero-point Energies=           -263.243152
 Sum of electronic and thermal Energies=              -263.237920
 Sum of electronic and thermal Enthalpies=            -263.236976
 Sum of electronic and thermal Free Energies=         -263.271370

                     E (Thermal)             CV                S
                      KCal/Mol        Cal/Mol-Kelvin    Cal/Mol-Kelvin
 Total                   45.811             17.466             72.389
 Electronic               0.000              0.000              0.000
 Translational            0.889              2.981             38.740
 Rotational               0.889              2.981             25.261
 Vibrational             44.034             11.504              8.388
 Vibration     1          0.608              1.936              3.170
 Vibration     2          0.687              1.689              1.464
 Vibration     3          0.695              1.666              1.395
 Vibration     4          0.853              1.255              0.663
 Vibration     5          0.875              1.207              0.611

 Optimization completed.
    -- Stationary point found.
 Normal termination of Gaussian 09 at Thu Sep  8 15:14:23 2022.
