 Gaussian 09, Revision E.01,
 Gaussian 09:  ES64L-G09RevE.01 30-Nov-2015

 -------------------------
 #P OPT Freq B3LYP/6-31G**
 -------------------------

 --------
 Frag_178
 --------
 Symbolic Z-matrix:
 Charge =  0 Multiplicity = 1

 SCF Done:  E(RB3LYP) =  -250.636125215     A.U. after   14 cycles
 SCF Done:  E(RB3LYP) =  -250.643828648     A.U. after   11 cycles
 SCF Done:  E(RB3LYP) =  -250.644670463     A.U. after   11 cycles
 SCF Done:  E(RB3LYP) =  -250.644952913     A.U. after   11 cycles
 SCF Done:  E(RB3LYP) =  -250.645090050     A.U. after   11 cycles
 SCF Done:  E(RB3LYP) =  -250.645192378     A.U. after   11 cycles
 SCF Done:  E(RB3LYP) =  -250.645302711     A.U. after   11 cycles
 SCF Done:  E(RB3LYP) =  -250.645681190     A.U. after   12 cycles
 SCF Done:  E(RB3LYP) =  -250.646172047     A.U. after   13 cycles
 SCF Done:  E(RB3LYP) =  -250.647193320     A.U. after   11 cycles
 SCF Done:  E(RB3LYP) =  -250.648750519     A.U. after   12 cycles
 SCF Done:  E(RB3LYP) =  -250.648778406     A.U. after   11 cycles
 SCF Done:  E(RB3LYP) =  -250.648882949     A.U. after   11 cycles
 SCF Done:  E(RB3LYP) =  -250.648891452     A.U. after    9 cycles
 SCF Done:  E(RB3LYP) =  -250.648892336     A.U. after    7 cycles
 Optimization completed.
    -- Stationary point found.
 Normal termination of Gaussian 09 at Sat Aug 21 01:36:15 2021.

 ----------------------------------------------------------------------
 #P Geom=AllCheck Guess=TCheck SCRF=Check GenChk RB3LYP/6-31G(d,p) Freq
 ----------------------------------------------------------------------

 Structure from the checkpoint file:  "/public/home/users/caep010/.cache/gau_scr/Gau-190638.chk"
 --------
 Frag_178
 --------
 Charge =  0 Multiplicity = 1

                         Standard orientation:
 ---------------------------------------------------------------------
 Center     Atomic      Atomic             Coordinates (Angstroms)
 Number     Number       Type             X           Y           Z
 ---------------------------------------------------------------------
      1          6           0       -1.258588    1.402373   -0.098796
      2          6           0       -0.821879    0.156359    0.102752
      3          6           0       -1.697082   -1.059965   -0.051775
      4          6           0        0.588950   -0.125171    0.523873
      5          6           0        1.766567    0.578572   -0.040595
      6          7           0        1.450879   -0.796470   -0.474598
      7          1           0       -2.285481    1.605472   -0.389741
      8          1           0       -0.604358    2.260901    0.019559
      9          1           0       -1.266663   -1.737797   -0.797496
     10          1           0       -1.762214   -1.623039    0.888874
     11          1           0       -2.711718   -0.794960   -0.360165
     12          1           0        0.684513   -0.474022    1.555211
     13          1           0        2.626919    0.744618    0.605013
     14          1           0        1.623216    1.336855   -0.805402
     15          1           0        2.071825   -1.455751   -0.006421
 ---------------------------------------------------------------------

 SCF Done:  E(RB3LYP) =  -250.648892336     A.U. after    1 cycles

 The electronic state is 1-A.
 Alpha  occ. eigenvalues --  -14.32657 -10.21783 -10.21111 -10.19202 -10.17567
 Alpha  occ. eigenvalues --  -10.17128  -0.95137  -0.78960  -0.68269  -0.65103
 Alpha  occ. eigenvalues --   -0.62265  -0.52298  -0.51768  -0.46602  -0.42796
 Alpha  occ. eigenvalues --   -0.40802  -0.40072  -0.36201  -0.34793  -0.33499
 Alpha  occ. eigenvalues --   -0.32115  -0.24819  -0.24370
 Alpha virt. eigenvalues --    0.02040   0.08593   0.11578   0.12688   0.12998
 Alpha virt. eigenvalues --    0.14271   0.15203   0.17585   0.18987   0.19449
 Alpha virt. eigenvalues --    0.20817   0.24487   0.25112   0.28499   0.34330

 Mulliken charges:
               1
     1  C   -0.276049
     2  C    0.183002
     3  C   -0.367013
     4  C   -0.055248
     5  C   -0.110241
     6  N   -0.472680
     7  H    0.089354
     8  H    0.090354
     9  H    0.136236
    10  H    0.105785
    11  H    0.106354
    12  H    0.102591
    13  H    0.101947
    14  H    0.121106
    15  H    0.244502
 Sum of Mulliken charges =  -0.00000

 Dipole moment (field-independent basis, Debye):
    X=              0.5638    Y=             -0.0514    Z=              1.5420  Tot=              1.6426
 Quadrupole moment (field-independent basis, Debye-Ang):
   XX=            -33.8318   YY=            -35.9329   ZZ=            -39.4400
   XY=              0.0719   XZ=              2.9324   YZ=             -2.3404

  Exact polarizability:  65.338  -2.790  65.767   2.698  -3.797  40.897
 Approx polarizability:  82.320  -7.452 100.551   2.499  -5.913  60.810

                      1                      2                      3
                      A                      A                      A
 Frequencies --     69.5102               194.3808               221.5661
 Red. masses --      2.9015                 1.0404                 2.7534
 Frc consts  --      0.0083                 0.0232                 0.0796
 IR Inten    --      2.2729                 0.2722                 5.0015

                      4                      5                      6
                      A                      A                      A
 Frequencies --    259.3510               388.5923               491.4860
 Red. masses --      2.9908                 2.3175                 2.6697
 Frc consts  --      0.1185                 0.2062                 0.3800
 IR Inten    --      3.4835                 4.1510                 5.6578

                      7                      8                      9
                      A                      A                      A
 Frequencies --    553.2102               702.7759               789.6460
 Red. masses --      2.5827                 1.5122                 1.5157
 Frc consts  --      0.4657                 0.4400                 0.5569
 IR Inten    --      2.8091                 0.0519                 3.8132

                     10                     11                     12
                      A                      A                      A
 Frequencies --    880.4692               893.4329               917.2247
 Red. masses --      4.3062                 3.0599                 1.3198
 Frc consts  --      1.9668                 1.4391                 0.6542
 IR Inten    --     42.1647                24.2521                 4.7389

                     13                     14                     15
                      A                      A                      A
 Frequencies --    935.6585               965.5432               991.5411
 Red. masses --      1.3410                 1.4493                 1.3378
 Frc consts  --      0.6917                 0.7961                 0.7749
 IR Inten    --     35.6734                 7.3960                 2.6000

                     16                     17                     18
                      A                      A                      A
 Frequencies --   1036.6168              1068.7230              1118.7206
 Red. masses --      1.4561                 1.3963                 1.2857
 Frc consts  --      0.9219                 0.9396                 0.9480
 IR Inten    --      1.8987                 2.5793                 0.6945

                     19                     20                     21
                      A                      A                      A
 Frequencies --   1122.2351              1193.0686              1259.2204
 Red. masses --      1.3249                 1.2884                 2.4062
 Frc consts  --      0.9831                 1.0805                 2.2479
 IR Inten    --      2.6325                 6.5304                21.6230

                     22                     23                     24
                      A                      A                      A
 Frequencies --   1286.6796              1291.4615              1416.8218
 Red. masses --      1.4595                 1.5688                 1.2297
 Frc consts  --      1.4236                 1.5416                 1.4544
 IR Inten    --     15.4244                 3.0607                 5.1486

                     25                     26                     27
                      A                      A                      A
 Frequencies --   1441.7012              1462.3049              1491.1779
 Red. masses --      1.5943                 1.3689                 1.0518
 Frc consts  --      1.9524                 1.7246                 1.3779
 IR Inten    --      4.2153                 4.3532                 7.4719

                     28                     29                     30
                      A                      A                      A
 Frequencies --   1510.3076              1527.3003              1735.1977
 Red. masses --      1.0583                 1.2964                 5.3075
 Frc consts  --      1.4223                 1.7817                 9.4153
 IR Inten    --      9.2901                 2.8741                10.4979

                     31                     32                     33
                      A                      A                      A
 Frequencies --   3028.4417              3087.3026              3090.9210
 Red. masses --      1.0407                 1.0941                 1.0865
 Frc consts  --      5.6238                 6.1443                 6.1156
 IR Inten    --     25.5756                 8.1225                36.3504

                     34                     35                     36
                      A                      A                      A
 Frequencies --   3118.5211              3129.3729              3154.2504
 Red. masses --      1.0543                 1.1022                 1.0605
 Frc consts  --      6.0412                 6.3595                 6.2166
 IR Inten    --     23.6285                20.3128                 7.8107

                     37                     38                     39
                      A                      A                      A
 Frequencies --   3205.6457              3237.9156              3490.8337
 Red. masses --      1.1183                 1.1159                 1.0769
 Frc consts  --      6.7708                 6.8928                 7.7320
 IR Inten    --     17.7353                16.8456                 1.0854

 - Thermochemistry -
 -------------------
 Temperature   298.150 Kelvin.  Pressure   1.00000 Atm.
 Atom     1 has atomic number  6 and mass  12.00000

 Molecular mass:    83.07350 amu.
 Principal axes and moments of inertia in atomic units:
                           1         2         3
     Eigenvalues --   289.44329 631.70524 836.67402
           X            0.99937   0.03156   0.01642
           Y           -0.03108   0.99911  -0.02865
           Z           -0.01731   0.02812   0.99945
 This molecule is an asymmetric top.
 Rotational symmetry number  1.
 Rotational temperatures (Kelvin)      0.29924     0.13711     0.10352
 Rotational constants (GHZ):           6.23522     2.85694     2.15704
 Zero-point vibrational energy     345476.3 (Joules/Mol)
                                   82.57082 (Kcal/Mol)
 Warning -- explicit consideration of   7 degrees of freedom as
           vibrations may cause significant error
 Vibrational temperatures:    100.01   279.67   318.78   373.15   559.10
          (Kelvin)            707.14   795.95  1011.14  1136.12  1266.80
                             1285.45  1319.68  1346.20  1389.20  1426.60
                             1491.46  1537.65  1609.59  1614.64  1716.56
                             1811.74  1851.24  1858.12  2038.49  2074.28
                             2103.93  2145.47  2172.99  2197.44  2496.56
                             4357.25  4441.93  4447.14  4486.85  4502.46
                             4538.26  4612.20  4658.63  5022.52

 Zero-point correction=                           0.131585 (Hartree/Particle)
 Thermal correction to Energy=                    0.138201
 Thermal correction to Enthalpy=                  0.139145
 Thermal correction to Gibbs Free Energy=         0.101309
 Sum of electronic and zero-point Energies=           -250.517307
 Sum of electronic and thermal Energies=              -250.510691
 Sum of electronic and thermal Enthalpies=            -250.509747
 Sum of electronic and thermal Free Energies=         -250.547583

                     E (Thermal)             CV                S
                      KCal/Mol        Cal/Mol-Kelvin    Cal/Mol-Kelvin
 Total                   86.722             23.877             79.632
 Electronic               0.000              0.000              0.000
 Translational            0.889              2.981             39.165
 Rotational               0.889              2.981             26.528
 Vibrational             84.945             17.915             13.939
 Vibration     1          0.598              1.969              4.167
 Vibration     2          0.635              1.848              2.186
 Vibration     3          0.648              1.808              1.946
 Vibration     4          0.668              1.747              1.666
 Vibration     5          0.757              1.495              1.006
 Vibration     6          0.847              1.269              0.680
 Vibration     7          0.909              1.133              0.538

 Optimization completed.
    -- Stationary point found.
 Normal termination of Gaussian 09 at Sat Aug 21 01:36:27 2021.
