 Gaussian 09, Revision E.01,
 Gaussian 09:  ES64L-G09RevE.01 30-Nov-2015

 ----------------------------
 #P OPT Freq B3LYP/6-31G(d,p)
 ----------------------------

 --------
 Frag_935
 --------
 Symbolic Z-matrix:
 Charge =  0 Multiplicity = 1

 SCF Done:  E(RB3LYP) =  -343.160799131     A.U. after   13 cycles
 SCF Done:  E(RB3LYP) =  -343.160864080     A.U. after   11 cycles
 SCF Done:  E(RB3LYP) =  -343.160868193     A.U. after    8 cycles
 SCF Done:  E(RB3LYP) =  -343.160869525     A.U. after    9 cycles
 SCF Done:  E(RB3LYP) =  -343.160870910     A.U. after    8 cycles
 SCF Done:  E(RB3LYP) =  -343.160871926     A.U. after    8 cycles
 SCF Done:  E(RB3LYP) =  -343.160872891     A.U. after    8 cycles
 SCF Done:  E(RB3LYP) =  -343.160873409     A.U. after    8 cycles
 Optimization completed.
    -- Stationary point found.
 Normal termination of Gaussian 09 at Thu Sep  8 15:03:45 2022.

 ----------------------------------------------------------------------
 #P Geom=AllCheck Guess=TCheck SCRF=Check GenChk RB3LYP/6-31G(d,p) Freq
 ----------------------------------------------------------------------

 Structure from the checkpoint file:  "B3LYP6-31Gdp.Frag_935.chk"
 --------
 Frag_935
 --------
 Charge =  0 Multiplicity = 1

                         Standard orientation:
 ---------------------------------------------------------------------
 Center     Atomic      Atomic             Coordinates (Angstroms)
 Number     Number       Type             X           Y           Z
 ---------------------------------------------------------------------
      1          6           0        1.408259    1.453810    0.037233
      2          6           0        0.907066    0.217032   -0.035583
      3          6           0        1.790984   -1.004452   -0.057214
      4          6           0       -0.610081   -0.042200   -0.022847
      5          7           0       -1.087893   -0.409243    1.322458
      6          7           0       -1.438639    1.059623   -0.474890
      7          8           0       -0.826983   -1.152020   -0.878536
      8          1           0        2.479120    1.626810    0.088109
      9          1           0        0.774090    2.334681    0.056266
     10          1           0        2.845797   -0.730404    0.025644
     11          1           0        1.549019   -1.684834    0.768071
     12          1           0        1.639221   -1.570138   -0.980757
     13          1           0       -0.621982    0.161832    2.025417
     14          1           0       -0.818546   -1.374042    1.493231
     15          1           0       -0.951678    1.661561   -1.129472
     16          1           0       -1.797951    1.600976    0.302265
     17          1           0       -1.772870   -1.108068   -1.082998
 ---------------------------------------------------------------------

 SCF Done:  E(RB3LYP) =  -343.160873409     A.U. after    1 cycles

 The electronic state is 1-A.
 Alpha  occ. eigenvalues --  -19.13704 -14.31605 -14.31582 -10.29152 -10.19453
 Alpha  occ. eigenvalues --  -10.17696 -10.17579  -1.03239  -0.89648  -0.84224
 Alpha  occ. eigenvalues --   -0.78720  -0.68190  -0.63455  -0.54189  -0.52064
 Alpha  occ. eigenvalues --   -0.49389  -0.47883  -0.45584  -0.42416  -0.40835
 Alpha  occ. eigenvalues --   -0.40407  -0.37375  -0.36804  -0.34046  -0.28655
 Alpha  occ. eigenvalues --   -0.27235  -0.24354  -0.23634
 Alpha virt. eigenvalues --    0.01885   0.07315   0.11225   0.12135   0.12948
 Alpha virt. eigenvalues --    0.14121   0.15692   0.15991   0.17501   0.18219
 Alpha virt. eigenvalues --    0.21395   0.24079   0.27046   0.27826   0.29072

 Mulliken charges:
               1
     1  C   -0.298212
     2  C    0.155934
     3  C   -0.354281
     4  C    0.432412
     5  N   -0.592963
     6  N   -0.603365
     7  O   -0.542501
     8  H    0.092428
     9  H    0.073761
    10  H    0.100740
    11  H    0.101241
    12  H    0.143723
    13  H    0.235941
    14  H    0.250372
    15  H    0.244979
    16  H    0.248394
    17  H    0.311396
 Sum of Mulliken charges =  -0.00000

 Dipole moment (field-independent basis, Debye):
    X=              0.7661    Y=              1.0044    Z=              1.0167  Tot=              1.6216
 Quadrupole moment (field-independent basis, Debye-Ang):
   XX=            -44.6061   YY=            -39.8897   ZZ=            -42.4760
   XY=             -0.7320   XZ=              1.3191   YZ=             -0.9347

  Exact polarizability:  62.499   3.436  69.566   0.115   0.049  46.944
 Approx polarizability:  81.921   8.931 105.166  -0.298   1.724  67.448

                      1                      2                      3
                      A                      A                      A
 Frequencies --     70.9522               175.1883               193.0707
 Red. masses --      3.2539                 1.0874                 1.0576
 Frc consts  --      0.0097                 0.0197                 0.0232
 IR Inten    --      0.7428                12.0993                 0.7217

                      4                      5                      6
                      A                      A                      A
 Frequencies --    222.5385               264.0065               294.5814
 Red. masses --      1.4162                 2.1748                 2.7061
 Frc consts  --      0.0413                 0.0893                 0.1384
 IR Inten    --     27.2942                 6.9514                10.6415

                      7                      8                      9
                      A                      A                      A
 Frequencies --    377.7264               385.8294               405.9526
 Red. masses --      2.4064                 1.7032                 2.3534
 Frc consts  --      0.2023                 0.1494                 0.2285
 IR Inten    --     18.2949                26.5211                44.7227

                     10                     11                     12
                      A                      A                      A
 Frequencies --    511.4693               530.1815               557.3112
 Red. masses --      2.4505                 2.4853                 3.1122
 Frc consts  --      0.3777                 0.4116                 0.5695
 IR Inten    --      9.5418                 4.9432                18.3440

                     13                     14                     15
                      A                      A                      A
 Frequencies --    587.5184               722.7746               759.3293
 Red. masses --      2.3704                 2.7604                 1.2449
 Frc consts  --      0.4821                 0.8496                 0.4229
 IR Inten    --     19.3823                56.5169                 7.7792

                     16                     17                     18
                      A                      A                      A
 Frequencies --    782.3660               892.3998               927.0199
 Red. masses --      1.4683                 1.4902                 1.3788
 Frc consts  --      0.5295                 0.6992                 0.6981
 IR Inten    --    153.8609               199.0970                26.6043

                     19                     20                     21
                      A                      A                      A
 Frequencies --    930.3705               973.2398              1017.6713
 Red. masses --      2.3769                 1.9366                 1.4928
 Frc consts  --      1.2122                 1.0808                 0.9109
 IR Inten    --     41.2217                37.0642                45.6531

                     22                     23                     24
                      A                      A                      A
 Frequencies --   1056.0570              1075.4645              1103.2226
 Red. masses --      1.9709                 1.5036                 1.9268
 Frc consts  --      1.2950                 1.0247                 1.3817
 IR Inten    --     73.1308                13.1272               115.2747

                     25                     26                     27
                      A                      A                      A
 Frequencies --   1258.1046              1286.3071              1330.8468
 Red. masses --      2.1016                 1.8878                 1.9691
 Frc consts  --      1.9599                 1.8404                 2.0548
 IR Inten    --     31.0096                39.2514                34.1803

                     28                     29                     30
                      A                      A                      A
 Frequencies --   1397.3534              1420.9329              1452.9484
 Red. masses --      1.7374                 1.2756                 1.2092
 Frc consts  --      1.9988                 1.5174                 1.5039
 IR Inten    --     58.8033                 1.1306                 3.2334

                     31                     32                     33
                      A                      A                      A
 Frequencies --   1490.4154              1507.5823              1628.4349
 Red. masses --      1.0469                 1.0593                 1.1064
 Frc consts  --      1.3701                 1.4185                 1.7287
 IR Inten    --      8.1579                14.7948                49.3822

                     34                     35                     36
                      A                      A                      A
 Frequencies --   1656.7637              1725.0482              3043.3815
 Red. masses --      1.1311                 5.1820                 1.0398
 Frc consts  --      1.8293                 9.0856                 5.6742
 IR Inten    --     23.1153                 6.7848                23.8241

                     37                     38                     39
                      A                      A                      A
 Frequencies --   3106.0440              3136.8912              3156.8171
 Red. masses --      1.0945                 1.1039                 1.0601
 Frc consts  --      6.2213                 6.3999                 6.2241
 IR Inten    --     20.3562                15.9671                 8.1837

                     40                     41                     42
                      A                      A                      A
 Frequencies --   3236.8883              3493.2117              3539.3167
 Red. masses --      1.1152                 1.0509                 1.0481
 Frc consts  --      6.8846                 7.5552                 7.7355
 IR Inten    --     16.4705                 1.5915                 2.0841

                     43                     44                     45
                      A                      A                      A
 Frequencies --   3593.2431              3646.7562              3791.1316
 Red. masses --      1.0911                 1.0961                 1.0648
 Frc consts  --      8.3002                 8.5888                 9.0172
 IR Inten    --      2.1790                 6.6772                37.8248

 - Thermochemistry -
 -------------------
 Temperature   298.150 Kelvin.  Pressure   1.00000 Atm.
 Atom     1 has atomic number  6 and mass  12.00000

 Molecular mass:   102.07931 amu.
 Principal axes and moments of inertia in atomic units:
                           1         2         3
     Eigenvalues --   536.92371 757.64365 933.70735
           X            0.99895  -0.04589   0.00020
           Y            0.04588   0.99856  -0.02798
           Z            0.00108   0.02796   0.99961
 This molecule is an asymmetric top.
 Rotational symmetry number  1.
 Warning -- assumption of classical behavior for rotation
           may cause significant error
 Rotational temperatures (Kelvin)      0.16131     0.11432     0.09276
 Rotational constants (GHZ):           3.36126     2.38204     1.93288
 Zero-point vibrational energy     387079.6 (Joules/Mol)
                                   92.51425 (Kcal/Mol)
 Warning -- explicit consideration of  13 degrees of freedom as
           vibrations may cause significant error
 Vibrational temperatures:    102.08   252.06   277.79   320.18   379.85
          (Kelvin)            423.84   543.46   555.12   584.07   735.89
                              762.81   801.85   845.31  1039.91  1092.50
                             1125.65  1283.96  1333.77  1338.59  1400.27
                             1464.20  1519.43  1547.35  1587.29  1810.13
                             1850.71  1914.79  2010.48  2044.40  2090.47
                             2144.37  2169.07  2342.95  2383.71  2481.96
                             4378.74  4468.90  4513.28  4541.95  4657.15
                             5025.95  5092.28  5169.87  5246.86  5454.59

 Zero-point correction=                           0.147431 (Hartree/Particle)
 Thermal correction to Energy=                    0.156037
 Thermal correction to Enthalpy=                  0.156982
 Thermal correction to Gibbs Free Energy=         0.115232
 Sum of electronic and zero-point Energies=           -343.013443
 Sum of electronic and thermal Energies=              -343.004836
 Sum of electronic and thermal Enthalpies=            -343.003892
 Sum of electronic and thermal Free Energies=         -343.045642

                     E (Thermal)             CV                S
                      KCal/Mol        Cal/Mol-Kelvin    Cal/Mol-Kelvin
 Total                   97.915             32.259             87.870
 Electronic               0.000              0.000              0.000
 Translational            0.889              2.981             39.779
 Rotational               0.889              2.981             27.432
 Vibrational             96.137             26.297             20.658
 Vibration     1          0.598              1.968              4.127
 Vibration     2          0.627              1.873              2.379
 Vibration     3          0.635              1.849              2.198
 Vibration     4          0.648              1.807              1.938
 Vibration     5          0.671              1.739              1.635
 Vibration     6          0.689              1.684              1.448
 Vibration     7          0.748              1.518              1.048
 Vibration     8          0.755              1.500              1.016
 Vibration     9          0.771              1.457              0.941
 Vibration    10          0.867              1.225              0.630
 Vibration    11          0.885              1.183              0.587
 Vibration    12          0.913              1.124              0.529
 Vibration    13          0.945              1.058              0.472

 Optimization completed.
    -- Stationary point found.
 Normal termination of Gaussian 09 at Thu Sep  8 15:04:02 2022.
