 Gaussian 09, Revision E.01,
 Gaussian 09:  ES64L-G09RevE.01 30-Nov-2015

 -------------------------
 #P OPT Freq B3LYP/6-31G**
 -------------------------

 --------
 Frag_280
 --------
 Symbolic Z-matrix:
 Charge =  0 Multiplicity = 1

 SCF Done:  E(RB3LYP) =  -248.501167481     A.U. after   13 cycles
 SCF Done:  E(RB3LYP) =  -248.506394103     A.U. after   13 cycles
 SCF Done:  E(RB3LYP) =  -248.506783569     A.U. after   12 cycles
 SCF Done:  E(RB3LYP) =  -248.506757415     A.U. after   12 cycles
 SCF Done:  E(RB3LYP) =  -248.506955897     A.U. after    9 cycles
 SCF Done:  E(RB3LYP) =  -248.507189838     A.U. after   12 cycles
 SCF Done:  E(RB3LYP) =  -248.507377394     A.U. after   12 cycles
 SCF Done:  E(RB3LYP) =  -248.507492882     A.U. after   11 cycles
 SCF Done:  E(RB3LYP) =  -248.507529288     A.U. after   11 cycles
 SCF Done:  E(RB3LYP) =  -248.507550201     A.U. after   11 cycles
 SCF Done:  E(RB3LYP) =  -248.507553138     A.U. after   10 cycles
 SCF Done:  E(RB3LYP) =  -248.507554401     A.U. after    8 cycles
 Optimization completed.
    -- Stationary point found.
 Normal termination of Gaussian 09 at Sat Aug 21 01:37:30 2021.

 ----------------------------------------------------------------------
 #P Geom=AllCheck Guess=TCheck SCRF=Check GenChk RB3LYP/6-31G(d,p) Freq
 ----------------------------------------------------------------------

 Structure from the checkpoint file:  "/public/home/users/caep010/.cache/gau_scr/Gau-123601.chk"
 --------
 Frag_280
 --------
 Charge =  0 Multiplicity = 1

                         Standard orientation:
 ---------------------------------------------------------------------
 Center     Atomic      Atomic             Coordinates (Angstroms)
 Number     Number       Type             X           Y           Z
 ---------------------------------------------------------------------
      1          6           0       -0.873296    1.322064   -0.078119
      2          6           0       -0.630092   -0.170958   -0.016337
      3          8           0       -1.524894   -0.971127    0.181779
      4          6           0        0.798966   -0.668666   -0.260705
      5          7           0        1.823427    0.283434    0.169095
      6          1           0       -0.337685    1.827126    0.731820
      7          1           0       -0.470123    1.738572   -1.007174
      8          1           0       -1.943422    1.518419   -0.001715
      9          1           0        0.886736   -0.789049   -1.349794
     10          1           0        0.863696   -1.677917    0.172769
     11          1           0        2.722861    0.033256   -0.231422
     12          1           0        1.939628    0.239931    1.178583
 ---------------------------------------------------------------------

 SCF Done:  E(RB3LYP) =  -248.507554401     A.U. after    1 cycles

 The electronic state is 1-A.
 Alpha  occ. eigenvalues --  -19.13234 -14.32859 -10.27033 -10.21917 -10.18105
 Alpha  occ. eigenvalues --   -1.03249  -0.89242  -0.74219  -0.68528  -0.53164
 Alpha  occ. eigenvalues --   -0.49732  -0.46750  -0.44943  -0.43117  -0.40513
 Alpha  occ. eigenvalues --   -0.39249  -0.37602  -0.33969  -0.25814  -0.23534
 Alpha virt. eigenvalues --   -0.01063   0.07242   0.12474   0.13234   0.14724
 Alpha virt. eigenvalues --    0.15818   0.17507   0.19902   0.21216   0.24310
 Alpha virt. eigenvalues --    0.29955   0.33929   0.52560   0.53484   0.56263

 Mulliken charges:
               1
     1  C   -0.363347
     2  C    0.413917
     3  O   -0.439762
     4  C   -0.130258
     5  N   -0.606900
     6  H    0.134218
     7  H    0.128957
     8  H    0.126827
     9  H    0.131301
    10  H    0.111717
    11  H    0.247759
    12  H    0.245572
 Sum of Mulliken charges =  -0.00000

 Dipole moment (field-independent basis, Debye):
    X=              2.8296    Y=              0.7258    Z=             -0.0629  Tot=              2.9219
 Quadrupole moment (field-independent basis, Debye-Ang):
   XX=            -30.5630   YY=            -32.9418   ZZ=            -28.0936
   XY=             -5.2636   XZ=              1.4101   YZ=              0.9093

  Exact polarizability:  46.920   1.722  42.247  -1.295   0.119  33.714
 Approx polarizability:  63.139   9.455  58.827  -3.502  -0.975  48.506

                      1                      2                      3
                      A                      A                      A
 Frequencies --     65.8653               115.1615               249.3347
 Red. masses --      2.1046                 1.1576                 1.4537
 Frc consts  --      0.0054                 0.0090                 0.0532
 IR Inten    --      7.6607                 0.3748                15.9361

                      4                      5                      6
                      A                      A                      A
 Frequencies --    276.7501               439.6908               507.2398
 Red. masses --      1.7869                 2.1667                 4.3512
 Frc consts  --      0.0806                 0.2468                 0.6596
 IR Inten    --     36.5091                 5.2392                11.3338

                      7                      8                      9
                      A                      A                      A
 Frequencies --    544.5034               751.6640               824.7198
 Red. masses --      2.7992                 2.9893                 1.2747
 Frc consts  --      0.4890                 0.9951                 0.5108
 IR Inten    --      1.7843                 4.4719                62.8844

                     10                     11                     12
                      A                      A                      A
 Frequencies --    888.3059              1000.8734              1048.5895
 Red. masses --      1.5303                 1.5778                 1.5250
 Frc consts  --      0.7115                 0.9312                 0.9880
 IR Inten    --     97.4518                 2.6525                 6.8411

                     13                     14                     15
                      A                      A                      A
 Frequencies --   1085.8737              1177.6262              1239.8245
 Red. masses --      2.9100                 1.3853                 2.9141
 Frc consts  --      2.0217                 1.1319                 2.6392
 IR Inten    --     12.7193                 0.8624                56.9961

                     16                     17                     18
                      A                      A                      A
 Frequencies --   1321.6979              1397.1826              1401.0841
 Red. masses --      1.2196                 1.3041                 1.5045
 Frc consts  --      1.2553                 1.5000                 1.7401
 IR Inten    --     15.0766                23.2092                16.5983

                     19                     20                     21
                      A                      A                      A
 Frequencies --   1464.8137              1477.5124              1489.4541
 Red. masses --      1.0535                 1.0577                 1.0744
 Frc consts  --      1.3318                 1.3604                 1.4043
 IR Inten    --     15.3300                 6.9553                 8.8663

                     22                     23                     24
                      A                      A                      A
 Frequencies --   1677.1834              1815.6725              3004.6322
 Red. masses --      1.0883                10.6461                 1.0617
 Frc consts  --      1.8038                20.6783                 5.6470
 IR Inten    --     25.5333               143.0802                41.9222

                     25                     26                     27
                      A                      A                      A
 Frequencies --   3051.9049              3057.4243              3119.3773
 Red. masses --      1.0981                 1.0376                 1.0980
 Frc consts  --      6.0263                 5.7149                 6.2947
 IR Inten    --     18.1142                 3.5653                 7.6238

                     28                     29                     30
                      A                      A                      A
 Frequencies --   3168.2568              3501.8937              3585.7946
 Red. masses --      1.1053                 1.0501                 1.0929
 Frc consts  --      6.5370                 7.5873                 8.2797
 IR Inten    --     12.7492                 0.2719                 0.5810

 - Thermochemistry -
 -------------------
 Temperature   298.150 Kelvin.  Pressure   1.00000 Atm.
 Atom     1 has atomic number  6 and mass  12.00000

 Molecular mass:    73.05276 amu.
 Principal axes and moments of inertia in atomic units:
                           1         2         3
     Eigenvalues --   218.70813 461.70047 632.64576
           X            0.99632  -0.08544   0.00637
           Y            0.08537   0.99628   0.01181
           Z           -0.00736  -0.01122   0.99991
 This molecule is an asymmetric top.
 Rotational symmetry number  1.
 Rotational temperatures (Kelvin)      0.39602     0.18760     0.13691
 Rotational constants (GHZ):           8.25183     3.90890     2.85269
 Zero-point vibrational energy     267663.9 (Joules/Mol)
                                   63.97320 (Kcal/Mol)
 Warning -- explicit consideration of   7 degrees of freedom as
           vibrations may cause significant error
 Vibrational temperatures:     94.77   165.69   358.74   398.18   632.62
          (Kelvin)            729.80   783.42  1081.48  1186.59  1278.07
                             1440.03  1508.68  1562.33  1694.34  1783.83
                             1901.63  2010.23  2015.85  2107.54  2125.81
                             2142.99  2413.09  2612.34  4322.99  4391.00
                             4398.95  4488.08  4558.41  5038.44  5159.15

 Zero-point correction=                           0.101948 (Hartree/Particle)
 Thermal correction to Energy=                    0.108303
 Thermal correction to Enthalpy=                  0.109248
 Thermal correction to Gibbs Free Energy=         0.072084
 Sum of electronic and zero-point Energies=           -248.405607
 Sum of electronic and thermal Energies=              -248.399251
 Sum of electronic and thermal Enthalpies=            -248.398307
 Sum of electronic and thermal Free Energies=         -248.435471

                     E (Thermal)             CV                S
                      KCal/Mol        Cal/Mol-Kelvin    Cal/Mol-Kelvin
 Total                   67.961             21.033             78.218
 Electronic               0.000              0.000              0.000
 Translational            0.889              2.981             38.782
 Rotational               0.889              2.981             25.661
 Vibrational             66.184             15.071             13.776
 Vibration     1          0.597              1.971              4.273
 Vibration     2          0.608              1.937              3.180
 Vibration     3          0.662              1.764              1.735
 Vibration     4          0.678              1.716              1.554
 Vibration     5          0.800              1.384              0.828
 Vibration     6          0.862              1.234              0.640
 Vibration     7          0.900              1.152              0.556

 Normal termination of Gaussian 09 at Sat Aug 21 01:37:39 2021.
