 Gaussian 09, Revision E.01,
 Gaussian 09:  ES64L-G09RevE.01 30-Nov-2015

 ----------------------------
 #P OPT Freq B3LYP/6-31G(d,p)
 ----------------------------

 --------
 Frag_479
 --------
 Symbolic Z-matrix:
 Charge =  0 Multiplicity = 1

 SCF Done:  E(RB3LYP) =  -188.082102396     A.U. after   14 cycles
 SCF Done:  E(RB3LYP) =  -188.082144722     A.U. after    9 cycles
 SCF Done:  E(RB3LYP) =  -188.082147400     A.U. after    8 cycles
 Optimization completed.
    -- Stationary point found.
 Normal termination of Gaussian 09 at Thu Sep  8 14:54:43 2022.

 ----------------------------------------------------------------------
 #P Geom=AllCheck Guess=TCheck SCRF=Check GenChk RB3LYP/6-31G(d,p) Freq
 ----------------------------------------------------------------------

 Structure from the checkpoint file:  "B3LYP6-31Gdp.Frag_479.chk"
 --------
 Frag_479
 --------
 Charge =  0 Multiplicity = 1

                         Standard orientation:
 ---------------------------------------------------------------------
 Center     Atomic      Atomic             Coordinates (Angstroms)
 Number     Number       Type             X           Y           Z
 ---------------------------------------------------------------------
      1          6           0        1.680013    0.070659    0.000086
      2          7           0        0.535860   -0.491304   -0.000027
      3          6           0       -0.587517    0.372298   -0.000149
      4          7           0       -1.789775   -0.032441    0.000071
      5          1           0        1.823759    1.160938   -0.000024
      6          1           0        2.578105   -0.546708   -0.000093
      7          1           0       -0.390097    1.453816    0.000157
      8          1           0       -1.789339   -1.059569    0.000029
 ---------------------------------------------------------------------

 SCF Done:  E(RB3LYP) =  -188.082147400     A.U. after    1 cycles

 The electronic state is 1-A.
 Alpha  occ. eigenvalues --  -14.35869 -14.32786 -10.26015 -10.25733  -0.96387
 Alpha  occ. eigenvalues --   -0.88656  -0.66812  -0.59325  -0.52051  -0.47986
 Alpha  occ. eigenvalues --   -0.42581  -0.39921  -0.29927  -0.29067  -0.27673
 Alpha virt. eigenvalues --   -0.06278   0.04386   0.09262   0.12682   0.15474
 Alpha virt. eigenvalues --    0.16528   0.22144   0.33313   0.38702   0.49647
 Alpha virt. eigenvalues --    0.56653   0.58398   0.58853   0.59830   0.64052

 Mulliken charges:
               1
     1  C   -0.007260
     2  N   -0.340580
     3  C    0.265498
     4  N   -0.479538
     5  H    0.103800
     6  H    0.124552
     7  H    0.092574
     8  H    0.240953
 Sum of Mulliken charges =  -0.00000

 Dipole moment (field-independent basis, Debye):
    X=              2.7707    Y=              0.5303    Z=             -0.0002  Tot=              2.8210
 Quadrupole moment (field-independent basis, Debye-Ang):
   XX=            -24.5808   YY=            -22.7998   ZZ=            -24.4277
   XY=              3.1285   XZ=              0.0001   YZ=              0.0000

  Exact polarizability:  58.364   5.292  32.597  -0.001   0.001  14.896
 Approx polarizability:  96.979  13.210  47.020  -0.002   0.001  21.470

                      1                      2                      3
                      A                      A                      A
 Frequencies --    124.1366               360.8379               607.4202
 Red. masses --      3.1755                 2.7144                 3.4975
 Frc consts  --      0.0288                 0.2082                 0.7603
 IR Inten    --      2.2983                 3.0017                11.2959

                      4                      5                      6
                      A                      A                      A
 Frequencies --    635.7206               938.3216               989.4515
 Red. masses --      1.0881                 1.9684                 2.9381
 Frc consts  --      0.2591                 1.0211                 1.6948
 IR Inten    --      6.7793                29.5157                25.1495

                      7                      8                      9
                      A                      A                      A
 Frequencies --   1078.2475              1117.0489              1218.1697
 Red. masses --      1.3594                 1.0905                 1.3294
 Frc consts  --      0.9312                 0.8017                 1.1623
 IR Inten    --     11.5578                59.4201                43.3290

                     10                     11                     12
                      A                      A                      A
 Frequencies --   1283.6905              1421.2396              1500.9321
 Red. masses --      1.6315                 1.1828                 1.2104
 Frc consts  --      1.5840                 1.4077                 1.6065
 IR Inten    --     79.9850                28.6267                24.4649

                     13                     14                     15
                      A                      A                      A
 Frequencies --   1706.7947              1733.8113              3024.2822
 Red. masses --      5.9484                 6.7973                 1.0652
 Frc consts  --     10.2096                12.0390                 5.7404
 IR Inten    --     97.7658                21.0836                30.2333

                     16                     17                     18
                      A                      A                      A
 Frequencies --   3051.5739              3172.9448              3430.6218
 Red. masses --      1.0883                 1.1063                 1.0728
 Frc consts  --      5.9710                 6.5619                 7.4391
 IR Inten    --     54.7558                19.2063                 0.2322

 - Thermochemistry -
 -------------------
 Temperature   298.150 Kelvin.  Pressure   1.00000 Atm.
 Atom     1 has atomic number  6 and mass  12.00000

 Molecular mass:    56.03745 amu.
 Principal axes and moments of inertia in atomic units:
                           1         2         3
     Eigenvalues --    35.61832 358.10378 393.72209
           X            0.99974   0.02283  -0.00000
           Y           -0.02283   0.99974   0.00002
           Z            0.00000  -0.00002   1.00000
 This molecule is an asymmetric top.
 Rotational symmetry number  1.
 Rotational temperatures (Kelvin)      2.43172     0.24187     0.21999
 Rotational constants (GHZ):          50.66891     5.03972     4.58379
 Zero-point vibrational energy     163860.0 (Joules/Mol)
                                   39.16347 (Kcal/Mol)
 Warning -- explicit consideration of   3 degrees of freedom as
           vibrations may cause significant error
 Vibrational temperatures:    178.60   519.16   873.94   914.66  1350.03
          (Kelvin)           1423.60  1551.36  1607.18  1752.67  1846.94
                             2044.84  2159.50  2455.69  2494.56  4351.26
                             4390.53  4565.15  4935.89

 Zero-point correction=                           0.062411 (Hartree/Particle)
 Thermal correction to Energy=                    0.066758
 Thermal correction to Enthalpy=                  0.067703
 Thermal correction to Gibbs Free Energy=         0.036079
 Sum of electronic and zero-point Energies=           -188.019736
 Sum of electronic and thermal Energies=              -188.015389
 Sum of electronic and thermal Enthalpies=            -188.014445
 Sum of electronic and thermal Free Energies=         -188.046068

                     E (Thermal)             CV                S
                      KCal/Mol        Cal/Mol-Kelvin    Cal/Mol-Kelvin
 Total                   41.892             13.411             66.557
 Electronic               0.000              0.000              0.000
 Translational            0.889              2.981             37.992
 Rotational               0.889              2.981             23.134
 Vibrational             40.114              7.450              5.431
 Vibration     1          0.610              1.929              3.035
 Vibration     2          0.735              1.553              1.118
 Vibration     3          0.966              1.016              0.437

 Optimization completed.
    -- Stationary point found.
 Normal termination of Gaussian 09 at Thu Sep  8 14:54:50 2022.
