 Gaussian 09, Revision E.01,
 Gaussian 09:  ES64L-G09RevE.01 30-Nov-2015

 ----------------------------
 #P OPT Freq B3LYP/6-31G(d,p)
 ----------------------------

 --------
 Frag_529
 --------
 Symbolic Z-matrix:
 Charge =  0 Multiplicity = 1

 SCF Done:  E(RB3LYP) =  -287.827863959     A.U. after   14 cycles
 SCF Done:  E(RB3LYP) =  -287.827950168     A.U. after   11 cycles
 SCF Done:  E(RB3LYP) =  -287.827826630     A.U. after   11 cycles
 SCF Done:  E(RB3LYP) =  -287.827967223     A.U. after   11 cycles
 SCF Done:  E(RB3LYP) =  -287.827975316     A.U. after    9 cycles
 SCF Done:  E(RB3LYP) =  -287.827982488     A.U. after    9 cycles
 SCF Done:  E(RB3LYP) =  -287.827984337     A.U. after    9 cycles
 SCF Done:  E(RB3LYP) =  -287.827984564     A.U. after    8 cycles
 SCF Done:  E(RB3LYP) =  -287.827984602     A.U. after    7 cycles
 SCF Done:  E(RB3LYP) =  -287.827984612     A.U. after    7 cycles
 SCF Done:  E(RB3LYP) =  -287.827984613     A.U. after    7 cycles
 Optimization completed.
    -- Stationary point found.
 Normal termination of Gaussian 09 at Thu Sep  8 15:23:43 2022.

 ----------------------------------------------------------------------
 #P Geom=AllCheck Guess=TCheck SCRF=Check GenChk RB3LYP/6-31G(d,p) Freq
 ----------------------------------------------------------------------

 Structure from the checkpoint file:  "B3LYP6-31Gdp.Frag_529.chk"
 --------
 Frag_529
 --------
 Charge =  0 Multiplicity = 1

                         Standard orientation:
 ---------------------------------------------------------------------
 Center     Atomic      Atomic             Coordinates (Angstroms)
 Number     Number       Type             X           Y           Z
 ---------------------------------------------------------------------
      1          6           0       -1.928729    0.598344   -0.387969
      2          6           0       -0.741655   -0.240089    0.036607
      3          8           0       -0.867559   -1.231720    0.731510
      4          6           0        0.649013    0.214754   -0.426091
      5          6           0        1.164814    1.280884    0.570873
      6          7           0        1.504079   -0.958903   -0.552449
      7          1           0       -2.805267    0.331710    0.204024
      8          1           0       -2.139791    0.401169   -1.446321
      9          1           0       -1.722067    1.669540   -0.298597
     10          1           0        0.541378    0.695238   -1.409431
     11          1           0        2.157604    1.625381    0.262801
     12          1           0        1.244841    0.852086    1.575072
     13          1           0        0.512747    2.160028    0.620779
     14          1           0        1.279696   -1.594565    0.210922
     15          1           0        2.482126   -0.697867   -0.464701
 ---------------------------------------------------------------------

 SCF Done:  E(RB3LYP) =  -287.827984613     A.U. after    1 cycles

 The electronic state is 1-A.
 Alpha  occ. eigenvalues --  -19.14329 -14.30711 -10.27770 -10.22287 -10.19453
 Alpha  occ. eigenvalues --  -10.19035  -1.04346  -0.88269  -0.76552  -0.72627
 Alpha  occ. eigenvalues --   -0.63912  -0.53208  -0.49793  -0.46289  -0.45610
 Alpha  occ. eigenvalues --   -0.42864  -0.42064  -0.40880  -0.40200  -0.37190
 Alpha  occ. eigenvalues --   -0.36136  -0.35004  -0.25135  -0.23227
 Alpha virt. eigenvalues --   -0.01658   0.07588   0.10879   0.13128   0.14386
 Alpha virt. eigenvalues --    0.14858   0.16291   0.16600   0.18252   0.19543
 Alpha virt. eigenvalues --    0.21784   0.23341   0.25860   0.30707   0.35225

 Mulliken charges:
               1
     1  C   -0.390003
     2  C    0.437238
     3  O   -0.447547
     4  C    0.004026
     5  C   -0.329265
     6  N   -0.598687
     7  H    0.139654
     8  H    0.143123
     9  H    0.122849
    10  H    0.098506
    11  H    0.110930
    12  H    0.119658
    13  H    0.102969
    14  H    0.254809
    15  H    0.231740
 Sum of Mulliken charges =  -0.00000

 Dipole moment (field-independent basis, Debye):
    X=              0.4762    Y=              2.7425    Z=             -0.2159  Tot=              2.7919
 Quadrupole moment (field-independent basis, Debye-Ang):
   XX=            -33.3695   YY=            -39.9253   ZZ=            -39.1464
   XY=             -1.5907   XZ=              3.2968   YZ=             -0.6668

  Exact polarizability:  57.664  -1.124  53.177   0.236  -3.840  44.101
 Approx polarizability:  71.335   0.042  79.561  -1.845 -11.105  66.071

                      1                      2                      3
                      A                      A                      A
 Frequencies --     67.9492               126.3790               236.6655
 Red. masses --      3.5302                 1.0299                 2.2142
 Frc consts  --      0.0096                 0.0097                 0.0731
 IR Inten    --      4.2089                 0.5495                 4.1051

                      4                      5                      6
                      A                      A                      A
 Frequencies --    247.9131               256.1232               307.1290
 Red. masses --      1.1873                 1.2083                 2.5583
 Frc consts  --      0.0430                 0.0467                 0.1422
 IR Inten    --     16.8322                34.3683                 1.8571

                      7                      8                      9
                      A                      A                      A
 Frequencies --    358.7874               450.4649               596.3132
 Red. masses --      3.0846                 2.5697                 2.5336
 Frc consts  --      0.2340                 0.3072                 0.5308
 IR Inten    --      0.2698                 9.6547                 2.0278

                     10                     11                     12
                      A                      A                      A
 Frequencies --    614.7172               752.9155               863.1221
 Red. masses --      3.4812                 2.4817                 1.8341
 Frc consts  --      0.7751                 0.8289                 0.8050
 IR Inten    --     10.0328                 5.9694               129.8118

                     13                     14                     15
                      A                      A                      A
 Frequencies --    912.6932               966.9149               991.2576
 Red. masses --      1.5049                 1.5355                 1.6057
 Frc consts  --      0.7386                 0.8458                 0.9296
 IR Inten    --     49.7793                16.1646                 8.2335

                     16                     17                     18
                      A                      A                      A
 Frequencies --   1038.4652              1098.8343              1168.9999
 Red. masses --      1.9112                 2.3030                 2.1399
 Frc consts  --      1.2143                 1.6383                 1.7229
 IR Inten    --      8.1632                 9.0780                40.3349

                     19                     20                     21
                      A                      A                      A
 Frequencies --   1189.4717              1251.3081              1347.0549
 Red. masses --      1.3751                 2.1070                 1.2856
 Frc consts  --      1.1463                 1.9438                 1.3745
 IR Inten    --     11.3228                27.6267                 6.9916

                     22                     23                     24
                      A                      A                      A
 Frequencies --   1394.3325              1409.1354              1422.1530
 Red. masses --      1.2727                 1.3018                 1.4178
 Frc consts  --      1.4578                 1.5230                 1.6895
 IR Inten    --     27.6584                 4.3056                 8.9355

                     25                     26                     27
                      A                      A                      A
 Frequencies --   1476.7081              1488.9378              1510.2284
 Red. masses --      1.0538                 1.0537                 1.0467
 Frc consts  --      1.3540                 1.3763                 1.4065
 IR Inten    --      8.7771                 8.3667                 6.7855

                     28                     29                     30
                      A                      A                      A
 Frequencies --   1512.6751              1645.0501              1812.5664
 Red. masses --      1.0783                 1.1065                 8.9581
 Frc consts  --      1.4538                 1.7643                17.3402
 IR Inten    --      6.4352                64.8745               118.7261

                     31                     32                     33
                      A                      A                      A
 Frequencies --   3015.5218              3038.1453              3046.8000
 Red. masses --      1.0838                 1.0344                 1.0390
 Frc consts  --      5.8064                 5.6253                 5.6826
 IR Inten    --     33.5685                19.7835                 3.5702

                     34                     35                     36
                      A                      A                      A
 Frequencies --   3108.2187              3112.5068              3122.3704
 Red. masses --      1.1008                 1.0982                 1.1037
 Frc consts  --      6.2659                 6.2686                 6.3398
 IR Inten    --     18.6922                23.4651                24.5599

                     37                     38                     39
                      A                      A                      A
 Frequencies --   3164.8776              3489.7636              3583.0613
 Red. masses --      1.1033                 1.0490                 1.0928
 Frc consts  --      6.5112                 7.5267                 8.2663
 IR Inten    --      9.7063                 8.6702                 3.5022

 - Thermochemistry -
 -------------------
 Temperature   298.150 Kelvin.  Pressure   1.00000 Atm.
 Atom     1 has atomic number  6 and mass  12.00000

 Molecular mass:    87.06841 amu.
 Principal axes and moments of inertia in atomic units:
                           1         2         3
     Eigenvalues --   374.01035 623.97954 797.77003
           X            0.99883  -0.03351   0.03496
           Y            0.03283   0.99926   0.01984
           Z           -0.03560  -0.01867   0.99919
 This molecule is an asymmetric top.
 Rotational symmetry number  1.
 Rotational temperatures (Kelvin)      0.23158     0.13881     0.10857
 Rotational constants (GHZ):           4.82538     2.89231     2.26223
 Zero-point vibrational energy     342111.2 (Joules/Mol)
                                   81.76655 (Kcal/Mol)
 Warning -- explicit consideration of  10 degrees of freedom as
           vibrations may cause significant error
 Vibrational temperatures:     97.76   181.83   340.51   356.69   368.50
          (Kelvin)            441.89   516.21   648.12   857.96   884.44
                             1083.28  1241.84  1313.16  1391.17  1426.20
                             1494.12  1580.98  1681.93  1711.38  1800.35
                             1938.11  2006.13  2027.43  2046.16  2124.65
                             2142.25  2172.88  2176.40  2366.86  2607.88
                             4338.66  4371.21  4383.66  4472.03  4478.20
                             4492.39  4553.55  5020.99  5155.22

 Zero-point correction=                           0.130303 (Hartree/Particle)
 Thermal correction to Energy=                    0.137880
 Thermal correction to Enthalpy=                  0.138825
 Thermal correction to Gibbs Free Energy=         0.098995
 Sum of electronic and zero-point Energies=           -287.697681
 Sum of electronic and thermal Energies=              -287.690104
 Sum of electronic and thermal Enthalpies=            -287.689160
 Sum of electronic and thermal Free Energies=         -287.728989

                     E (Thermal)             CV                S
                      KCal/Mol        Cal/Mol-Kelvin    Cal/Mol-Kelvin
 Total                   86.521             26.385             83.828
 Electronic               0.000              0.000              0.000
 Translational            0.889              2.981             39.305
 Rotational               0.889              2.981             26.723
 Vibrational             84.744             20.423             17.800
 Vibration     1          0.598              1.969              4.212
 Vibration     2          0.611              1.927              3.000
 Vibration     3          0.656              1.785              1.828
 Vibration     4          0.662              1.766              1.745
 Vibration     5          0.666              1.752              1.688
 Vibration     6          0.697              1.660              1.378
 Vibration     7          0.734              1.557              1.127
 Vibration     8          0.809              1.360              0.794
 Vibration     9          0.954              1.040              0.456
 Vibration    10          0.974              1.001              0.425

 Optimization completed.
    -- Stationary point found.
 Normal termination of Gaussian 09 at Thu Sep  8 15:23:55 2022.
