 Gaussian 09, Revision E.01,
 Gaussian 09:  ES64L-G09RevE.01 30-Nov-2015

 ----------------------------
 #P OPT Freq B3LYP/6-31G(d,p)
 ----------------------------

 --------
 Frag_565
 --------
 Symbolic Z-matrix:
 Charge =  0 Multiplicity = 1

 SCF Done:  E(RB3LYP) =  -269.125110467     A.U. after   14 cycles
 SCF Done:  E(RB3LYP) =  -269.125151200     A.U. after    9 cycles
 SCF Done:  E(RB3LYP) =  -269.125169779     A.U. after   10 cycles
 SCF Done:  E(RB3LYP) =  -269.125172955     A.U. after   10 cycles
 SCF Done:  E(RB3LYP) =  -269.125174337     A.U. after    7 cycles
 SCF Done:  E(RB3LYP) =  -269.125174538     A.U. after    7 cycles
 SCF Done:  E(RB3LYP) =  -269.125174553     A.U. after    6 cycles
 Optimization completed.
    -- Stationary point found.
 Normal termination of Gaussian 09 at Thu Sep  8 15:16:02 2022.

 ----------------------------------------------------------------------
 #P Geom=AllCheck Guess=TCheck SCRF=Check GenChk RB3LYP/6-31G(d,p) Freq
 ----------------------------------------------------------------------

 Structure from the checkpoint file:  "B3LYP6-31Gdp.Frag_565.chk"
 --------
 Frag_565
 --------
 Charge =  0 Multiplicity = 1

                         Standard orientation:
 ---------------------------------------------------------------------
 Center     Atomic      Atomic             Coordinates (Angstroms)
 Number     Number       Type             X           Y           Z
 ---------------------------------------------------------------------
      1          6           0        1.745588   -0.800529   -0.517065
      2          6           0        0.668862    0.278315   -0.366411
      3          6           0        0.940833    1.211648    0.825084
      4          7           0       -0.675290   -0.349470   -0.391334
      5          6           0       -1.018109   -1.063781    0.835117
      6          7           0       -1.662653    0.740472   -0.534202
      7          1           0        2.721011   -0.337142   -0.695670
      8          1           0        1.512821   -1.461592   -1.356378
      9          1           0        1.839107   -1.412195    0.386722
     10          1           0        0.697869    0.889786   -1.279778
     11          1           0        0.113576    1.913751    0.953553
     12          1           0        1.860271    1.782406    0.657748
     13          1           0        1.068951    0.650332    1.757064
     14          1           0       -1.132059   -0.409248    1.713819
     15          1           0       -1.965606   -1.594856    0.683618
     16          1           0       -0.254295   -1.815428    1.044773
     17          1           0       -2.564989    0.259656   -0.541580
     18          1           0       -1.554098    1.043601   -1.505494
 ---------------------------------------------------------------------

 SCF Done:  E(RB3LYP) =  -269.125174553     A.U. after    1 cycles

 The electronic state is 1-A.
 Alpha  occ. eigenvalues --  -14.33911 -14.33511 -10.20747 -10.19627 -10.16986
 Alpha  occ. eigenvalues --  -10.16175  -0.95316  -0.80428  -0.74583  -0.67702
 Alpha  occ. eigenvalues --   -0.65381  -0.55269  -0.48593  -0.47452  -0.44757
 Alpha  occ. eigenvalues --   -0.42360  -0.39874  -0.39275  -0.38012  -0.36811
 Alpha  occ. eigenvalues --   -0.35005  -0.33102  -0.32689  -0.30196  -0.18344
 Alpha virt. eigenvalues --    0.07726   0.10790   0.11865   0.13054   0.15171
 Alpha virt. eigenvalues --    0.15506   0.16595   0.17498   0.18348   0.19458
 Alpha virt. eigenvalues --    0.20404   0.21130   0.21932   0.23130   0.24949

 Mulliken charges:
               1
     1  C   -0.314260
     2  C    0.092936
     3  C   -0.319168
     4  N   -0.345088
     5  C   -0.157220
     6  N   -0.458903
     7  H    0.100582
     8  H    0.112213
     9  H    0.099802
    10  H    0.080623
    11  H    0.129494
    12  H    0.093772
    13  H    0.095576
    14  H    0.097956
    15  H    0.097783
    16  H    0.110077
    17  H    0.239760
    18  H    0.244065
 Sum of Mulliken charges =  -0.00000

 Dipole moment (field-independent basis, Debye):
    X=             -0.2027    Y=             -0.3761    Z=             -0.3899  Tot=              0.5784
 Quadrupole moment (field-independent basis, Debye-Ang):
   XX=            -36.6213   YY=            -41.1394   ZZ=            -38.6400
   XY=              1.1790   XZ=              1.3093   YZ=             -2.8661

  Exact polarizability:  65.955   0.643  56.287   0.278  -3.131  54.976
 Approx polarizability:  84.618   0.205  76.657   0.820  -5.844  77.618

                      1                      2                      3
                      A                      A                      A
 Frequencies --     97.3388               167.2302               227.0321
 Red. masses --      2.2621                 1.0961                 1.0743
 Frc consts  --      0.0126                 0.0181                 0.0326
 IR Inten    --      2.9241                42.4490                 2.3489

                      4                      5                      6
                      A                      A                      A
 Frequencies --    254.9259               280.7133               287.0165
 Red. masses --      1.0849                 1.0985                 2.3321
 Frc consts  --      0.0415                 0.0510                 0.1132
 IR Inten    --      0.2317                 0.6374                 1.9711

                      7                      8                      9
                      A                      A                      A
 Frequencies --    305.7091               347.9024               442.4600
 Red. masses --      2.5960                 2.3441                 2.4654
 Frc consts  --      0.1429                 0.1672                 0.2844
 IR Inten    --      0.4016                 1.7283                 1.0148

                     10                     11                     12
                      A                      A                      A
 Frequencies --    511.5904               544.0600               748.3123
 Red. masses --      3.4179                 2.3267                 3.1413
 Frc consts  --      0.5271                 0.4058                 1.0364
 IR Inten    --     13.7202                 6.9198                 8.0465

                     13                     14                     15
                      A                      A                      A
 Frequencies --    872.8016               928.4995               948.1958
 Red. masses --      2.7796                 1.2623                 1.8813
 Frc consts  --      1.2476                 0.6412                 0.9965
 IR Inten    --      1.6070                 1.2305                 7.6192

                     16                     17                     18
                      A                      A                      A
 Frequencies --    960.0089              1048.5032              1126.9277
 Red. masses --      1.6095                 2.4251                 1.5138
 Frc consts  --      0.8740                 1.5708                 1.1327
 IR Inten    --      3.9469                11.0410                45.5357

                     19                     20                     21
                      A                      A                      A
 Frequencies --   1137.3142              1159.4524              1176.3714
 Red. masses --      1.4659                 1.5789                 1.7455
 Frc consts  --      1.1171                 1.2506                 1.4232
 IR Inten    --     10.8043                 8.8191                28.8444

                     22                     23                     24
                      A                      A                      A
 Frequencies --   1196.2890              1226.5453              1355.8025
 Red. masses --      1.7220                 1.9001                 1.3768
 Frc consts  --      1.4520                 1.6842                 1.4911
 IR Inten    --     17.3713                 2.0045                 4.6194

                     25                     26                     27
                      A                      A                      A
 Frequencies --   1378.1106              1402.8105              1414.3318
 Red. masses --      1.4265                 1.2924                 1.2642
 Frc consts  --      1.5962                 1.4984                 1.4900
 IR Inten    --     10.8201                14.9357                 2.7210

                     28                     29                     30
                      A                      A                      A
 Frequencies --   1435.9898              1459.7719              1494.2652
 Red. masses --      1.3377                 1.1797                 1.0459
 Frc consts  --      1.6252                 1.4811                 1.3759
 IR Inten    --      9.7075                 0.1653                 6.8118

                     31                     32                     33
                      A                      A                      A
 Frequencies --   1502.4250              1505.5780              1517.8090
 Red. masses --      1.0565                 1.0494                 1.0475
 Frc consts  --      1.4052                 1.4015                 1.4218
 IR Inten    --      1.4205                 1.4233                 7.4374

                     34                     35                     36
                      A                      A                      A
 Frequencies --   1527.5818              1534.8112              1659.3454
 Red. masses --      1.0459                 1.0597                 1.0684
 Frc consts  --      1.4380                 1.4708                 1.7332
 IR Inten    --      3.3096                 4.0816                34.6561

                     37                     38                     39
                      A                      A                      A
 Frequencies --   2989.4891              3012.5971              3044.7027
 Red. masses --      1.0492                 1.0846                 1.0363
 Frc consts  --      5.5248                 5.7996                 5.6601
 IR Inten    --     60.3561                23.6728                14.5808

                     40                     41                     42
                      A                      A                      A
 Frequencies --   3049.7064              3064.4159              3107.8994
 Red. masses --      1.0364                 1.0905                 1.1019
 Frc consts  --      5.6794                 6.0336                 6.2708
 IR Inten    --     25.5483                51.6519                 4.5866

                     43                     44                     45
                      A                      A                      A
 Frequencies --   3115.2251              3131.6373              3138.0752
 Red. masses --      1.1008                 1.1028                 1.0967
 Frc consts  --      6.2943                 6.3722                 6.3631
 IR Inten    --     68.6790                23.6417                15.1445

                     46                     47                     48
                      A                      A                      A
 Frequencies --   3140.5249              3413.9737              3499.7681
 Red. masses --      1.1009                 1.0509                 1.0912
 Frc consts  --      6.3974                 7.2167                 7.8746
 IR Inten    --     20.1601                 5.2343                 1.8534

 - Thermochemistry -
 -------------------
 Temperature   298.150 Kelvin.  Pressure   1.00000 Atm.
 Atom     1 has atomic number  6 and mass  12.00000

 Molecular mass:    88.10005 amu.
 Principal axes and moments of inertia in atomic units:
                           1         2         3
     Eigenvalues --   399.88702 663.61884 755.29946
           X            0.99991   0.01163  -0.00716
           Y           -0.01183   0.99952  -0.02874
           Z            0.00682   0.02882   0.99956
 This molecule is an asymmetric top.
 Rotational symmetry number  1.
 Rotational temperatures (Kelvin)      0.21660     0.13052     0.11467
 Rotational constants (GHZ):           4.51313     2.71954     2.38944
 Zero-point vibrational energy     435990.1 (Joules/Mol)
                                  104.20413 (Kcal/Mol)
 Warning -- explicit consideration of  11 degrees of freedom as
           vibrations may cause significant error
 Vibrational temperatures:    140.05   240.61   326.65   366.78   403.88
          (Kelvin)            412.95   439.85   500.55   636.60   736.06
                              782.78  1076.65  1255.77  1335.90  1364.24
                             1381.24  1508.56  1621.40  1636.34  1668.19
                             1692.53  1721.19  1764.72  1950.69  1982.79
                             2018.33  2034.91  2066.07  2100.28  2149.91
                             2161.65  2166.19  2183.79  2197.85  2208.25
                             2387.42  4301.20  4334.45  4380.64  4387.84
                             4409.01  4471.57  4482.11  4505.72  4514.98
                             4518.51  4911.94  5035.38

 Zero-point correction=                           0.166060 (Hartree/Particle)
 Thermal correction to Energy=                    0.174092
 Thermal correction to Enthalpy=                  0.175037
 Thermal correction to Gibbs Free Energy=         0.134844
 Sum of electronic and zero-point Energies=           -268.959115
 Sum of electronic and thermal Energies=              -268.951082
 Sum of electronic and thermal Enthalpies=            -268.950138
 Sum of electronic and thermal Free Energies=         -268.990331

                     E (Thermal)             CV                S
                      KCal/Mol        Cal/Mol-Kelvin    Cal/Mol-Kelvin
 Total                  109.245             29.133             84.593
 Electronic               0.000              0.000              0.000
 Translational            0.889              2.981             39.340
 Rotational               0.889              2.981             26.797
 Vibrational            107.467             23.172             18.456
 Vibration     1          0.603              1.951              3.507
 Vibration     2          0.624              1.883              2.466
 Vibration     3          0.651              1.800              1.902
 Vibration     4          0.665              1.754              1.696
 Vibration     5          0.680              1.709              1.529
 Vibration     6          0.684              1.698              1.491
 Vibration     7          0.696              1.663              1.385
 Vibration     8          0.726              1.580              1.176
 Vibration     9          0.802              1.378              0.819
 Vibration    10          0.867              1.224              0.630
 Vibration    11          0.899              1.153              0.557

 Optimization completed.
    -- Stationary point found.
 Normal termination of Gaussian 09 at Thu Sep  8 15:16:17 2022.
