 Gaussian 09, Revision E.01,
 Gaussian 09:  ES64L-G09RevE.01 30-Nov-2015

 -------------------------
 #P OPT Freq B3LYP/6-31G**
 -------------------------

 --------
 Frag_195
 --------
 Symbolic Z-matrix:
 Charge =  0 Multiplicity = 1

 SCF Done:  E(RB3LYP) =  -265.488829680     A.U. after   13 cycles
 SCF Done:  E(RB3LYP) =  -265.494991057     A.U. after   13 cycles
 SCF Done:  E(RB3LYP) =  -265.491294084     A.U. after   14 cycles
 SCF Done:  E(RB3LYP) =  -265.495478865     A.U. after   11 cycles
 SCF Done:  E(RB3LYP) =  -265.495828604     A.U. after   12 cycles
 SCF Done:  E(RB3LYP) =  -265.495361305     A.U. after   12 cycles
 SCF Done:  E(RB3LYP) =  -265.495978180     A.U. after   10 cycles
 SCF Done:  E(RB3LYP) =  -265.496020509     A.U. after    9 cycles
 SCF Done:  E(RB3LYP) =  -265.496024247     A.U. after    8 cycles
 SCF Done:  E(RB3LYP) =  -265.496024730     A.U. after    8 cycles
 Optimization completed.
    -- Stationary point found.
 Normal termination of Gaussian 09 at Sat Aug 21 01:38:03 2021.

 ----------------------------------------------------------------------
 #P Geom=AllCheck Guess=TCheck SCRF=Check GenChk RB3LYP/6-31G(d,p) Freq
 ----------------------------------------------------------------------

 Structure from the checkpoint file:  "/public/home/users/caep010/.cache/gau_scr/Gau-40062.chk"
 --------
 Frag_195
 --------
 Charge =  0 Multiplicity = 1

                         Standard orientation:
 ---------------------------------------------------------------------
 Center     Atomic      Atomic             Coordinates (Angstroms)
 Number     Number       Type             X           Y           Z
 ---------------------------------------------------------------------
      1          7           0       -2.379040   -0.325876    0.000038
      2          6           0       -1.231671   -0.134810   -0.000112
      3          6           0        0.189646    0.176103   -0.000023
      4          7           0        0.562722    1.569743    0.000025
      5          6           0        1.114828   -0.769901    0.749449
      6          6           0        1.114912   -0.769879   -0.749415
      7          1           0        0.185564    2.039611    0.819716
      8          1           0        0.185601    2.039658   -0.819654
      9          1           0        1.942139   -0.288232    1.258824
     10          1           0        0.666116   -1.609515    1.268937
     11          1           0        0.666246   -1.609476   -1.268971
     12          1           0        1.942269   -0.288190   -1.258693
 ---------------------------------------------------------------------

 SCF Done:  E(RB3LYP) =  -265.496024730     A.U. after    1 cycles

 The electronic state is 1-A.
 Alpha  occ. eigenvalues --  -14.34517 -14.32993 -10.27058 -10.22312 -10.21355
 Alpha  occ. eigenvalues --  -10.21329  -0.94099  -0.89108  -0.84396  -0.65752
 Alpha  occ. eigenvalues --   -0.62649  -0.55085  -0.50187  -0.49923  -0.44171
 Alpha  occ. eigenvalues --   -0.39022  -0.36297  -0.36167  -0.35858  -0.31684
 Alpha  occ. eigenvalues --   -0.28883  -0.27053
 Alpha virt. eigenvalues --    0.02732   0.03356   0.07479   0.10438   0.11508
 Alpha virt. eigenvalues --    0.12293   0.14410   0.16686   0.19527   0.21356
 Alpha virt. eigenvalues --    0.25054   0.25983   0.31366   0.36672   0.47476

 Mulliken charges:
               1
     1  N   -0.481917
     2  C    0.328274
     3  C    0.098648
     4  N   -0.596731
     5  C   -0.205040
     6  C   -0.205046
     7  H    0.257350
     8  H    0.257348
     9  H    0.138545
    10  H    0.135015
    11  H    0.135012
    12  H    0.138543
 Sum of Mulliken charges =  -0.00000

 Dipole moment (field-independent basis, Debye):
    X=              2.8965    Y=              0.7858    Z=             -0.0001  Tot=              3.0012
 Quadrupole moment (field-independent basis, Debye-Ang):
   XX=            -46.1948   YY=            -31.8122   ZZ=            -32.8866
   XY=             -3.4915   XZ=              0.0002   YZ=             -0.0000

  Exact polarizability:  60.185   1.218  46.349  -0.001  -0.000  41.227
 Approx polarizability:  95.704   5.052  63.419  -0.004  -0.001  58.801

                      1                      2                      3
                      A                      A                      A
 Frequencies --    182.3149               206.1136               300.4983
 Red. masses --      5.1356                 2.8447                 1.3144
 Frc consts  --      0.1006                 0.0712                 0.0699
 IR Inten    --      8.1334                11.1327                22.4339

                      4                      5                      6
                      A                      A                      A
 Frequencies --    366.3219               392.5410               572.4549
 Red. masses --      3.3257                 1.8364                 6.3138
 Frc consts  --      0.2629                 0.1667                 1.2191
 IR Inten    --      4.2792                17.6948                 6.8574

                      7                      8                      9
                      A                      A                      A
 Frequencies --    589.4776               668.4285               789.4741
 Red. masses --      4.8770                 4.6220                 1.0394
 Frc consts  --      0.9985                 1.2167                 0.3817
 IR Inten    --      0.0317                 6.4095                 0.5439

                     10                     11                     12
                      A                      A                      A
 Frequencies --    857.9434               878.5453               913.7311
 Red. masses --      1.5798                 4.3585                 2.1037
 Frc consts  --      0.6851                 1.9820                 1.0348
 IR Inten    --    175.0515                 4.8577                 4.6932

                     13                     14                     15
                      A                      A                      A
 Frequencies --    955.7803              1036.6809              1075.5017
 Red. masses --      1.2025                 1.8955                 1.4387
 Frc consts  --      0.6472                 1.2003                 0.9805
 IR Inten    --      0.0269                 9.7255                 6.5312

                     16                     17                     18
                      A                      A                      A
 Frequencies --   1090.8636              1201.7867              1276.0141
 Red. masses --      1.3504                 1.2831                 1.3453
 Frc consts  --      0.9468                 1.0919                 1.2905
 IR Inten    --      2.9323                 0.0242                 0.6409

                     19                     20                     21
                      A                      A                      A
 Frequencies --   1282.0791              1326.9987              1464.9092
 Red. masses --      2.9830                 3.2075                 1.0900
 Frc consts  --      2.8889                 3.3279                 1.3782
 IR Inten    --     16.6718                 8.7347                 3.1975

                     22                     23                     24
                      A                      A                      A
 Frequencies --   1503.1621              1672.1963              2341.7219
 Red. masses --      1.3563                 1.1007                12.6734
 Frc consts  --      1.8056                 1.8133                40.9463
 IR Inten    --      3.9498                18.6532                24.5098

                     25                     26                     27
                      A                      A                      A
 Frequencies --   3157.5665              3160.5157              3247.7045
 Red. masses --      1.0499                 1.0587                 1.1213
 Frc consts  --      6.1676                 6.2305                 6.9684
 IR Inten    --      7.6878                 1.3309                 0.0170

                     28                     29                     30
                      A                      A                      A
 Frequencies --   3259.0777              3495.2033              3579.9989
 Red. masses --      1.1181                 1.0487                 1.0941
 Frc consts  --      6.9973                 7.5483                 8.2619
 IR Inten    --      3.4110                 0.2843                 2.7967

 - Thermochemistry -
 -------------------
 Temperature   298.150 Kelvin.  Pressure   1.00000 Atm.
 Atom     1 has atomic number  7 and mass  14.00307

 Molecular mass:    82.05310 amu.
 Principal axes and moments of inertia in atomic units:
                           1         2         3
     Eigenvalues --   306.30318 577.44591 731.81263
           X            0.99947  -0.03260  -0.00000
           Y            0.03260   0.99947   0.00000
           Z            0.00000  -0.00000   1.00000
 This molecule is an asymmetric top.
 Rotational symmetry number  1.
 Rotational temperatures (Kelvin)      0.28277     0.14999     0.11836
 Rotational constants (GHZ):           5.89201     3.12539     2.46612
 Zero-point vibrational energy     256273.6 (Joules/Mol)
                                   61.25087 (Kcal/Mol)
 Warning -- explicit consideration of   7 degrees of freedom as
           vibrations may cause significant error
 Vibrational temperatures:    262.31   296.55   432.35   527.05   564.78
          (Kelvin)            823.63   848.13   961.72  1135.88  1234.39
                             1264.03  1314.65  1375.15  1491.55  1547.41
                             1569.51  1729.10  1835.90  1844.62  1909.25
                             2107.68  2162.71  2405.91  3369.21  4543.03
                             4547.27  4672.72  4689.08  5028.81  5150.81

 Zero-point correction=                           0.097609 (Hartree/Particle)
 Thermal correction to Energy=                    0.103577
 Thermal correction to Enthalpy=                  0.104521
 Thermal correction to Gibbs Free Energy=         0.068490
 Sum of electronic and zero-point Energies=           -265.398415
 Sum of electronic and thermal Energies=              -265.392448
 Sum of electronic and thermal Enthalpies=            -265.391503
 Sum of electronic and thermal Free Energies=         -265.427534

                     E (Thermal)             CV                S
                      KCal/Mol        Cal/Mol-Kelvin    Cal/Mol-Kelvin
 Total                   64.996             21.848             75.834
 Electronic               0.000              0.000              0.000
 Translational            0.889              2.981             39.128
 Rotational               0.889              2.981             26.362
 Vibrational             63.218             15.887             10.343
 Vibration     1          0.630              1.864              2.305
 Vibration     2          0.641              1.831              2.078
 Vibration     3          0.693              1.673              1.414
 Vibration     4          0.739              1.542              1.095
 Vibration     5          0.760              1.486              0.990
 Vibration     6          0.929              1.091              0.500
 Vibration     7          0.947              1.054              0.468

 Optimization completed.
    -- Stationary point found.
 Normal termination of Gaussian 09 at Sat Aug 21 01:38:13 2021.
