 Gaussian 09, Revision E.01,
 Gaussian 09:  ES64L-G09RevE.01 30-Nov-2015

 ----------------------------
 #P OPT Freq B3LYP/6-31G(d,p)
 ----------------------------

 ---------
 Frag_1015
 ---------
 Symbolic Z-matrix:
 Charge =  0 Multiplicity = 1

 SCF Done:  E(RB3LYP) =  -263.224059226     A.U. after   15 cycles
 SCF Done:  E(RB3LYP) =  -263.224167628     A.U. after   11 cycles
 SCF Done:  E(RB3LYP) =  -263.224170734     A.U. after   10 cycles
 SCF Done:  E(RB3LYP) =  -263.224169114     A.U. after   10 cycles
 SCF Done:  E(RB3LYP) =  -263.224172964     A.U. after   10 cycles
 Optimization completed.
    -- Stationary point found.
 Normal termination of Gaussian 09 at Thu Sep  8 14:47:24 2022.

 ----------------------------------------------------------------------
 #P Geom=AllCheck Guess=TCheck SCRF=Check GenChk RB3LYP/6-31G(d,p) Freq
 ----------------------------------------------------------------------

 Structure from the checkpoint file:  "B3LYP6-31Gdp.Frag_1015.chk"
 ---------
 Frag_1015
 ---------
 Charge =  0 Multiplicity = 1

                         Standard orientation:
 ---------------------------------------------------------------------
 Center     Atomic      Atomic             Coordinates (Angstroms)
 Number     Number       Type             X           Y           Z
 ---------------------------------------------------------------------
      1          6           0        1.871743   -0.005891    0.000006
      2          6           0        0.723714   -0.667634   -0.000006
      3          7           0       -0.553244    0.061696   -0.000045
      4          7           0       -1.660697   -0.576666    0.000016
      5          8           0       -0.494154    1.303678    0.000017
      6          1           0        1.868466    1.077884   -0.000015
      7          1           0        2.814583   -0.540141    0.000035
      8          1           0        0.622631   -1.746572    0.000014
      9          1           0       -1.427596   -1.574651    0.000033
 ---------------------------------------------------------------------

 SCF Done:  E(RB3LYP) =  -263.224172964     A.U. after    1 cycles

 The electronic state is 1-A.
 Alpha  occ. eigenvalues --  -19.15192 -14.53467 -14.36560 -10.25948 -10.22792
 Alpha  occ. eigenvalues --   -1.16457  -0.96131  -0.82914  -0.69358  -0.60638
 Alpha  occ. eigenvalues --   -0.56126  -0.49938  -0.49232  -0.47547  -0.42093
 Alpha  occ. eigenvalues --   -0.31271  -0.31094  -0.27621  -0.26529
 Alpha virt. eigenvalues --   -0.07589   0.01947   0.06178   0.11655   0.12541
 Alpha virt. eigenvalues --    0.14607   0.23904   0.27961   0.32230   0.34883
 Alpha virt. eigenvalues --    0.46162   0.50579   0.55352   0.56900   0.58958

 Mulliken charges:
               1
     1  C   -0.213596
     2  C    0.092829
     3  N    0.203003
     4  N   -0.297876
     5  O   -0.437929
     6  H    0.165691
     7  H    0.130909
     8  H    0.121836
     9  H    0.235133
 Sum of Mulliken charges =  -0.00000

 Dipole moment (field-independent basis, Debye):
    X=              3.2925    Y=             -3.3104    Z=             -0.0001  Tot=              4.6690
 Quadrupole moment (field-independent basis, Debye-Ang):
   XX=            -29.7229   YY=            -27.3188   ZZ=            -29.8772
   XY=              2.0918   XZ=              0.0001   YZ=             -0.0002

  Exact polarizability:  57.144   8.791  44.592  -0.000  -0.000  15.783
 Approx polarizability:  95.150  30.076  86.618  -0.000  -0.000  22.720

                      1                      2                      3
                      A                      A                      A
 Frequencies --    111.1034               342.4955               512.9103
 Red. masses --      2.6508                 3.2867                 1.7487
 Frc consts  --      0.0193                 0.2272                 0.2710
 IR Inten    --      0.3562                 5.9753                 9.8326

                      4                      5                      6
                      A                      A                      A
 Frequencies --    556.9283               637.2625               766.5785
 Red. masses --      3.9760                 3.5427                 1.6088
 Frc consts  --      0.7266                 0.8477                 0.5570
 IR Inten    --      0.9053                 5.0467                64.6339

                      7                      8                      9
                      A                      A                      A
 Frequencies --    796.5375               864.1261               952.5373
 Red. masses --      1.8393                 4.5294                 1.1754
 Frc consts  --      0.6876                 1.9927                 0.6283
 IR Inten    --      4.5659                11.0106                 1.4803

                     10                     11                     12
                      A                      A                      A
 Frequencies --    995.2310              1071.2781              1275.0744
 Red. masses --      1.2014                 1.6887                 2.2515
 Frc consts  --      0.7011                 1.1419                 2.1567
 IR Inten    --     54.1914                 3.0568                62.4136

                     13                     14                     15
                      A                      A                      A
 Frequencies --   1320.7333              1400.8276              1457.0960
 Red. masses --      1.2693                 1.1772                 2.8642
 Frc consts  --      1.3045                 1.3611                 3.5829
 IR Inten    --     22.4677                 4.0763               203.8475

                     16                     17                     18
                      A                      A                      A
 Frequencies --   1633.0483              1727.3946              3186.3032
 Red. masses --      4.0592                 4.5797                 1.0574
 Frc consts  --      6.3780                 8.0515                 6.3252
 IR Inten    --     77.8785                 5.6427                 2.0615

                     19                     20                     21
                      A                      A                      A
 Frequencies --   3226.6939              3290.1955              3434.5930
 Red. masses --      1.0988                 1.1183                 1.0736
 Frc consts  --      6.7406                 7.1328                 7.4621
 IR Inten    --      3.5160                 1.1523                 1.6263

 - Thermochemistry -
 -------------------
 Temperature   298.150 Kelvin.  Pressure   1.00000 Atm.
 Atom     1 has atomic number  6 and mass  12.00000

 Molecular mass:    72.03236 amu.
 Principal axes and moments of inertia in atomic units:
                           1         2         3
     Eigenvalues --   157.63594 388.93368 546.56962
           X            0.99974   0.02298   0.00000
           Y           -0.02298   0.99974  -0.00000
           Z           -0.00000   0.00000   1.00000
 This molecule is an asymmetric top.
 Rotational symmetry number  1.
 Rotational temperatures (Kelvin)      0.54945     0.22270     0.15847
 Rotational constants (GHZ):          11.44879     4.64023     3.30194
 Zero-point vibrational energy     176801.8 (Joules/Mol)
                                   42.25664 (Kcal/Mol)
 Warning -- explicit consideration of   4 degrees of freedom as
           vibrations may cause significant error
 Vibrational temperatures:    159.85   492.77   737.96   801.29   916.88
          (Kelvin)           1102.93  1146.04  1243.28  1370.49  1431.91
                             1541.33  1834.55  1900.24  2015.48  2096.43
                             2349.59  2485.33  4584.37  4642.49  4733.85
                             4941.61

 Zero-point correction=                           0.067340 (Hartree/Particle)
 Thermal correction to Energy=                    0.072177
 Thermal correction to Enthalpy=                  0.073121
 Thermal correction to Gibbs Free Energy=         0.039510
 Sum of electronic and zero-point Energies=           -263.156833
 Sum of electronic and thermal Energies=              -263.151996
 Sum of electronic and thermal Enthalpies=            -263.151052
 Sum of electronic and thermal Free Energies=         -263.184663

                     E (Thermal)             CV                S
                      KCal/Mol        Cal/Mol-Kelvin    Cal/Mol-Kelvin
 Total                   45.292             16.399             70.741
 Electronic               0.000              0.000              0.000
 Translational            0.889              2.981             38.740
 Rotational               0.889              2.981             25.019
 Vibrational             43.514             10.437              6.981
 Vibration     1          0.607              1.940              3.250
 Vibration     2          0.722              1.591              1.201
 Vibration     3          0.868              1.221              0.627
 Vibration     4          0.912              1.125              0.530

 Optimization completed.
    -- Stationary point found.
 Normal termination of Gaussian 09 at Thu Sep  8 14:47:31 2022.
