 Gaussian 09, Revision E.01,
 Gaussian 09:  ES64L-G09RevE.01 30-Nov-2015

 ----------------------------
 #P OPT Freq B3LYP/6-31G(d,p)
 ----------------------------

 --------
 Frag_548
 --------
 Symbolic Z-matrix:
 Charge =  0 Multiplicity = 1

 SCF Done:  E(RB3LYP) =  -284.433380126     A.U. after   14 cycles
 SCF Done:  E(RB3LYP) =  -284.433480720     A.U. after   10 cycles
 SCF Done:  E(RB3LYP) =  -284.433470533     A.U. after   10 cycles
 SCF Done:  E(RB3LYP) =  -284.433488971     A.U. after    9 cycles
 SCF Done:  E(RB3LYP) =  -284.433489476     A.U. after    8 cycles
 SCF Done:  E(RB3LYP) =  -284.433489786     A.U. after    8 cycles
 Optimization completed.
    -- Stationary point found.
 Normal termination of Gaussian 09 at Thu Sep  8 14:56:54 2022.

 ----------------------------------------------------------------------
 #P Geom=AllCheck Guess=TCheck SCRF=Check GenChk RB3LYP/6-31G(d,p) Freq
 ----------------------------------------------------------------------

 Structure from the checkpoint file:  "B3LYP6-31Gdp.Frag_548.chk"
 --------
 Frag_548
 --------
 Charge =  0 Multiplicity = 1

                         Standard orientation:
 ---------------------------------------------------------------------
 Center     Atomic      Atomic             Coordinates (Angstroms)
 Number     Number       Type             X           Y           Z
 ---------------------------------------------------------------------
      1          7           0        0.602260    1.273457    0.018174
      2          6           0        0.643941   -0.086742    0.003554
      3          8           0        1.664823   -0.752354   -0.083486
      4          6           0       -0.732171   -0.755241    0.114676
      5          8           0       -1.835075    0.137826   -0.003297
      6          1           0       -0.268422    1.732855    0.238735
      7          1           0        1.472294    1.780431    0.068649
      8          1           0       -0.797452   -1.208689    1.109009
      9          1           0       -0.765884   -1.572233   -0.615904
     10          1           0       -1.964968    0.321563   -0.942825
 ---------------------------------------------------------------------

 SCF Done:  E(RB3LYP) =  -284.433489786     A.U. after    1 cycles

 The electronic state is 1-A.
 Alpha  occ. eigenvalues --  -19.16931 -19.10874 -14.35601 -10.28547 -10.24615
 Alpha  occ. eigenvalues --   -1.04426  -1.02227  -0.90250  -0.72067  -0.59140
 Alpha  occ. eigenvalues --   -0.54543  -0.53084  -0.46510  -0.44271  -0.40812
 Alpha  occ. eigenvalues --   -0.38825  -0.34946  -0.31363  -0.26806  -0.24053
 Alpha virt. eigenvalues --    0.02867   0.05681   0.10111   0.13000   0.14440
 Alpha virt. eigenvalues --    0.17257   0.19280   0.25583   0.31928   0.39133
 Alpha virt. eigenvalues --    0.54273   0.54803   0.55933   0.60991   0.65310

 Mulliken charges:
               1
     1  N   -0.600889
     2  C    0.523964
     3  O   -0.500981
     4  C   -0.026902
     5  O   -0.541358
     6  H    0.278720
     7  H    0.276972
     8  H    0.147964
     9  H    0.127235
    10  H    0.315274
 Sum of Mulliken charges =  -0.00000

 Dipole moment (field-independent basis, Debye):
    X=             -1.9408    Y=              2.1558    Z=             -0.6780  Tot=              2.9789
 Quadrupole moment (field-independent basis, Debye-Ang):
   XX=            -34.5587   YY=            -25.6242   ZZ=            -27.3703
   XY=              4.5553   XZ=              3.4937   YZ=             -0.1302

  Exact polarizability:  36.687  -1.913  39.018   0.292  -0.035  23.753
 Approx polarizability:  52.128  -9.949  57.141  -0.676   0.308  33.435

                      1                      2                      3
                      A                      A                      A
 Frequencies --    107.9140               275.8307               296.9174
 Red. masses --      2.8103                 1.3700                 2.8693
 Frc consts  --      0.0193                 0.0614                 0.1490
 IR Inten    --      3.8208                94.6258                98.1219

                      4                      5                      6
                      A                      A                      A
 Frequencies --    417.9395               488.6553               523.0741
 Red. masses --      1.1116                 6.4125                 2.0507
 Frc consts  --      0.1144                 0.9022                 0.3306
 IR Inten    --    174.9155                 2.3479                46.0489

                      7                      8                      9
                      A                      A                      A
 Frequencies --    576.6549               685.9558               860.6232
 Red. masses --      2.6177                 1.2350                 3.6980
 Frc consts  --      0.5129                 0.3424                 1.6138
 IR Inten    --     11.1042                 2.8233                 5.7623

                     10                     11                     12
                      A                      A                      A
 Frequencies --    981.1285              1078.1157              1098.6906
 Red. masses --      1.7647                 4.5207                 1.9498
 Frc consts  --      1.0009                 3.0959                 1.3868
 IR Inten    --     22.6808                87.1390                 0.7512

                     13                     14                     15
                      A                      A                      A
 Frequencies --   1196.9188              1361.2430              1374.2820
 Red. masses --      1.1302                 1.5554                 2.0768
 Frc consts  --      0.9540                 1.6981                 2.3110
 IR Inten    --     24.9876                31.0360                50.8199

                     16                     17                     18
                      A                      A                      A
 Frequencies --   1393.0244              1488.0816              1601.0967
 Red. masses --      1.2657                 1.0795                 1.3337
 Frc consts  --      1.4470                 1.4085                 2.0144
 IR Inten    --     49.4883                 3.1834               141.6959

                     19                     20                     21
                      A                      A                      A
 Frequencies --   1817.3023              3054.5250              3108.7241
 Red. masses --      9.8118                 1.0614                 1.1042
 Frc consts  --     19.0920                 5.8348                 6.2873
 IR Inten    --    297.9310                22.6504                13.6169

                     22                     23                     24
                      A                      A                      A
 Frequencies --   3593.3557              3736.9288              3820.2794
 Red. masses --      1.0439                 1.1055                 1.0666
 Frc consts  --      7.9417                 9.0960                 9.1718
 IR Inten    --     35.9715                59.9839                26.1600

 - Thermochemistry -
 -------------------
 Temperature   298.150 Kelvin.  Pressure   1.00000 Atm.
 Atom     1 has atomic number  7 and mass  14.00307

 Molecular mass:    75.03203 amu.
 Principal axes and moments of inertia in atomic units:
                           1         2         3
     Eigenvalues --   185.45051 446.47656 611.67512
           X            0.99869   0.04965   0.01227
           Y           -0.04963   0.99877  -0.00206
           Z           -0.01235   0.00145   0.99992
 This molecule is an asymmetric top.
 Rotational symmetry number  1.
 Rotational temperatures (Kelvin)      0.46705     0.19399     0.14160
 Rotational constants (GHZ):           9.73166     4.04219     2.95049
 Zero-point vibrational energy     208971.2 (Joules/Mol)
                                   49.94532 (Kcal/Mol)
 Warning -- explicit consideration of   7 degrees of freedom as
           vibrations may cause significant error
 Vibrational temperatures:    155.26   396.86   427.20   601.32   703.07
          (Kelvin)            752.59   829.68   986.94  1238.24  1411.62
                             1551.17  1580.77  1722.10  1958.52  1977.28
                             2004.25  2141.01  2303.62  2614.69  4394.77
                             4472.76  5170.03  5376.60  5496.52

 Zero-point correction=                           0.079593 (Hartree/Particle)
 Thermal correction to Energy=                    0.085250
 Thermal correction to Enthalpy=                  0.086195
 Thermal correction to Gibbs Free Energy=         0.050980
 Sum of electronic and zero-point Energies=           -284.353897
 Sum of electronic and thermal Energies=              -284.348239
 Sum of electronic and thermal Enthalpies=            -284.347295
 Sum of electronic and thermal Free Energies=         -284.382510

                     E (Thermal)             CV                S
                      KCal/Mol        Cal/Mol-Kelvin    Cal/Mol-Kelvin
 Total                   53.495             19.386             74.115
 Electronic               0.000              0.000              0.000
 Translational            0.889              2.981             38.862
 Rotational               0.889              2.981             25.430
 Vibrational             51.718             13.425              9.823
 Vibration     1          0.606              1.943              3.306
 Vibration     2          0.677              1.718              1.559
 Vibration     3          0.691              1.679              1.434
 Vibration     4          0.781              1.431              0.899
 Vibration     5          0.845              1.275              0.687
 Vibration     6          0.878              1.199              0.603
 Vibration     7          0.933              1.082              0.492

 Normal termination of Gaussian 09 at Thu Sep  8 14:57:02 2022.
