 Gaussian 09, Revision E.01,
 Gaussian 09:  ES64L-G09RevE.01 30-Nov-2015

 ----------------------------
 #P OPT Freq B3LYP/6-31G(d,p)
 ----------------------------

 ---------
 Frag_1034
 ---------
 Symbolic Z-matrix:
 Charge =  0 Multiplicity = 1

 SCF Done:  E(RB3LYP) =  -227.321402569     A.U. after   16 cycles
 SCF Done:  E(RB3LYP) =  -227.321506984     A.U. after   11 cycles
 SCF Done:  E(RB3LYP) =  -227.321518789     A.U. after   10 cycles
 SCF Done:  E(RB3LYP) =  -227.321524697     A.U. after   11 cycles
 SCF Done:  E(RB3LYP) =  -227.321525992     A.U. after    9 cycles
 Optimization completed.
    -- Stationary point found.
 Normal termination of Gaussian 09 at Thu Sep  8 14:47:05 2022.

 ----------------------------------------------------------------------
 #P Geom=AllCheck Guess=TCheck SCRF=Check GenChk RB3LYP/6-31G(d,p) Freq
 ----------------------------------------------------------------------

 Structure from the checkpoint file:  "B3LYP6-31Gdp.Frag_1034.chk"
 ---------
 Frag_1034
 ---------
 Charge =  0 Multiplicity = 1

                         Standard orientation:
 ---------------------------------------------------------------------
 Center     Atomic      Atomic             Coordinates (Angstroms)
 Number     Number       Type             X           Y           Z
 ---------------------------------------------------------------------
      1          6           0       -1.902164   -0.061606   -0.139198
      2          6           0       -0.738839   -0.625819    0.163919
      3          7           0        0.533489    0.064747    0.046103
      4          6           0        1.589860   -0.724074   -0.104606
      5          7           0        0.615180    1.379095    0.033959
      6          1           0       -1.972569    0.950316   -0.521606
      7          1           0       -2.821130   -0.624028   -0.024743
      8          1           0       -0.648647   -1.646942    0.514315
      9          1           0        2.554436   -0.251597   -0.205587
     10          1           0        1.439900   -1.785411   -0.218905
     11          1           0       -0.285816    1.719769    0.375404
 ---------------------------------------------------------------------

 SCF Done:  E(RB3LYP) =  -227.321525992     A.U. after    1 cycles

 The electronic state is 1-A.
 Alpha  occ. eigenvalues --  -14.45653 -14.30404 -10.24912 -10.21388 -10.20420
 Alpha  occ. eigenvalues --   -1.03373  -0.81027  -0.78656  -0.65387  -0.57045
 Alpha  occ. eigenvalues --   -0.53516  -0.49676  -0.45230  -0.43769  -0.41322
 Alpha  occ. eigenvalues --   -0.39954  -0.29196  -0.26507  -0.18431
 Alpha virt. eigenvalues --   -0.04535   0.03245   0.08977   0.10991   0.13832
 Alpha virt. eigenvalues --    0.14370   0.16962   0.19152   0.22874   0.30444
 Alpha virt. eigenvalues --    0.31066   0.36872   0.46580   0.51613   0.55354

 Mulliken charges:
               1
     1  C   -0.253650
     2  C    0.110236
     3  N   -0.127542
     4  C   -0.128201
     5  N   -0.437690
     6  H    0.132567
     7  H    0.125589
     8  H    0.124755
     9  H    0.128230
    10  H    0.109832
    11  H    0.215876
 Sum of Mulliken charges =  -0.00000

 Dipole moment (field-independent basis, Debye):
    X=             -2.3193    Y=             -2.4191    Z=              0.3283  Tot=              3.3674
 Quadrupole moment (field-independent basis, Debye-Ang):
   XX=            -27.4974   YY=            -30.7655   ZZ=            -32.6576
   XY=             -3.4381   XZ=             -0.3321   YZ=              0.0546

  Exact polarizability:  69.137 -11.739  56.826  -0.006  -0.987  20.934
 Approx polarizability: 110.508 -40.401 117.031   1.271  -1.656  30.161

                      1                      2                      3
                      A                      A                      A
 Frequencies --    133.8957               319.4074               431.7786
 Red. masses --      2.1593                 2.5883                 1.4012
 Frc consts  --      0.0228                 0.1556                 0.1539
 IR Inten    --      0.6267                 7.9409                 3.2877

                      4                      5                      6
                      A                      A                      A
 Frequencies --    479.7406               527.4654               605.7467
 Red. masses --      1.5535                 2.6352                 2.3788
 Frc consts  --      0.2107                 0.4320                 0.5143
 IR Inten    --      7.3387                 5.7943                 7.9480

                      7                      8                      9
                      A                      A                      A
 Frequencies --    652.1137               746.8439               771.7144
 Red. masses --      1.2307                 1.3536                 2.0293
 Frc consts  --      0.3083                 0.4448                 0.7120
 IR Inten    --    142.7791                17.8148                 2.8371

                     10                     11                     12
                      A                      A                      A
 Frequencies --    828.7460               944.0121               988.3801
 Red. masses --      2.6943                 1.3769                 1.0666
 Frc consts  --      1.0903                 0.7229                 0.6139
 IR Inten    --      2.3178                24.6748                31.5211

                     13                     14                     15
                      A                      A                      A
 Frequencies --   1075.7110              1092.4351              1296.0939
 Red. masses --      1.6774                 1.9298                 1.8890
 Frc consts  --      1.1436                 1.3569                 1.8696
 IR Inten    --     11.5918                42.5101                26.7485

                     16                     17                     18
                      A                      A                      A
 Frequencies --   1320.0965              1409.2395              1430.1031
 Red. masses --      1.2660                 2.1740                 1.1691
 Frc consts  --      1.2999                 2.5438                 1.4087
 IR Inten    --     20.2207               115.9081                28.7885

                     19                     20                     21
                      A                      A                      A
 Frequencies --   1485.8860              1634.1790              1726.5526
 Red. masses --      1.1817                 3.0215                 4.4463
 Frc consts  --      1.5372                 4.7541                 7.8092
 IR Inten    --      3.5658                51.4656                13.0198

                     22                     23                     24
                      A                      A                      A
 Frequencies --   3184.7736              3217.3222              3230.1532
 Red. masses --      1.0591                 1.0541                 1.0923
 Frc consts  --      6.3290                 6.4285                 6.7149
 IR Inten    --      0.0378                 3.1238                 3.1273

                     25                     26                     27
                      A                      A                      A
 Frequencies --   3277.1834              3347.5315              3462.6097
 Red. masses --      1.1167                 1.1259                 1.0735
 Frc consts  --      7.0662                 7.4334                 7.5833
 IR Inten    --      1.5162                 0.5428                 1.0449

 - Thermochemistry -
 -------------------
 Temperature   298.150 Kelvin.  Pressure   1.00000 Atm.
 Atom     1 has atomic number  6 and mass  12.00000

 Molecular mass:    70.05310 amu.
 Principal axes and moments of inertia in atomic units:
                           1         2         3
     Eigenvalues --   176.31824 400.95536 566.52498
           X            0.99908  -0.04285  -0.00152
           Y            0.04284   0.99907  -0.00498
           Z            0.00173   0.00491   0.99999
 This molecule is an asymmetric top.
 Rotational symmetry number  1.
 Rotational temperatures (Kelvin)      0.49124     0.21602     0.15289
 Rotational constants (GHZ):          10.23570     4.50110     3.18563
 Zero-point vibrational energy     236978.5 (Joules/Mol)
                                   56.63923 (Kcal/Mol)
 Warning -- explicit consideration of   6 degrees of freedom as
           vibrations may cause significant error
 Vibrational temperatures:    192.65   459.56   621.23   690.24   758.90
          (Kelvin)            871.53   938.24  1074.54  1110.32  1192.38
                             1358.22  1422.06  1547.71  1571.77  1864.79
                             1899.32  2027.58  2057.60  2137.86  2351.22
                             2484.12  4582.17  4629.00  4647.46  4715.13
                             4816.35  4981.92

 Zero-point correction=                           0.090260 (Hartree/Particle)
 Thermal correction to Energy=                    0.095611
 Thermal correction to Enthalpy=                  0.096555
 Thermal correction to Gibbs Free Energy=         0.062274
 Sum of electronic and zero-point Energies=           -227.231266
 Sum of electronic and thermal Energies=              -227.225915
 Sum of electronic and thermal Enthalpies=            -227.224971
 Sum of electronic and thermal Free Energies=         -227.259252

                     E (Thermal)             CV                S
                      KCal/Mol        Cal/Mol-Kelvin    Cal/Mol-Kelvin
 Total                   59.997             19.457             72.151
 Electronic               0.000              0.000              0.000
 Translational            0.889              2.981             38.657
 Rotational               0.889              2.981             25.197
 Vibrational             58.219             13.496              8.297
 Vibration     1          0.613              1.919              2.889
 Vibration     2          0.705              1.636              1.313
 Vibration     3          0.793              1.401              0.853
 Vibration     4          0.836              1.295              0.711
 Vibration     5          0.882              1.189              0.593
 Vibration     6          0.964              1.020              0.440

 Normal termination of Gaussian 09 at Thu Sep  8 14:47:14 2022.
