 Gaussian 09, Revision E.01,
 Gaussian 09:  ES64L-G09RevE.01 30-Nov-2015

 ----------------------------
 #P OPT Freq B3LYP/6-31G(d,p)
 ----------------------------

 --------
 Frag_550
 --------
 Symbolic Z-matrix:
 Charge =  0 Multiplicity = 1

 SCF Done:  E(RB3LYP) =  -267.935624861     A.U. after   14 cycles
 SCF Done:  E(RB3LYP) =  -267.935664465     A.U. after   10 cycles
 SCF Done:  E(RB3LYP) =  -267.935666059     A.U. after    8 cycles
 SCF Done:  E(RB3LYP) =  -267.935666422     A.U. after    8 cycles
 Optimization completed.
    -- Stationary point found.
 Normal termination of Gaussian 09 at Thu Sep  8 15:21:07 2022.

 ----------------------------------------------------------------------
 #P Geom=AllCheck Guess=TCheck SCRF=Check GenChk RB3LYP/6-31G(d,p) Freq
 ----------------------------------------------------------------------

 Structure from the checkpoint file:  "B3LYP6-31Gdp.Frag_550.chk"
 --------
 Frag_550
 --------
 Charge =  0 Multiplicity = 1

                         Standard orientation:
 ---------------------------------------------------------------------
 Center     Atomic      Atomic             Coordinates (Angstroms)
 Number     Number       Type             X           Y           Z
 ---------------------------------------------------------------------
      1          6           0        0.996879    1.399881   -0.539340
      2          6           0        0.747455    0.216195    0.028281
      3          6           0        1.840798   -0.767231    0.362944
      4          6           0       -0.672491   -0.254271    0.348488
      5          7           0       -1.610172    0.861261    0.357437
      6          7           0       -1.208984   -1.226865   -0.615455
      7          1           0        2.009543    1.704007   -0.790544
      8          1           0        0.191739    2.086699   -0.776058
      9          1           0        1.869600   -0.978199    1.440003
     10          1           0        1.680415   -1.730929   -0.138198
     11          1           0        2.823558   -0.395478    0.062543
     12          1           0       -0.627981   -0.795646    1.313016
     13          1           0       -2.539180    0.493846    0.544248
     14          1           0       -1.372221    1.518021    1.095718
     15          1           0       -0.657499   -2.081054   -0.597478
     16          1           0       -1.119729   -0.829486   -1.549365
 ---------------------------------------------------------------------

 SCF Done:  E(RB3LYP) =  -267.935666422     A.U. after    1 cycles

 The electronic state is 1-A.
 Alpha  occ. eigenvalues --  -14.31159 -14.30746 -10.23718 -10.18607 -10.18237
 Alpha  occ. eigenvalues --  -10.16577  -0.91392  -0.83108  -0.78197  -0.68075
 Alpha  occ. eigenvalues --   -0.63365  -0.52639  -0.50437  -0.48490  -0.43800
 Alpha  occ. eigenvalues --   -0.42663  -0.41612  -0.39653  -0.38210  -0.36615
 Alpha  occ. eigenvalues --   -0.34393  -0.25700  -0.23538  -0.22915
 Alpha virt. eigenvalues --    0.02531   0.07619   0.10851   0.12522   0.14026
 Alpha virt. eigenvalues --    0.15716   0.16140   0.16824   0.18437   0.20100
 Alpha virt. eigenvalues --    0.21705   0.24637   0.26489   0.27845   0.32808

 Mulliken charges:
               1
     1  C   -0.281574
     2  C    0.140555
     3  C   -0.368070
     4  C    0.132312
     5  N   -0.597961
     6  N   -0.582098
     7  H    0.082026
     8  H    0.113510
     9  H    0.113516
    10  H    0.101480
    11  H    0.111900
    12  H    0.071392
    13  H    0.247326
    14  H    0.237502
    15  H    0.234717
    16  H    0.243465
 Sum of Mulliken charges =  -0.00000

 Dipole moment (field-independent basis, Debye):
    X=              0.9055    Y=             -0.5745    Z=              0.8725  Tot=              1.3825
 Quadrupole moment (field-independent basis, Debye-Ang):
   XX=            -39.0565   YY=            -37.3535   ZZ=            -36.3005
   XY=             -2.0253   XZ=             -2.3819   YZ=              1.6957

  Exact polarizability:  59.943   1.304  65.354  -1.136  -5.780  45.472
 Approx polarizability:  76.095   4.591  98.415  -1.300 -12.374  66.064

                      1                      2                      3
                      A                      A                      A
 Frequencies --     76.9267               181.1427               245.0013
 Red. masses --      2.8088                 1.0513                 2.2777
 Frc consts  --      0.0098                 0.0203                 0.0806
 IR Inten    --      0.1269                 0.4952                 8.1859

                      4                      5                      6
                      A                      A                      A
 Frequencies --    274.0222               312.2276               330.2593
 Red. masses --      1.3412                 2.0826                 1.3471
 Frc consts  --      0.0593                 0.1196                 0.0866
 IR Inten    --     34.1137                10.5604                25.3819

                      7                      8                      9
                      A                      A                      A
 Frequencies --    393.1427               479.6787               527.5129
 Red. masses --      2.0937                 2.3483                 2.9102
 Frc consts  --      0.1907                 0.3184                 0.4771
 IR Inten    --      7.3142                 3.3131                19.6304

                     10                     11                     12
                      A                      A                      A
 Frequencies --    591.1050               745.3648               797.8457
 Red. masses --      2.4710                 1.3400                 1.5878
 Frc consts  --      0.5087                 0.4386                 0.5955
 IR Inten    --      6.0753                 1.3002                46.7957

                     13                     14                     15
                      A                      A                      A
 Frequencies --    898.3217               907.2006               945.1672
 Red. masses --      1.4966                 1.5760                 1.9825
 Frc consts  --      0.7116                 0.7642                 1.0435
 IR Inten    --    112.8137               204.2213                18.1021

                     16                     17                     18
                      A                      A                      A
 Frequencies --    951.8635               986.0089              1025.4170
 Red. masses --      1.4316                 1.9431                 1.4087
 Frc consts  --      0.7642                 1.1130                 0.8727
 IR Inten    --     26.2450                 1.5250                 0.1830

                     19                     20                     21
                      A                      A                      A
 Frequencies --   1071.2870              1141.6707              1188.9245
 Red. masses --      1.4507                 2.1949                 1.3073
 Frc consts  --      0.9809                 1.6856                 1.0887
 IR Inten    --      0.3452                42.6185                 2.4447

                     22                     23                     24
                      A                      A                      A
 Frequencies --   1267.3102              1298.7245              1410.6268
 Red. masses --      2.2017                 1.4128                 1.5612
 Frc consts  --      2.0834                 1.4040                 1.8304
 IR Inten    --      4.4987                 5.9562                23.9266

                     25                     26                     27
                      A                      A                      A
 Frequencies --   1412.8579              1428.9100              1445.4399
 Red. masses --      1.2591                 1.2989                 1.2152
 Frc consts  --      1.4809                 1.5625                 1.4959
 IR Inten    --      9.9868                 5.4070                 5.9418

                     28                     29                     30
                      A                      A                      A
 Frequencies --   1494.5083              1505.4401              1638.9640
 Red. masses --      1.0475                 1.0540                 1.1090
 Frc consts  --      1.3784                 1.4075                 1.7551
 IR Inten    --      8.3273                10.8342                44.8884

                     31                     32                     33
                      A                      A                      A
 Frequencies --   1650.9272              1729.3017              2919.5682
 Red. masses --      1.1024                 5.1934                 1.0820
 Frc consts  --      1.7703                 9.1504                 5.4338
 IR Inten    --     25.6856                 7.1336                88.6133

                     34                     35                     36
                      A                      A                      A
 Frequencies --   3023.7447              3070.3551              3127.6264
 Red. masses --      1.0393                 1.0992                 1.0989
 Frc consts  --      5.5987                 6.1055                 6.3336
 IR Inten    --     32.1612                28.5236                19.7622

                     37                     38                     39
                      A                      A                      A
 Frequencies --   3155.3322              3249.8030              3484.5384
 Red. masses --      1.0611                 1.1142                 1.0496
 Frc consts  --      6.2246                 6.9334                 7.5084
 IR Inten    --     13.8174                 7.1061                 0.3967

                     40                     41                     42
                      A                      A                      A
 Frequencies --   3503.3547              3581.1439              3599.3335
 Red. masses --      1.0490                 1.0923                 1.0938
 Frc consts  --      7.5856                 8.2533                 8.3493
 IR Inten    --      0.4084                 0.3616                 0.6912

 - Thermochemistry -
 -------------------
 Temperature   298.150 Kelvin.  Pressure   1.00000 Atm.
 Atom     1 has atomic number  6 and mass  12.00000

 Molecular mass:    86.08440 amu.
 Principal axes and moments of inertia in atomic units:
                           1         2         3
     Eigenvalues --   378.49741 619.67792 833.97893
           X            0.99925  -0.03829  -0.00495
           Y            0.03823   0.99919  -0.01225
           Z            0.00542   0.01205   0.99991
 This molecule is an asymmetric top.
 Rotational symmetry number  1.
 Rotational temperatures (Kelvin)      0.22884     0.13977     0.10386
 Rotational constants (GHZ):           4.76817     2.91239     2.16401
 Zero-point vibrational energy     377229.8 (Joules/Mol)
                                   90.16009 (Kcal/Mol)
 Warning -- explicit consideration of  10 degrees of freedom as
           vibrations may cause significant error
 Vibrational temperatures:    110.68   260.62   352.50   394.26   449.23
          (Kelvin)            475.17   565.64   690.15   758.97   850.47
                             1072.41  1147.92  1292.48  1305.26  1359.88
                             1369.52  1418.65  1475.34  1541.34  1642.61
                             1710.60  1823.37  1868.57  2029.57  2032.78
                             2055.88  2079.66  2150.26  2165.99  2358.10
                             2375.31  2488.08  4200.60  4350.49  4417.55
                             4499.95  4539.81  4675.74  5013.47  5040.54
                             5152.46  5178.63

 Zero-point correction=                           0.143679 (Hartree/Particle)
 Thermal correction to Energy=                    0.151122
 Thermal correction to Enthalpy=                  0.152066
 Thermal correction to Gibbs Free Energy=         0.112859
 Sum of electronic and zero-point Energies=           -267.791987
 Sum of electronic and thermal Energies=              -267.784545
 Sum of electronic and thermal Enthalpies=            -267.783600
 Sum of electronic and thermal Free Energies=         -267.822807

                     E (Thermal)             CV                S
                      KCal/Mol        Cal/Mol-Kelvin    Cal/Mol-Kelvin
 Total                   94.830             27.319             82.517
 Electronic               0.000              0.000              0.000
 Translational            0.889              2.981             39.271
 Rotational               0.889              2.981             26.772
 Vibrational             93.053             21.357             16.474
 Vibration     1          0.599              1.965              3.968
 Vibration     2          0.630              1.865              2.317
 Vibration     3          0.660              1.771              1.766
 Vibration     4          0.676              1.721              1.571
 Vibration     5          0.701              1.650              1.351
 Vibration     6          0.713              1.615              1.259
 Vibration     7          0.760              1.485              0.988
 Vibration     8          0.836              1.295              0.711
 Vibration     9          0.882              1.189              0.593
 Vibration    10          0.949              1.051              0.465

 Normal termination of Gaussian 09 at Thu Sep  8 15:21:20 2022.
