 Gaussian 09, Revision E.01,
 Gaussian 09:  ES64L-G09RevE.01 30-Nov-2015

 --------------------------------
 #P OPT=calcfc Freq B3LYP/6-31G**
 --------------------------------

 --------
 Frag_133
 --------
 Symbolic Z-matrix:
 Charge =  0 Multiplicity = 1

 SCF Done:  E(RB3LYP) =  -354.459651993     A.U. after   17 cycles
 SCF Done:  E(RB3LYP) =  -354.495558032     A.U. after   15 cycles
 SCF Done:  E(RB3LYP) =  -354.503407962     A.U. after   16 cycles
 SCF Done:  E(RB3LYP) =  -354.498794431     A.U. after   14 cycles
 SCF Done:  E(RB3LYP) =  -354.503491926     A.U. after   13 cycles
 SCF Done:  E(RB3LYP) =  -354.504370411     A.U. after   13 cycles
 SCF Done:  E(RB3LYP) =  -354.504442884     A.U. after   14 cycles
 SCF Done:  E(RB3LYP) =  -354.504523141     A.U. after   11 cycles
 SCF Done:  E(RB3LYP) =  -354.504581795     A.U. after   14 cycles
 SCF Done:  E(RB3LYP) =  -354.504604702     A.U. after   13 cycles
 SCF Done:  E(RB3LYP) =  -354.504597426     A.U. after   14 cycles
 SCF Done:  E(RB3LYP) =  -354.504598043     A.U. after   13 cycles
 SCF Done:  E(RB3LYP) =  -354.504609547     A.U. after   12 cycles
 SCF Done:  E(RB3LYP) =  -354.504612550     A.U. after   10 cycles
 SCF Done:  E(RB3LYP) =  -354.504612607     A.U. after    9 cycles
 Optimization completed.
    -- Stationary point found.
 Normal termination of Gaussian 09 at Sat Aug 21 02:19:08 2021.

 ----------------------------------------------------------------------
 #P Geom=AllCheck Guess=TCheck SCRF=Check GenChk RB3LYP/6-31G(d,p) Freq
 ----------------------------------------------------------------------

 Structure from the checkpoint file:  "/public/home/users/caep010/.cache/gau_scr/Gau-41350.chk"
 --------
 Frag_133
 --------
 Charge =  0 Multiplicity = 1

                         Standard orientation:
 ---------------------------------------------------------------------
 Center     Atomic      Atomic             Coordinates (Angstroms)
 Number     Number       Type             X           Y           Z
 ---------------------------------------------------------------------
      1          7           0       -1.173072   -1.330084    0.072072
      2          6           0       -0.739125   -0.147052    0.001530
      3          7           0       -1.317233    1.076636   -0.109858
      4          7           0        0.793505   -0.005443   -0.000177
      5          8           0        1.456632   -1.018676   -0.078077
      6          8           0        1.233460    1.144930    0.087696
      7          1           0       -2.193512   -1.360510    0.065506
      8          1           0       -0.714729    1.877073    0.023479
      9          1           0       -2.300140    1.167950    0.090618
 ---------------------------------------------------------------------

 SCF Done:  E(RB3LYP) =  -354.504612607     A.U. after    1 cycles

 The electronic state is 1-A.
 Alpha  occ. eigenvalues --  -19.19802 -19.19691 -14.58050 -14.38771 -14.33830
 Alpha  occ. eigenvalues --  -10.32620  -1.23926  -1.07004  -0.98809  -0.89545
 Alpha  occ. eigenvalues --   -0.75024  -0.59941  -0.58320  -0.55807  -0.54243
 Alpha  occ. eigenvalues --   -0.51394  -0.50177  -0.40700  -0.33431  -0.32402
 Alpha  occ. eigenvalues --   -0.30857  -0.29231  -0.27778
 Alpha virt. eigenvalues --   -0.09087   0.03473   0.05112   0.09473   0.11896
 Alpha virt. eigenvalues --    0.16982   0.26188   0.27331   0.32919   0.47060
 Alpha virt. eigenvalues --    0.50883   0.52470   0.55438   0.57766   0.61880

 Mulliken charges:
               1
     1  N   -0.512044
     2  C    0.598366
     3  N   -0.627941
     4  N    0.447923
     5  O   -0.332430
     6  O   -0.400702
     7  H    0.237187
     8  H    0.308121
     9  H    0.281520
 Sum of Mulliken charges =  -0.00000

 Dipole moment (field-independent basis, Debye):
    X=             -4.4035    Y=              2.5693    Z=              0.3953  Tot=              5.1135
 Quadrupole moment (field-independent basis, Debye-Ang):
   XX=            -28.8242   YY=            -35.9121   ZZ=            -33.5746
   XY=             -2.0721   XZ=             -0.9438   YZ=              0.6190

  Exact polarizability:  42.856   1.661  52.003  -0.459  -0.154  16.779
 Approx polarizability:  57.641   2.140 111.313  -0.864   0.205  24.829

                      1                      2                      3
                      A                      A                      A
 Frequencies --     64.4094               329.4737               353.2362
 Red. masses --     10.1229                 1.2963                 4.1196
 Frc consts  --      0.0247                 0.0829                 0.3029
 IR Inten    --      0.6376               154.0961                24.7501

                      4                      5                      6
                      A                      A                      A
 Frequencies --    446.1117               473.5277               485.3403
 Red. masses --      3.2290                 4.9872                 1.2736
 Frc consts  --      0.3786                 0.6589                 0.1768
 IR Inten    --      4.1043                17.9320                88.0691

                      7                      8                      9
                      A                      A                      A
 Frequencies --    551.7927               611.0799               758.5029
 Red. masses --      3.5238                 3.5388                 6.1056
 Frc consts  --      0.6321                 0.7786                 2.0696
 IR Inten    --     15.2904                39.0206                 5.0608

                     10                     11                     12
                      A                      A                      A
 Frequencies --    857.2527               863.2533              1068.3420
 Red. masses --      1.4668                 9.0795                 1.2004
 Frc consts  --      0.6351                 3.9865                 0.8072
 IR Inten    --     72.8488                27.4114                78.1388

                     13                     14                     15
                      A                      A                      A
 Frequencies --   1097.7884              1352.0897              1401.4863
 Red. masses --      2.7021                 2.3513                10.1795
 Frc consts  --      1.9186                 2.5326                11.7802
 IR Inten    --      2.8609                77.9462               101.9731

                     16                     17                     18
                      A                      A                      A
 Frequencies --   1589.6748              1696.3132              1807.4046
 Red. masses --      1.2890                 8.3214                 8.9022
 Frc consts  --      1.9193                14.1078                17.1339
 IR Inten    --    201.4090               181.3369               231.2560

                     19                     20                     21
                      A                      A                      A
 Frequencies --   3508.3844              3588.4832              3726.6565
 Red. masses --      1.0762                 1.0463                 1.1028
 Frc consts  --      7.8047                 7.9382                 9.0241
 IR Inten    --      5.3902                68.1888                71.5856

 - Thermochemistry -
 -------------------
 Temperature   298.150 Kelvin.  Pressure   1.00000 Atm.
 Atom     1 has atomic number  7 and mass  14.00307

 Molecular mass:    89.02253 amu.
 Principal axes and moments of inertia in atomic units:
                           1         2         3
     Eigenvalues --   307.22946 457.50889 761.35363
           X            0.99963  -0.02693  -0.00297
           Y            0.02693   0.99964   0.00081
           Z            0.00295  -0.00089   1.00000
 This molecule is an asymmetric top.
 Rotational symmetry number  1.
 Rotational temperatures (Kelvin)      0.28192     0.18932     0.11376
 Rotational constants (GHZ):           5.87425     3.94471     2.37044
 Zero-point vibrational energy     159286.4 (Joules/Mol)
                                   38.07036 (Kcal/Mol)
 Warning -- explicit consideration of   8 degrees of freedom as
           vibrations may cause significant error
 Vibrational temperatures:     92.67   474.04   508.23   641.85   681.30
          (Kelvin)            698.30   793.91   879.21  1091.32  1233.39
                             1242.03  1537.10  1579.47  1945.35  2016.42
                             2287.18  2440.61  2600.45  5047.78  5163.02
                             5361.82

 Zero-point correction=                           0.060669 (Hartree/Particle)
 Thermal correction to Energy=                    0.066431
 Thermal correction to Enthalpy=                  0.067376
 Thermal correction to Gibbs Free Energy=         0.031152
 Sum of electronic and zero-point Energies=           -354.443944
 Sum of electronic and thermal Energies=              -354.438181
 Sum of electronic and thermal Enthalpies=            -354.437237
 Sum of electronic and thermal Free Energies=         -354.473461

                     E (Thermal)             CV                S
                      KCal/Mol        Cal/Mol-Kelvin    Cal/Mol-Kelvin
 Total                   41.686             19.994             76.240
 Electronic               0.000              0.000              0.000
 Translational            0.889              2.981             39.371
 Rotational               0.889              2.981             26.173
 Vibrational             39.909             14.032             10.695
 Vibration     1          0.597              1.971              4.317
 Vibration     2          0.712              1.617              1.263
 Vibration     3          0.729              1.569              1.152
 Vibration     4          0.805              1.369              0.808
 Vibration     5          0.830              1.309              0.728
 Vibration     6          0.841              1.283              0.696
 Vibration     7          0.907              1.136              0.540
 Vibration     8          0.970              1.008              0.431

 Optimization completed.
    -- Stationary point found.
 Normal termination of Gaussian 09 at Sat Aug 21 02:19:16 2021.
