 Gaussian 09, Revision E.01,
 Gaussian 09:  ES64L-G09RevE.01 30-Nov-2015

 -------------------------
 #P OPT Freq B3LYP/6-31G**
 -------------------------

 --------
 Frag_125
 --------
 Symbolic Z-matrix:
 Charge =  0 Multiplicity = 1

 SCF Done:  E(RB3LYP) =  -226.216714521     A.U. after   14 cycles
 SCF Done:  E(RB3LYP) =  -226.222245789     A.U. after   13 cycles
 SCF Done:  E(RB3LYP) =  -226.223037696     A.U. after   11 cycles
 SCF Done:  E(RB3LYP) =  -226.223096499     A.U. after   10 cycles
 SCF Done:  E(RB3LYP) =  -226.223097820     A.U. after    8 cycles
 Optimization completed.
    -- Stationary point found.
 Normal termination of Gaussian 09 at Sat Aug 21 01:39:48 2021.

 ----------------------------------------------------------------------
 #P Geom=AllCheck Guess=TCheck SCRF=Check GenChk RB3LYP/6-31G(d,p) Freq
 ----------------------------------------------------------------------

 Structure from the checkpoint file:  "/public/home/users/caep010/.cache/gau_scr/Gau-196829.chk"
 --------
 Frag_125
 --------
 Charge =  0 Multiplicity = 1

                         Standard orientation:
 ---------------------------------------------------------------------
 Center     Atomic      Atomic             Coordinates (Angstroms)
 Number     Number       Type             X           Y           Z
 ---------------------------------------------------------------------
      1          6           0        1.138227   -0.274022    0.000001
      2          6           0        0.604328    0.990059    0.000016
      3          7           0       -0.762902    0.801036   -0.000022
      4          6           0       -0.983473   -0.548270    0.000024
      5          7           0        0.142742   -1.226967   -0.000016
      6          1           0        2.182756   -0.552221   -0.000005
      7          1           0        1.048649    1.973103    0.000017
      8          1           0       -1.465578    1.524070   -0.000019
      9          1           0       -1.979200   -0.970037    0.000031
 ---------------------------------------------------------------------

 SCF Done:  E(RB3LYP) =  -226.223097820     A.U. after    1 cycles

 The electronic state is 1-A.
 Alpha  occ. eigenvalues --  -14.39186 -14.30719 -10.23588 -10.21264 -10.19315
 Alpha  occ. eigenvalues --   -1.00835  -0.86494  -0.73798  -0.61202  -0.58489
 Alpha  occ. eigenvalues --   -0.55794  -0.43598  -0.43377  -0.42469  -0.40141
 Alpha  occ. eigenvalues --   -0.27705  -0.26256  -0.22556
 Alpha virt. eigenvalues --    0.03196   0.07311   0.07430   0.13418   0.15107
 Alpha virt. eigenvalues --    0.17090   0.22128   0.24010   0.30800   0.34887
 Alpha virt. eigenvalues --    0.45645   0.51780   0.54080   0.55706   0.58724

 Mulliken charges:
               1
     1  C    0.023157
     2  C    0.063044
     3  N   -0.484348
     4  C    0.259930
     5  N   -0.438647
     6  H    0.090724
     7  H    0.107966
     8  H    0.266700
     9  H    0.111474
 Sum of Mulliken charges =   0.00000

 Dipole moment (field-independent basis, Debye):
    X=             -1.6300    Y=              3.3253    Z=              0.0000  Tot=              3.7033
 Quadrupole moment (field-independent basis, Debye-Ang):
   XX=            -22.6077   YY=            -28.7864   ZZ=            -31.0343
   XY=             -0.6841   XZ=             -0.0000   YZ=             -0.0001

  Exact polarizability:  48.577   0.829  45.715  -0.000   0.000  17.731
 Approx polarizability:  75.903  -1.588  79.184  -0.000   0.000  26.475

                      1                      2                      3
                      A                      A                      A
 Frequencies --    515.3425               644.9264               682.8936
 Red. masses --      1.5439                 2.3743                 3.0180
 Frc consts  --      0.2416                 0.5819                 0.8292
 IR Inten    --     95.3658                13.5438                 2.8282

                      4                      5                      6
                      A                      A                      A
 Frequencies --    724.9785               806.2847               862.7931
 Red. masses --      1.2201                 1.3327                 1.3129
 Frc consts  --      0.3778                 0.5105                 0.5758
 IR Inten    --     22.9993                29.2747                 4.5101

                      7                      8                      9
                      A                      A                      A
 Frequencies --    904.0120               942.5088              1081.2130
 Red. masses --      5.3779                 4.6089                 1.5885
 Frc consts  --      2.5895                 2.4123                 1.0941
 IR Inten    --      8.4432                 1.5750                34.1269

                     10                     11                     12
                      A                      A                      A
 Frequencies --   1102.0659              1153.8037              1171.7386
 Red. masses --      1.5207                 1.3493                 6.7171
 Frc consts  --      1.0882                 1.0584                 5.4337
 IR Inten    --     18.0301                 2.7363                 5.1179

                     13                     14                     15
                      A                      A                      A
 Frequencies --   1290.8691              1381.2118              1447.4381
 Red. masses --      1.3706                 3.3485                 3.0276
 Frc consts  --      1.3456                 3.7637                 3.7372
 IR Inten    --      0.5056                 8.0749                15.7095

                     16                     17                     18
                      A                      A                      A
 Frequencies --   1517.8383              1573.1931              3257.2405
 Red. masses --      3.1972                 3.3192                 1.0921
 Frc consts  --      4.3398                 4.8400                 6.8266
 IR Inten    --     18.8625                12.6954                 7.8828

                     19                     20                     21
                      A                      A                      A
 Frequencies --   3261.3363              3291.4690              3669.6499
 Red. masses --      1.0964                 1.1036                 1.0816
 Frc consts  --      6.8711                 7.0444                 8.5812
 IR Inten    --      1.0794                 2.0659                48.1791

 - Thermochemistry -
 -------------------
 Temperature   298.150 Kelvin.  Pressure   1.00000 Atm.
 Atom     1 has atomic number  6 and mass  12.00000

 Molecular mass:    68.03745 amu.
 Principal axes and moments of inertia in atomic units:
                           1         2         3
     Eigenvalues --   185.13508 192.66171 377.79679
           X           -0.26686   0.96374  -0.00000
           Y            0.96374   0.26686  -0.00000
           Z            0.00000   0.00000   1.00000
 This molecule is an asymmetric top.
 Rotational symmetry number  1.
 Rotational temperatures (Kelvin)      0.46784     0.44956     0.22926
 Rotational constants (GHZ):           9.74824     9.36741     4.77702
 Zero-point vibrational energy     187112.7 (Joules/Mol)
                                   44.72102 (Kcal/Mol)
 Warning -- explicit consideration of   1 degrees of freedom as
           vibrations may cause significant error
 Vibrational temperatures:    741.46   927.90   982.53  1043.08  1160.06
          (Kelvin)           1241.37  1300.67  1356.06  1555.62  1585.63
                             1660.06  1685.87  1857.27  1987.25  2082.54
                             2183.83  2263.47  4686.44  4692.33  4735.68
                             5279.80

 Zero-point correction=                           0.071267 (Hartree/Particle)
 Thermal correction to Energy=                    0.075035
 Thermal correction to Enthalpy=                  0.075979
 Thermal correction to Gibbs Free Energy=         0.044993
 Sum of electronic and zero-point Energies=           -226.151830
 Sum of electronic and thermal Energies=              -226.148063
 Sum of electronic and thermal Enthalpies=            -226.147119
 Sum of electronic and thermal Free Energies=         -226.178105

                     E (Thermal)             CV                S
                      KCal/Mol        Cal/Mol-Kelvin    Cal/Mol-Kelvin
 Total                   47.085             13.412             65.216
 Electronic               0.000              0.000              0.000
 Translational            0.889              2.981             38.570
 Rotational               0.889              2.981             24.114
 Vibrational             45.308              7.451              2.531
 Vibration     1          0.870              1.216              0.621

 Optimization completed.
    -- Stationary point found.
 Normal termination of Gaussian 09 at Sat Aug 21 01:39:55 2021.
