 Gaussian 09, Revision E.01,
 Gaussian 09:  ES64L-G09RevE.01 30-Nov-2015

 ----------------------------
 #P OPT Freq B3LYP/6-31G(d,p)
 ----------------------------

 --------
 Frag_705
 --------
 Symbolic Z-matrix:
 Charge =  0 Multiplicity = 1

 SCF Done:  E(RB3LYP) =  -285.143332639     A.U. after   14 cycles
 SCF Done:  E(RB3LYP) =  -285.143370008     A.U. after   10 cycles
 SCF Done:  E(RB3LYP) =  -285.143375082     A.U. after    8 cycles
 SCF Done:  E(RB3LYP) =  -285.143375584     A.U. after    7 cycles
 SCF Done:  E(RB3LYP) =  -285.143375775     A.U. after    6 cycles
 Optimization completed.
    -- Stationary point found.
 Normal termination of Gaussian 09 at Thu Sep  8 15:23:57 2022.

 ----------------------------------------------------------------------
 #P Geom=AllCheck Guess=TCheck SCRF=Check GenChk RB3LYP/6-31G(d,p) Freq
 ----------------------------------------------------------------------

 Structure from the checkpoint file:  "B3LYP6-31Gdp.Frag_705.chk"
 --------
 Frag_705
 --------
 Charge =  0 Multiplicity = 1

                         Standard orientation:
 ---------------------------------------------------------------------
 Center     Atomic      Atomic             Coordinates (Angstroms)
 Number     Number       Type             X           Y           Z
 ---------------------------------------------------------------------
      1          6           0       -0.904892    1.281176    0.714606
      2          6           0       -0.660310    0.254618   -0.402068
      3          6           0       -1.740935   -0.825587   -0.441902
      4          7           0        0.668660   -0.409963   -0.356949
      5          7           0        0.855547   -1.011955    0.918760
      6          7           0        1.713368    0.628862   -0.518560
      7          1           0       -0.987960    0.783925    1.686054
      8          1           0       -1.841211    1.818840    0.534171
      9          1           0       -0.092538    2.011103    0.765847
     10          1           0       -0.670937    0.781274   -1.367228
     11          1           0       -1.569942   -1.510708   -1.276986
     12          1           0       -1.728123   -1.404993    0.484641
     13          1           0       -2.730349   -0.371356   -0.558202
     14          1           0        1.563448   -1.733907    0.808258
     15          1           0        1.233738   -0.313115    1.566146
     16          1           0        2.540328    0.095953   -0.798008
     17          1           0        1.457344    1.133139   -1.371266
 ---------------------------------------------------------------------

 SCF Done:  E(RB3LYP) =  -285.143375775     A.U. after    1 cycles

 The electronic state is 1-A.
 Alpha  occ. eigenvalues --  -14.36650 -14.33957 -14.33426 -10.20782 -10.16349
 Alpha  occ. eigenvalues --  -10.16110  -0.98979  -0.84667  -0.79038  -0.68679
 Alpha  occ. eigenvalues --   -0.67302  -0.56542  -0.49739  -0.48482  -0.47739
 Alpha  occ. eigenvalues --   -0.42828  -0.42009  -0.39879  -0.37166  -0.35896
 Alpha  occ. eigenvalues --   -0.33304  -0.33122  -0.30609  -0.25216  -0.19735
 Alpha virt. eigenvalues --    0.07006   0.10702   0.11461   0.14104   0.15009
 Alpha virt. eigenvalues --    0.15447   0.16563   0.17717   0.18916   0.20032
 Alpha virt. eigenvalues --    0.20198   0.20607   0.22776   0.25295   0.26428

 Mulliken charges:
               1
     1  C   -0.328490
     2  C    0.097190
     3  C   -0.305123
     4  N   -0.261673
     5  N   -0.434527
     6  N   -0.459897
     7  H    0.113679
     8  H    0.097518
     9  H    0.116196
    10  H    0.078116
    11  H    0.103862
    12  H    0.127088
    13  H    0.091079
    14  H    0.249966
    15  H    0.233048
    16  H    0.241397
    17  H    0.240571
 Sum of Mulliken charges =  -0.00000

 Dipole moment (field-independent basis, Debye):
    X=              1.1184    Y=              0.3652    Z=             -0.7498  Tot=              1.3951
 Quadrupole moment (field-independent basis, Debye-Ang):
   XX=            -34.8625   YY=            -39.9606   ZZ=            -37.3589
   XY=             -2.9021   XZ=             -0.4129   YZ=             -1.8431

  Exact polarizability:  61.652  -1.283  53.797  -0.170  -3.090  52.635
 Approx polarizability:  78.052  -1.742  74.019  -0.359  -6.615  75.433

                      1                      2                      3
                      A                      A                      A
 Frequencies --    107.8184               158.5666               215.5759
 Red. masses --      2.2041                 1.2406                 1.0567
 Frc consts  --      0.0151                 0.0184                 0.0289
 IR Inten    --      5.7248                35.3800                 0.7054

                      4                      5                      6
                      A                      A                      A
 Frequencies --    238.5444               280.4018               303.6392
 Red. masses --      1.0583                 2.4553                 2.9987
 Frc consts  --      0.0355                 0.1137                 0.1629
 IR Inten    --      2.6669                 3.5131                 1.6738

                      7                      8                      9
                      A                      A                      A
 Frequencies --    352.6220               388.0291               465.9891
 Red. masses --      2.2263                 1.1603                 2.6894
 Frc consts  --      0.1631                 0.1029                 0.3441
 IR Inten    --      4.2476                40.0354                12.5707

                     10                     11                     12
                      A                      A                      A
 Frequencies --    526.4718               589.6412               752.7309
 Red. masses --      3.2041                 2.4319                 3.4966
 Frc consts  --      0.5232                 0.4982                 1.1673
 IR Inten    --     29.3424                 3.0109                 5.3096

                     13                     14                     15
                      A                      A                      A
 Frequencies --    864.5205               915.0228               935.2449
 Red. masses --      2.8443                 2.0324                 1.2579
 Frc consts  --      1.2525                 1.0026                 0.6483
 IR Inten    --     18.4320                63.5768                 8.2509

                     16                     17                     18
                      A                      A                      A
 Frequencies --    952.2798               977.9422              1100.7524
 Red. masses --      1.4616                 3.8193                 1.3771
 Frc consts  --      0.7809                 2.1521                 0.9831
 IR Inten    --      0.8146                18.4628                27.6276

                     19                     20                     21
                      A                      A                      A
 Frequencies --   1123.5972              1148.2936              1174.6861
 Red. masses --      1.3712                 2.0083                 1.6582
 Frc consts  --      1.0199                 1.5602                 1.3481
 IR Inten    --     77.0518                 8.6670                13.5856

                     22                     23                     24
                      A                      A                      A
 Frequencies --   1212.2384              1326.4543              1351.5875
 Red. masses --      1.9258                 1.2815                 1.4109
 Frc consts  --      1.6674                 1.3285                 1.5186
 IR Inten    --      2.3158                 0.4725                 2.4083

                     25                     26                     27
                      A                      A                      A
 Frequencies --   1372.7152              1395.5219              1404.2251
 Red. masses --      1.4323                 1.2592                 1.3348
 Frc consts  --      1.5901                 1.4449                 1.5508
 IR Inten    --      9.4616                 1.6357                16.7381

                     28                     29                     30
                      A                      A                      A
 Frequencies --   1426.1450              1493.4797              1508.4480
 Red. masses --      1.3047                 1.0458                 1.0452
 Frc consts  --      1.5635                 1.3744                 1.4012
 IR Inten    --     13.7950                 1.1805                 4.3568

                     31                     32                     33
                      A                      A                      A
 Frequencies --   1513.2034              1531.6584              1651.2909
 Red. masses --      1.0494                 1.0531                 1.0711
 Frc consts  --      1.4158                 1.4556                 1.7209
 IR Inten    --      0.7194                 4.5068                33.0674

                     34                     35                     36
                      A                      A                      A
 Frequencies --   1682.9312              3015.9544              3049.5358
 Red. masses --      1.0793                 1.0840                 1.0353
 Frc consts  --      1.8011                 5.8096                 5.6726
 IR Inten    --     15.6631                35.4743                20.3070

                     37                     38                     39
                      A                      A                      A
 Frequencies --   3054.1653              3119.3893              3124.8483
 Red. masses --      1.0359                 1.1018                 1.1021
 Frc consts  --      5.6932                 6.3169                 6.3408
 IR Inten    --     20.7541                14.3637                38.1920

                     40                     41                     42
                      A                      A                      A
 Frequencies --   3134.3492              3142.2164              3395.0959
 Red. masses --      1.1027                 1.1022                 1.0542
 Frc consts  --      6.3825                 6.4117                 7.1596
 IR Inten    --     17.9684                22.2738                 9.1725

                     43                     44                     45
                      A                      A                      A
 Frequencies --   3416.4334              3501.0216              3537.5604
 Red. masses --      1.0503                 1.0914                 1.0865
 Frc consts  --      7.2232                 7.8819                 8.0110
 IR Inten    --      6.5675                 1.6731                 0.3704

 - Thermochemistry -
 -------------------
 Temperature   298.150 Kelvin.  Pressure   1.00000 Atm.
 Atom     1 has atomic number  6 and mass  12.00000

 Molecular mass:    89.09530 amu.
 Principal axes and moments of inertia in atomic units:
                           1         2         3
     Eigenvalues --   391.52766 645.36149 742.27983
           X            0.99999  -0.00368   0.00038
           Y            0.00367   0.99966   0.02592
           Z           -0.00048  -0.02592   0.99966
 This molecule is an asymmetric top.
 Rotational symmetry number  1.
 Rotational temperatures (Kelvin)      0.22122     0.13421     0.11669
 Rotational constants (GHZ):           4.60949     2.79648     2.43135
 Zero-point vibrational energy     406328.6 (Joules/Mol)
                                   97.11487 (Kcal/Mol)
 Warning -- explicit consideration of  11 degrees of freedom as
           vibrations may cause significant error
 Vibrational temperatures:    155.13   228.14   310.17   343.21   403.44
          (Kelvin)            436.87   507.34   558.29   670.45   757.47
                              848.36  1083.01  1243.85  1316.51  1345.61
                             1370.12  1407.04  1583.74  1616.60  1652.14
                             1690.11  1744.14  1908.47  1944.63  1975.03
                             2007.84  2020.36  2051.90  2148.78  2170.32
                             2177.16  2203.71  2375.84  2421.36  4339.28
                             4387.60  4394.26  4488.10  4495.95  4509.62
                             4520.94  4884.78  4915.48  5037.18  5089.75

 Zero-point correction=                           0.154762 (Hartree/Particle)
 Thermal correction to Energy=                    0.162658
 Thermal correction to Enthalpy=                  0.163602
 Thermal correction to Gibbs Free Energy=         0.123691
 Sum of electronic and zero-point Energies=           -284.988613
 Sum of electronic and thermal Energies=              -284.980718
 Sum of electronic and thermal Enthalpies=            -284.979774
 Sum of electronic and thermal Free Energies=         -285.019685

                     E (Thermal)             CV                S
                      KCal/Mol        Cal/Mol-Kelvin    Cal/Mol-Kelvin
 Total                  102.069             28.716             84.000
 Electronic               0.000              0.000              0.000
 Translational            0.889              2.981             39.374
 Rotational               0.889              2.981             26.731
 Vibrational            100.292             22.754             17.895
 Vibration     1          0.606              1.943              3.308
 Vibration     2          0.621              1.893              2.567
 Vibration     3          0.645              1.817              1.996
 Vibration     4          0.657              1.782              1.814
 Vibration     5          0.680              1.710              1.531
 Vibration     6          0.695              1.667              1.397
 Vibration     7          0.729              1.570              1.154
 Vibration     8          0.756              1.496              1.008
 Vibration     9          0.823              1.326              0.749
 Vibration    10          0.881              1.191              0.595
 Vibration    11          0.947              1.054              0.468

 Normal termination of Gaussian 09 at Thu Sep  8 15:24:12 2022.
