 Gaussian 09, Revision E.01,
 Gaussian 09:  ES64L-G09RevE.01 30-Nov-2015

 ----------------------------
 #P OPT Freq B3LYP/6-31G(d,p)
 ----------------------------

 ---------
 Frag_1069
 ---------
 Symbolic Z-matrix:
 Charge =  0 Multiplicity = 1

 SCF Done:  E(RB3LYP) =  -380.700600751     A.U. after   13 cycles
 SCF Done:  E(RB3LYP) =  -380.700687677     A.U. after    9 cycles
 SCF Done:  E(RB3LYP) =  -380.700698513     A.U. after    8 cycles
 SCF Done:  E(RB3LYP) =  -380.700700946     A.U. after    7 cycles
 SCF Done:  E(RB3LYP) =  -380.700701760     A.U. after    7 cycles
 SCF Done:  E(RB3LYP) =  -380.700701855     A.U. after    6 cycles
 Optimization completed.
    -- Stationary point found.
 Normal termination of Gaussian 09 at Thu Sep  8 14:51:01 2022.

 ----------------------------------------------------------------------
 #P Geom=AllCheck Guess=TCheck SCRF=Check GenChk RB3LYP/6-31G(d,p) Freq
 ----------------------------------------------------------------------

 Structure from the checkpoint file:  "B3LYP6-31Gdp.Frag_1069.chk"
 ---------
 Frag_1069
 ---------
 Charge =  0 Multiplicity = 1

                         Standard orientation:
 ---------------------------------------------------------------------
 Center     Atomic      Atomic             Coordinates (Angstroms)
 Number     Number       Type             X           Y           Z
 ---------------------------------------------------------------------
      1          8           0       -1.444124    1.117976   -0.122834
      2          6           0       -0.725310    0.000061    0.313234
      3          8           0       -1.444030   -1.118009   -0.122596
      4          6           0        0.683108    0.000050   -0.295555
      5          8           0        1.315623    1.178925    0.158132
      6          8           0        1.315453   -1.179016    0.157863
      7          1           0       -0.886522    1.882674    0.080813
      8          1           0       -0.610767    0.000169    1.414870
      9          1           0       -0.886388   -1.882627    0.081252
     10          1           0        0.591445    0.000170   -1.391558
     11          1           0        2.051129    1.396690   -0.427821
     12          1           0        2.050928   -1.396746   -0.428143
 ---------------------------------------------------------------------

 SCF Done:  E(RB3LYP) =  -380.700701855     A.U. after    1 cycles

 The electronic state is 1-A.
 Alpha  occ. eigenvalues --  -19.17256 -19.17256 -19.14262 -19.14261 -10.29151
 Alpha  occ. eigenvalues --  -10.27901  -1.08292  -1.04768  -1.01838  -0.98892
 Alpha  occ. eigenvalues --   -0.72202  -0.61947  -0.56327  -0.54851  -0.51463
 Alpha  occ. eigenvalues --   -0.47002  -0.46366  -0.39370  -0.38318  -0.38221
 Alpha  occ. eigenvalues --   -0.33594  -0.31362  -0.30890  -0.29089  -0.25244
 Alpha virt. eigenvalues --    0.03917   0.07435   0.09952   0.13978   0.14730
 Alpha virt. eigenvalues --    0.16307   0.19485   0.20837   0.25109   0.28331
 Alpha virt. eigenvalues --    0.31183   0.53698   0.54119   0.58458   0.60348

 Mulliken charges:
               1
     1  O   -0.533085
     2  C    0.414377
     3  O   -0.533093
     4  C    0.299372
     5  O   -0.532672
     6  O   -0.532680
     7  H    0.313936
     8  H    0.077284
     9  H    0.313945
    10  H    0.090461
    11  H    0.311077
    12  H    0.311079
 Sum of Mulliken charges =  -0.00000

 Dipole moment (field-independent basis, Debye):
    X=              4.3739    Y=              0.0004    Z=             -1.3766  Tot=              4.5854
 Quadrupole moment (field-independent basis, Debye-Ang):
   XX=            -35.4869   YY=            -30.2818   ZZ=            -34.6194
   XY=             -0.0003   XZ=             -6.5796   YZ=             -0.0008

  Exact polarizability:  37.724   0.000  40.393  -1.633  -0.000  30.298
 Approx polarizability:  48.812   0.001  55.125  -0.378  -0.001  42.406

                      1                      2                      3
                      A                      A                      A
 Frequencies --     84.5274               141.1708               223.9214
 Red. masses --      4.8767                 1.1474                 3.1928
 Frc consts  --      0.0205                 0.0135                 0.0943
 IR Inten    --      6.6030                58.7785                 0.1033

                      4                      5                      6
                      A                      A                      A
 Frequencies --    306.9411               339.7346               355.8624
 Red. masses --      1.3216                 1.2178                 2.4606
 Frc consts  --      0.0734                 0.0828                 0.1836
 IR Inten    --      0.2718               111.1277                98.1460

                      7                      8                      9
                      A                      A                      A
 Frequencies --    406.1955               457.0102               515.2183
 Red. masses --      1.5387                 1.9514                 5.4687
 Frc consts  --      0.1496                 0.2401                 0.8553
 IR Inten    --     62.2719               174.8648                19.8319

                     10                     11                     12
                      A                      A                      A
 Frequencies --    534.8343               630.4147               996.9671
 Red. masses --      7.8098                 7.4852                 2.2463
 Frc consts  --      1.3162                 1.7527                 1.3155
 IR Inten    --      1.8375                 7.8160                30.5628

                     13                     14                     15
                      A                      A                      A
 Frequencies --   1060.5222              1081.3363              1090.1601
 Red. masses --      3.9230                 3.1010                 6.9987
 Frc consts  --      2.5996                 2.1364                 4.9006
 IR Inten    --     49.6071                36.8217               329.6688

                     16                     17                     18
                      A                      A                      A
 Frequencies --   1117.5996              1184.8949              1234.1218
 Red. masses --      2.9941                 1.0751                 1.2714
 Frc consts  --      2.2033                 0.8893                 1.1409
 IR Inten    --    214.2065                76.7346                29.2008

                     19                     20                     21
                      A                      A                      A
 Frequencies --   1272.8687              1341.5894              1411.1054
 Red. masses --      1.1552                 1.1949                 1.1626
 Frc consts  --      1.1027                 1.2671                 1.3639
 IR Inten    --     20.5287               103.8433                 5.2104

                     22                     23                     24
                      A                      A                      A
 Frequencies --   1419.0977              1452.0861              1487.0283
 Red. masses --      1.5114                 1.5106                 1.8585
 Frc consts  --      1.7933                 1.8767                 2.4213
 IR Inten    --     63.8771                 1.9628                47.8826

                     25                     26                     27
                      A                      A                      A
 Frequencies --   2932.4257              3023.6175              3805.7767
 Red. masses --      1.0820                 1.0862                 1.0652
 Frc consts  --      5.4821                 5.8508                 9.0901
 IR Inten    --     81.4059                66.0216                11.9851

                     28                     29                     30
                      A                      A                      A
 Frequencies --   3807.0717              3828.6916              3829.1040
 Red. masses --      1.0647                 1.0670                 1.0670
 Frc consts  --      9.0923                 9.2152                 9.2174
 IR Inten    --     62.3371                41.0130                10.3543

 - Thermochemistry -
 -------------------
 Temperature   298.150 Kelvin.  Pressure   1.00000 Atm.
 Atom     1 has atomic number  8 and mass  15.99491

 Molecular mass:    94.02661 amu.
 Principal axes and moments of inertia in atomic units:
                           1         2         3
     Eigenvalues --   368.83858 544.85278 858.27076
           X            0.99966  -0.00000  -0.02606
           Y            0.00000   1.00000  -0.00000
           Z            0.02606   0.00000   0.99966
 This molecule is an asymmetric top.
 Rotational symmetry number  1.
 Rotational temperatures (Kelvin)      0.23483     0.15897     0.10092
 Rotational constants (GHZ):           4.89304     3.31235     2.10276
 Zero-point vibrational energy     247458.9 (Joules/Mol)
                                   59.14409 (Kcal/Mol)
 Warning -- explicit consideration of  10 degrees of freedom as
           vibrations may cause significant error
 Vibrational temperatures:    121.62   203.11   322.17   441.62   488.80
          (Kelvin)            512.01   584.42   657.53   741.28   769.51
                              907.02  1434.41  1525.85  1555.80  1568.50
                             1607.97  1704.80  1775.62  1831.37  1930.25
                             2030.26  2041.76  2089.23  2139.50  4219.10
                             4350.31  5475.66  5477.52  5508.63  5509.22

 Zero-point correction=                           0.094252 (Hartree/Particle)
 Thermal correction to Energy=                    0.101511
 Thermal correction to Enthalpy=                  0.102456
 Thermal correction to Gibbs Free Energy=         0.063363
 Sum of electronic and zero-point Energies=           -380.606450
 Sum of electronic and thermal Energies=              -380.599190
 Sum of electronic and thermal Enthalpies=            -380.598246
 Sum of electronic and thermal Free Energies=         -380.637339

                     E (Thermal)             CV                S
                      KCal/Mol        Cal/Mol-Kelvin    Cal/Mol-Kelvin
 Total                   63.699             25.221             82.277
 Electronic               0.000              0.000              0.000
 Translational            0.889              2.981             39.534
 Rotational               0.889              2.981             26.647
 Vibrational             61.922             19.260             16.095
 Vibration     1          0.601              1.960              3.783
 Vibration     2          0.615              1.912              2.788
 Vibration     3          0.649              1.805              1.927
 Vibration     4          0.697              1.661              1.379
 Vibration     5          0.720              1.596              1.213
 Vibration     6          0.731              1.563              1.140
 Vibration     7          0.771              1.457              0.940
 Vibration     8          0.815              1.345              0.775
 Vibration     9          0.870              1.216              0.621
 Vibration    10          0.890              1.173              0.577

 Optimization completed.
    -- Stationary point found.
 Normal termination of Gaussian 09 at Thu Sep  8 14:51:10 2022.
