 Gaussian 09, Revision E.01,
 Gaussian 09:  ES64L-G09RevE.01 30-Nov-2015

 --------------------------------
 #P OPT=calcfc Freq B3LYP/6-31G**
 --------------------------------

 --------
 Frag_369
 --------
 Symbolic Z-matrix:
 Charge =  0 Multiplicity = 1

 SCF Done:  E(RB3LYP) =  -209.109473409     A.U. after   14 cycles
 SCF Done:  E(RB3LYP) =  -209.115962959     A.U. after   12 cycles
 SCF Done:  E(RB3LYP) =  -209.116381481     A.U. after   11 cycles
 SCF Done:  E(RB3LYP) =  -209.116550725     A.U. after   10 cycles
 SCF Done:  E(RB3LYP) =  -209.116555143     A.U. after    8 cycles
 Optimization completed.
    -- Stationary point found.
 Normal termination of Gaussian 09 at Fri Sep 10 17:43:36 2021.

 ----------------------------------------------------------------------
 #P Geom=AllCheck Guess=TCheck SCRF=Check GenChk RB3LYP/6-31G(d,p) Freq
 ----------------------------------------------------------------------

 Structure from the checkpoint file:  "/public/home/users/caep010/.cache/gau_scr/Gau-134255.chk"
 --------
 Frag_369
 --------
 Charge =  0 Multiplicity = 1

                         Standard orientation:
 ---------------------------------------------------------------------
 Center     Atomic      Atomic             Coordinates (Angstroms)
 Number     Number       Type             X           Y           Z
 ---------------------------------------------------------------------
      1          6           0       -1.360855    0.525958    0.000001
      2          7           0       -0.815781   -0.629997   -0.000006
      3          8           0        0.562038   -0.730569    0.000006
      4          6           0        1.334054    0.468515   -0.000004
      5          1           0       -0.845186    1.484055    0.000016
      6          1           0       -2.446332    0.525605   -0.000001
      7          1           0        1.148039    1.075201    0.896001
      8          1           0        1.148302    1.075009   -0.896192
      9          1           0        2.370154    0.127818    0.000191
 ---------------------------------------------------------------------

 SCF Done:  E(RB3LYP) =  -209.116555143     A.U. after    1 cycles

 The electronic state is 1-A.
 Alpha  occ. eigenvalues --  -19.19879 -14.39373 -10.24260 -10.22260  -1.09272
 Alpha  occ. eigenvalues --   -0.86653  -0.72121  -0.59081  -0.53275  -0.48810
 Alpha  occ. eigenvalues --   -0.47295  -0.42174  -0.37326  -0.35366  -0.28117
 Alpha  occ. eigenvalues --   -0.26294
 Alpha virt. eigenvalues --   -0.00140   0.09031   0.09784   0.13891   0.14706
 Alpha virt. eigenvalues --    0.15888   0.18228   0.22195   0.31389   0.49938
 Alpha virt. eigenvalues --    0.53582   0.56230   0.58199   0.61425   0.65687

 Mulliken charges:
               1
     1  C   -0.071738
     2  N   -0.061743
     3  O   -0.366834
     4  C   -0.089376
     5  H    0.102138
     6  H    0.125554
     7  H    0.113605
     8  H    0.113610
     9  H    0.134784
 Sum of Mulliken charges =  -0.00000

 Dipole moment (field-independent basis, Debye):
    X=              0.6192    Y=              2.9097    Z=              0.0000  Tot=              2.9749
 Quadrupole moment (field-independent basis, Debye-Ang):
   XX=            -20.8389   YY=            -25.7626   ZZ=            -24.8980
   XY=             -0.7434   XZ=              0.0000   YZ=              0.0000

  Exact polarizability:  45.010  -3.755  31.955  -0.000  -0.000  20.771
 Approx polarizability:  60.730 -11.296  55.341  -0.000   0.000  28.345

                      1                      2                      3
                      A                      A                      A
 Frequencies --    246.9079               310.2749               391.4736
 Red. masses --      2.4116                 1.1130                 2.6979
 Frc consts  --      0.0866                 0.0631                 0.2436
 IR Inten    --      0.1576                 1.4431                 0.6387

                      4                      5                      6
                      A                      A                      A
 Frequencies --    616.6453               794.9735               866.6350
 Red. masses --      2.3979                 1.2325                 4.6238
 Frc consts  --      0.5372                 0.4589                 2.0461
 IR Inten    --      1.3475                 0.0048                56.9875

                      7                      8                      9
                      A                      A                      A
 Frequencies --    939.4618              1034.6135              1159.9371
 Red. masses --      1.3576                 7.7485                 1.2917
 Frc consts  --      0.7059                 4.8868                 1.0240
 IR Inten    --     36.7311                61.2580                 0.6650

                     10                     11                     12
                      A                      A                      A
 Frequencies --   1195.2329              1225.6278              1435.5416
 Red. masses --      1.4713                 1.7405                 1.2036
 Frc consts  --      1.2384                 1.5404                 1.4614
 IR Inten    --     14.1746                 1.8563                 7.0209

                     13                     14                     15
                      A                      A                      A
 Frequencies --   1483.7608              1496.1352              1516.2175
 Red. masses --      1.1709                 1.0470                 1.0539
 Frc consts  --      1.5188                 1.3809                 1.4275
 IR Inten    --      3.4019                 6.0604                13.7852

                     16                     17                     18
                      A                      A                      A
 Frequencies --   1676.1996              3011.5987              3076.2273
 Red. masses --      4.6291                 1.0343                 1.1062
 Frc consts  --      7.6630                 5.5268                 6.1675
 IR Inten    --     21.4966                23.6697                42.7590

                     19                     20                     21
                      A                      A                      A
 Frequencies --   3137.0463              3156.6741              3238.4917
 Red. masses --      1.0562                 1.0996                 1.1171
 Frc consts  --      6.1241                 6.4557                 6.9027
 IR Inten    --      6.6586                12.1742                 9.4207

 - Thermochemistry -
 -------------------
 Temperature   298.150 Kelvin.  Pressure   1.00000 Atm.
 Atom     1 has atomic number  6 and mass  12.00000

 Molecular mass:    59.03711 amu.
 Principal axes and moments of inertia in atomic units:
                           1         2         3
     Eigenvalues --    93.57191 266.43789 348.44995
           X            0.99998   0.00671  -0.00000
           Y           -0.00671   0.99998   0.00000
           Z            0.00000  -0.00000   1.00000
 This molecule is an asymmetric top.
 Rotational symmetry number  1.
 Rotational temperatures (Kelvin)      0.92564     0.32508     0.24857
 Rotational constants (GHZ):          19.28721     6.77359     5.17934
 Zero-point vibrational energy     191460.4 (Joules/Mol)
                                   45.76013 (Kcal/Mol)
 Warning -- explicit consideration of   4 degrees of freedom as
           vibrations may cause significant error
 Vibrational temperatures:    355.24   446.42   563.24   887.21  1143.79
          (Kelvin)           1246.89  1351.67  1488.58  1668.89  1719.67
                             1763.40  2065.42  2134.80  2152.60  2181.50
                             2411.67  4333.01  4426.00  4513.50  4541.74
                             4659.46

 Zero-point correction=                           0.072923 (Hartree/Particle)
 Thermal correction to Energy=                    0.077418
 Thermal correction to Enthalpy=                  0.078362
 Thermal correction to Gibbs Free Energy=         0.046476
 Sum of electronic and zero-point Energies=           -209.043632
 Sum of electronic and thermal Energies=              -209.039137
 Sum of electronic and thermal Enthalpies=            -209.038193
 Sum of electronic and thermal Free Energies=         -209.070079

                     E (Thermal)             CV                S
                      KCal/Mol        Cal/Mol-Kelvin    Cal/Mol-Kelvin
 Total                   48.581             14.854             67.111
 Electronic               0.000              0.000              0.000
 Translational            0.889              2.981             38.147
 Rotational               0.889              2.981             23.678
 Vibrational             46.803              8.892              5.286
 Vibration     1          0.661              1.768              1.753
 Vibration     2          0.699              1.654              1.361
 Vibration     3          0.759              1.488              0.995
 Vibration     4          0.976              0.997              0.422

 Optimization completed.
    -- Stationary point found.
 Normal termination of Gaussian 09 at Fri Sep 10 17:43:42 2021.
