 Gaussian 09, Revision E.01,
 Gaussian 09:  ES64L-G09RevE.01 30-Nov-2015

 ----------------------------
 #P OPT Freq B3LYP/6-31G(d,p)
 ----------------------------

 --------
 Frag_446
 --------
 Symbolic Z-matrix:
 Charge =  0 Multiplicity = 1

 SCF Done:  E(RB3LYP) =  -272.991448658     A.U. after   13 cycles
 SCF Done:  E(RB3LYP) =  -272.991477820     A.U. after    8 cycles
 SCF Done:  E(RB3LYP) =  -272.991481936     A.U. after    7 cycles
 SCF Done:  E(RB3LYP) =  -272.991482931     A.U. after    7 cycles
 Optimization completed.
    -- Stationary point found.
 Normal termination of Gaussian 09 at Thu Sep  8 14:54:43 2022.

 ----------------------------------------------------------------------
 #P Geom=AllCheck Guess=TCheck SCRF=Check GenChk RB3LYP/6-31G(d,p) Freq
 ----------------------------------------------------------------------

 Structure from the checkpoint file:  "B3LYP6-31Gdp.Frag_446.chk"
 --------
 Frag_446
 --------
 Charge =  0 Multiplicity = 1

                         Standard orientation:
 ---------------------------------------------------------------------
 Center     Atomic      Atomic             Coordinates (Angstroms)
 Number     Number       Type             X           Y           Z
 ---------------------------------------------------------------------
      1          6           0        2.040831   -0.000005   -0.143450
      2          8           0        0.790022    0.000042   -0.801374
      3          6           0       -0.401038    0.000002    0.012109
      4          6           0       -0.476269   -1.266748    0.880070
      5          6           0       -1.531950   -0.000279   -1.022170
      6          6           0       -0.476524    1.266999    0.879690
      7          1           0        2.196457    0.890913    0.481412
      8          1           0        2.799365    0.000042   -0.930662
      9          1           0        2.196443   -0.891003    0.481295
     10          1           0        0.298556   -1.281488    1.652592
     11          1           0       -0.360248   -2.159540    0.257936
     12          1           0       -1.444447   -1.324431    1.387345
     13          1           0       -2.510597   -0.000221   -0.532558
     14          1           0       -1.459441   -0.885892   -1.659971
     15          1           0       -1.459520    0.885073   -1.660342
     16          1           0       -0.360831    2.159629    0.257264
     17          1           0       -1.444635    1.324579    1.387105
     18          1           0        0.298422    1.282186    1.652083
 ---------------------------------------------------------------------

 SCF Done:  E(RB3LYP) =  -272.991482931     A.U. after    1 cycles

 The electronic state is 1-A.
 Alpha  occ. eigenvalues --  -19.13417 -10.23821 -10.21904 -10.17181 -10.17180
 Alpha  occ. eigenvalues --  -10.16724  -1.01524  -0.79130  -0.69216  -0.68693
 Alpha  occ. eigenvalues --   -0.66550  -0.54399  -0.47799  -0.45621  -0.45296
 Alpha  occ. eigenvalues --   -0.42612  -0.40870  -0.39416  -0.37793  -0.36958
 Alpha  occ. eigenvalues --   -0.36173  -0.33756  -0.33745  -0.29150  -0.24466
 Alpha virt. eigenvalues --    0.08047   0.11101   0.12924   0.13762   0.15734
 Alpha virt. eigenvalues --    0.15796   0.16479   0.18072   0.18657   0.19460
 Alpha virt. eigenvalues --    0.20248   0.20505   0.22023   0.23943   0.24032

 Mulliken charges:
               1
     1  C   -0.060376
     2  O   -0.498545
     3  C    0.279544
     4  C   -0.316234
     5  C   -0.302295
     6  C   -0.316216
     7  H    0.087875
     8  H    0.111300
     9  H    0.087881
    10  H    0.097961
    11  H    0.110148
    12  H    0.100133
    13  H    0.093163
    14  H    0.108713
    15  H    0.108719
    16  H    0.110147
    17  H    0.100127
    18  H    0.097957
 Sum of Mulliken charges =  -0.00000

 Dipole moment (field-independent basis, Debye):
    X=             -0.0236    Y=             -0.0001    Z=              1.1823  Tot=              1.1825
 Quadrupole moment (field-independent basis, Debye-Ang):
   XX=            -36.9164   YY=            -39.5605   ZZ=            -40.9382
   XY=             -0.0000   XZ=              0.6759   YZ=             -0.0000

  Exact polarizability:  64.320  -0.000  56.009   0.023   0.000  55.174
 Approx polarizability:  82.282  -0.000  74.409  -0.957   0.000  77.453

                      1                      2                      3
                      A                      A                      A
 Frequencies --     64.8988               187.4364               231.2359
 Red. masses --      1.8049                 1.0615                 1.0892
 Frc consts  --      0.0045                 0.0220                 0.0343
 IR Inten    --      3.0840                 1.0893                 1.1336

                      4                      5                      6
                      A                      A                      A
 Frequencies --    258.1471               280.7841               284.7210
 Red. masses --      1.2759                 1.1651                 1.6966
 Frc consts  --      0.0501                 0.0541                 0.0810
 IR Inten    --      0.3444                 1.1669                 0.4796

                      7                      8                      9
                      A                      A                      A
 Frequencies --    337.7434               363.1491               410.6902
 Red. masses --      2.4296                 2.3494                 2.2419
 Frc consts  --      0.1633                 0.1825                 0.2228
 IR Inten    --      1.6680                 0.7356                 0.7177

                     10                     11                     12
                      A                      A                      A
 Frequencies --    457.1037               507.9113               727.2166
 Red. masses --      2.7562                 2.6675                 3.8016
 Frc consts  --      0.3393                 0.4054                 1.1845
 IR Inten    --      5.8480                 1.7219                 4.6492

                     13                     14                     15
                      A                      A                      A
 Frequencies --    861.4687               912.8583               923.1333
 Red. masses --      2.5376                 1.6637                 1.6337
 Frc consts  --      1.1095                 0.8168                 0.8202
 IR Inten    --     18.0045                 0.0589                 0.0882

                     16                     17                     18
                      A                      A                      A
 Frequencies --    959.7518              1040.7816              1047.1766
 Red. masses --      1.2009                 1.4146                 1.4267
 Frc consts  --      0.6517                 0.9028                 0.9218
 IR Inten    --      0.0252                 2.2677                 3.5696

                     19                     20                     21
                      A                      A                      A
 Frequencies --   1125.7165              1182.1889              1210.3547
 Red. masses --      5.9519                 1.2818                 1.5028
 Frc consts  --      4.4439                 1.0555                 1.2971
 IR Inten    --    101.7901                 1.1314                 2.4782

                     22                     23                     24
                      A                      A                      A
 Frequencies --   1238.2284              1260.7740              1291.9495
 Red. masses --      2.3666                 2.6672                 2.6554
 Frc consts  --      2.1379                 2.4979                 2.6114
 IR Inten    --    102.2867                22.5279                16.0161

                     25                     26                     27
                      A                      A                      A
 Frequencies --   1406.5310              1408.5611              1433.2199
 Red. masses --      1.2806                 1.3097                 1.2381
 Frc consts  --      1.4926                 1.5310                 1.4984
 IR Inten    --     12.7287                11.6543                 8.1768

                     28                     29                     30
                      A                      A                      A
 Frequencies --   1483.9866              1486.6862              1499.4386
 Red. masses --      1.0492                 1.1232                 1.0471
 Frc consts  --      1.3613                 1.4627                 1.3870
 IR Inten    --      0.0029                 0.6993                 0.0976

                     31                     32                     33
                      A                      A                      A
 Frequencies --   1501.8441              1504.6117              1515.4821
 Red. masses --      1.0491                 1.0544                 1.0659
 Frc consts  --      1.3942                 1.4064                 1.4424
 IR Inten    --      0.3594                 3.5503                 2.2533

                     34                     35                     36
                      A                      A                      A
 Frequencies --   1519.9090              1526.1026              1536.9622
 Red. masses --      1.0528                 1.0501                 1.0669
 Frc consts  --      1.4329                 1.4409                 1.4848
 IR Inten    --      0.2507                 6.2960                 9.7491

                     37                     38                     39
                      A                      A                      A
 Frequencies --   2998.6331              3042.9949              3047.8198
 Red. masses --      1.0358                 1.0557                 1.0345
 Frc consts  --      5.4874                 5.7596                 5.6621
 IR Inten    --     52.8442                 0.5372                24.4687

                     40                     41                     42
                      A                      A                      A
 Frequencies --   3052.0386              3055.2160              3116.4383
 Red. masses --      1.0814                 1.0357                 1.1020
 Frc consts  --      5.9350                 5.6958                 6.3058
 IR Inten    --     82.7880                 4.1140                 0.2557

                     43                     44                     45
                      A                      A                      A
 Frequencies --   3117.4883              3121.5854              3124.7259
 Red. masses --      1.0980                 1.1018                 1.1039
 Frc consts  --      6.2874                 6.3257                 6.3506
 IR Inten    --     44.9228                17.1492                 3.9221

                     46                     47                     48
                      A                      A                      A
 Frequencies --   3125.6132              3131.6185              3132.0741
 Red. masses --      1.1024                 1.1028                 1.1025
 Frc consts  --      6.3455                 6.3723                 6.3725
 IR Inten    --     33.8426                35.7029                57.9152

 - Thermochemistry -
 -------------------
 Temperature   298.150 Kelvin.  Pressure   1.00000 Atm.
 Atom     1 has atomic number  6 and mass  12.00000

 Molecular mass:    88.08882 amu.
 Principal axes and moments of inertia in atomic units:
                           1         2         3
     Eigenvalues --   414.65447 665.76247 666.54250
           X            0.99941   0.03449   0.00002
           Y            0.00000  -0.00055   1.00000
           Z           -0.03449   0.99940   0.00055
 This molecule is an asymmetric top.
 Rotational symmetry number  1.
 Rotational temperatures (Kelvin)      0.20888     0.13010     0.12994
 Rotational constants (GHZ):           4.35240     2.71079     2.70762
 Zero-point vibrational energy     430984.6 (Joules/Mol)
                                  103.00779 (Kcal/Mol)
 Warning -- explicit consideration of  11 degrees of freedom as
           vibrations may cause significant error
 Vibrational temperatures:     93.37   269.68   332.70   371.42   403.99
          (Kelvin)            409.65   485.94   522.49   590.89   657.67
                              730.77  1046.30  1239.46  1313.40  1328.18
                             1380.87  1497.45  1506.65  1619.65  1700.90
                             1741.43  1781.53  1813.97  1858.82  2023.68
                             2026.60  2062.08  2135.12  2139.01  2157.36
                             2160.82  2164.80  2180.44  2186.81  2195.72
                             2211.34  4314.36  4378.19  4385.13  4391.20
                             4395.77  4483.85  4485.36  4491.26  4495.78
                             4497.05  4505.69  4506.35

 Zero-point correction=                           0.164153 (Hartree/Particle)
 Thermal correction to Energy=                    0.172271
 Thermal correction to Enthalpy=                  0.173215
 Thermal correction to Gibbs Free Energy=         0.132730
 Sum of electronic and zero-point Energies=           -272.827330
 Sum of electronic and thermal Energies=              -272.819212
 Sum of electronic and thermal Enthalpies=            -272.818268
 Sum of electronic and thermal Free Energies=         -272.858753

                     E (Thermal)             CV                S
                      KCal/Mol        Cal/Mol-Kelvin    Cal/Mol-Kelvin
 Total                  108.102             29.421             85.207
 Electronic               0.000              0.000              0.000
 Translational            0.889              2.981             39.340
 Rotational               0.889              2.981             26.712
 Vibrational            106.324             23.459             19.156
 Vibration     1          0.597              1.971              4.302
 Vibration     2          0.632              1.857              2.253
 Vibration     3          0.653              1.793              1.869
 Vibration     4          0.667              1.749              1.674
 Vibration     5          0.680              1.709              1.529
 Vibration     6          0.683              1.702              1.505
 Vibration     7          0.718              1.600              1.223
 Vibration     8          0.737              1.548              1.109
 Vibration     9          0.775              1.447              0.924
 Vibration    10          0.815              1.345              0.775
 Vibration    11          0.863              1.232              0.639

 Optimization completed.
    -- Stationary point found.
 Normal termination of Gaussian 09 at Thu Sep  8 14:54:59 2022.
