 Gaussian 09, Revision E.01,
 Gaussian 09:  ES64L-G09RevE.01 30-Nov-2015

 ----------------------------
 #P OPT Freq B3LYP/6-31G(d,p)
 ----------------------------

 ---------
 Frag_1150
 ---------
 Symbolic Z-matrix:
 Charge =  0 Multiplicity = 1

 SCF Done:  E(RB3LYP) =  -339.612755092     A.U. after   15 cycles
 SCF Done:  E(RB3LYP) =  -339.612854803     A.U. after   13 cycles
 SCF Done:  E(RB3LYP) =  -339.612841532     A.U. after   13 cycles
 SCF Done:  E(RB3LYP) =  -339.612900309     A.U. after    8 cycles
 SCF Done:  E(RB3LYP) =  -339.612910020     A.U. after   10 cycles
 SCF Done:  E(RB3LYP) =  -339.612911844     A.U. after    9 cycles
 SCF Done:  E(RB3LYP) =  -339.612912488     A.U. after    9 cycles
 SCF Done:  E(RB3LYP) =  -339.612912643     A.U. after    8 cycles
 Optimization completed.
    -- Stationary point found.
 Normal termination of Gaussian 09 at Thu Sep  8 14:52:41 2022.

 ----------------------------------------------------------------------
 #P Geom=AllCheck Guess=TCheck SCRF=Check GenChk RB3LYP/6-31G(d,p) Freq
 ----------------------------------------------------------------------

 Structure from the checkpoint file:  "B3LYP6-31Gdp.Frag_1150.chk"
 ---------
 Frag_1150
 ---------
 Charge =  0 Multiplicity = 1

                         Standard orientation:
 ---------------------------------------------------------------------
 Center     Atomic      Atomic             Coordinates (Angstroms)
 Number     Number       Type             X           Y           Z
 ---------------------------------------------------------------------
      1          6           0        1.567190    0.891345    0.108136
      2          7           0        0.788290   -0.144024   -0.058936
      3          8           0        1.111868   -1.353457   -0.003890
      4          7           0       -0.622384    0.095530   -0.439348
      5          6           0       -1.484054   -0.926857    0.160893
      6          8           0       -1.022689    1.372367   -0.027779
      7          1           0        2.604628    0.674891    0.309744
      8          1           0        1.169637    1.882158   -0.024339
      9          1           0       -1.135885   -1.906508   -0.154362
     10          1           0       -1.482830   -0.877377    1.261819
     11          1           0       -2.488797   -0.739405   -0.217899
     12          1           0       -1.040344    1.367502    0.952196
 ---------------------------------------------------------------------

 SCF Done:  E(RB3LYP) =  -339.612912643     A.U. after    1 cycles

 The electronic state is 1-A.
 Alpha  occ. eigenvalues --  -19.21343 -19.13696 -14.50878 -14.43945 -10.22659
 Alpha  occ. eigenvalues --  -10.22130  -1.15024  -1.09249  -0.88419  -0.83995
 Alpha  occ. eigenvalues --   -0.70133  -0.62095  -0.55632  -0.52510  -0.50164
 Alpha  occ. eigenvalues --   -0.47558  -0.44762  -0.43742  -0.40922  -0.39488
 Alpha  occ. eigenvalues --   -0.34447  -0.28760  -0.25541  -0.22926
 Alpha virt. eigenvalues --   -0.01921   0.05134   0.08722   0.10395   0.14078
 Alpha virt. eigenvalues --    0.14332   0.15542   0.16893   0.18147   0.20286
 Alpha virt. eigenvalues --    0.26264   0.31898   0.51527   0.52851   0.54922

 Mulliken charges:
               1
     1  C   -0.115634
     2  N    0.238845
     3  O   -0.486654
     4  N   -0.060679
     5  C   -0.174760
     6  O   -0.403552
     7  H    0.140526
     8  H    0.145487
     9  H    0.173314
    10  H    0.096122
    11  H    0.142899
    12  H    0.304085
 Sum of Mulliken charges =  -0.00000

 Dipole moment (field-independent basis, Debye):
    X=             -1.2978    Y=              1.5342    Z=              2.0181  Tot=              2.8479
 Quadrupole moment (field-independent basis, Debye-Ang):
   XX=            -32.8826   YY=            -37.1845   ZZ=            -35.5055
   XY=              5.4968   XZ=             -1.7523   YZ=              2.2959

  Exact polarizability:  54.877   5.619  55.252   0.878   2.112  29.346
 Approx polarizability:  73.006   7.502 106.231   3.981   4.642  44.190

                      1                      2                      3
                      A                      A                      A
 Frequencies --     73.0139               212.7270               350.6470
 Red. masses --      4.0418                 1.1303                 2.8931
 Frc consts  --      0.0127                 0.0301                 0.2096
 IR Inten    --      8.1385                 0.7271                 3.9786

                      4                      5                      6
                      A                      A                      A
 Frequencies --    366.4525               393.9577               486.3935
 Red. masses --      2.7105                 2.0907                 1.9083
 Frc consts  --      0.2145                 0.1912                 0.2660
 IR Inten    --     21.7633                14.3779                62.5962

                      7                      8                      9
                      A                      A                      A
 Frequencies --    518.5110               556.6611               677.0309
 Red. masses --      4.3634                 2.8460                 1.4773
 Frc consts  --      0.6912                 0.5196                 0.3990
 IR Inten    --      1.6654                50.4432                 3.2960

                     10                     11                     12
                      A                      A                      A
 Frequencies --    704.5409               718.3190               754.8805
 Red. masses --      3.1985                 1.8903                 1.6430
 Frc consts  --      0.9354                 0.5747                 0.5516
 IR Inten    --     27.9557                 8.9646                62.9006

                     13                     14                     15
                      A                      A                      A
 Frequencies --    902.8222              1093.8379              1125.4447
 Red. masses --      4.5922                 2.0714                 2.2794
 Frc consts  --      2.2053                 1.4602                 1.7010
 IR Inten    --     15.5176                20.9945                17.8514

                     16                     17                     18
                      A                      A                      A
 Frequencies --   1171.3465              1181.4004              1300.0467
 Red. masses --      1.6667                 2.3672                 2.3555
 Frc consts  --      1.3473                 1.9466                 2.3456
 IR Inten    --      6.5149                22.3728                38.0907

                     19                     20                     21
                      A                      A                      A
 Frequencies --   1417.6576              1434.6977              1460.9456
 Red. masses --      1.1807                 1.1672                 1.3805
 Frc consts  --      1.3980                 1.4155                 1.7360
 IR Inten    --     32.1671                 4.9827                20.8252

                     22                     23                     24
                      A                      A                      A
 Frequencies --   1499.0964              1507.3614              1674.1431
 Red. masses --      1.0542                 1.0703                 8.7857
 Frc consts  --      1.3958                 1.4328                14.5082
 IR Inten    --      8.3469                32.3743               189.1836

                     25                     26                     27
                      A                      A                      A
 Frequencies --   2993.1058              3145.4524              3214.1842
 Red. masses --      1.0565                 1.0807                 1.1019
 Frc consts  --      5.5763                 6.2995                 6.7068
 IR Inten    --     50.3958                11.7919                 0.0652

                     28                     29                     30
                      A                      A                      A
 Frequencies --   3230.9211              3366.9263              3577.8816
 Red. masses --      1.0505                 1.1258                 1.0667
 Frc consts  --      6.4607                 7.5193                 8.0454
 IR Inten    --      6.9299                 2.6398                 1.2684

 - Thermochemistry -
 -------------------
 Temperature   298.150 Kelvin.  Pressure   1.00000 Atm.
 Atom     1 has atomic number  6 and mass  12.00000

 Molecular mass:    90.04293 amu.
 Principal axes and moments of inertia in atomic units:
                           1         2         3
     Eigenvalues --   338.45471 475.05585 771.86969
           X            0.97814   0.20763  -0.01123
           Y           -0.20754   0.97819   0.00861
           Z            0.01277  -0.00609   0.99990
 This molecule is an asymmetric top.
 Rotational symmetry number  1.
 Rotational temperatures (Kelvin)      0.25591     0.18232     0.11221
 Rotational constants (GHZ):           5.33230     3.79901     2.33814
 Zero-point vibrational energy     245894.8 (Joules/Mol)
                                   58.77028 (Kcal/Mol)
 Warning -- explicit consideration of   8 degrees of freedom as
           vibrations may cause significant error
 Vibrational temperatures:    105.05   306.07   504.50   527.24   566.82
          (Kelvin)            699.81   746.02   800.91   974.10  1013.68
                             1033.50  1086.10  1298.96  1573.79  1619.26
                             1685.30  1699.77  1870.47  2039.69  2064.21
                             2101.97  2156.86  2168.75  2408.72  4306.41
                             4525.60  4624.49  4648.57  4844.25  5147.77

 Zero-point correction=                           0.093656 (Hartree/Particle)
 Thermal correction to Energy=                    0.100079
 Thermal correction to Enthalpy=                  0.101024
 Thermal correction to Gibbs Free Energy=         0.063718
 Sum of electronic and zero-point Energies=           -339.519256
 Sum of electronic and thermal Energies=              -339.512833
 Sum of electronic and thermal Enthalpies=            -339.511889
 Sum of electronic and thermal Free Energies=         -339.549194

                     E (Thermal)             CV                S
                      KCal/Mol        Cal/Mol-Kelvin    Cal/Mol-Kelvin
 Total                   62.801             23.278             78.516
 Electronic               0.000              0.000              0.000
 Translational            0.889              2.981             39.405
 Rotational               0.889              2.981             26.320
 Vibrational             61.023             17.316             12.790
 Vibration     1          0.599              1.967              4.070
 Vibration     2          0.644              1.822              2.020
 Vibration     3          0.728              1.574              1.163
 Vibration     4          0.739              1.541              1.095
 Vibration     5          0.761              1.483              0.985
 Vibration     6          0.842              1.280              0.693
 Vibration     7          0.874              1.209              0.613
 Vibration     8          0.912              1.125              0.531

 Optimization completed.
    -- Stationary point found.
 Normal termination of Gaussian 09 at Thu Sep  8 14:52:50 2022.
