 Gaussian 09, Revision E.01,
 Gaussian 09:  ES64L-G09RevE.01 30-Nov-2015

 --------------------------------
 #P OPT=calcfc Freq B3LYP/6-31G**
 --------------------------------

 --------
 Frag_340
 --------
 Symbolic Z-matrix:
 Charge =  0 Multiplicity = 1

 SCF Done:  E(RB3LYP) =  -211.356416030     A.U. after   14 cycles
 SCF Done:  E(RB3LYP) =  -211.364687811     A.U. after   13 cycles
 SCF Done:  E(RB3LYP) =  -211.364392579     A.U. after   13 cycles
 SCF Done:  E(RB3LYP) =  -211.364833578     A.U. after    9 cycles
 SCF Done:  E(RB3LYP) =  -211.313570652     A.U. after   15 cycles
 SCF Done:  E(RB3LYP) =  -211.364845131     A.U. after    8 cycles
 SCF Done:  E(RB3LYP) =  -211.364896743     A.U. after    9 cycles
 SCF Done:  E(RB3LYP) =  -211.364904384     A.U. after    9 cycles
 SCF Done:  E(RB3LYP) =  -211.364904860     A.U. after    8 cycles
 Optimization completed.
    -- Stationary point found.
 Normal termination of Gaussian 09 at Fri Sep 10 19:28:13 2021.

 ----------------------------------------------------------------------
 #P Geom=AllCheck Guess=TCheck SCRF=Check GenChk RB3LYP/6-31G(d,p) Freq
 ----------------------------------------------------------------------

 Structure from the checkpoint file:  "/public/home/users/caep010/.cache/gau_scr/Gau-212884.chk"
 --------
 Frag_340
 --------
 Charge =  0 Multiplicity = 1

                         Standard orientation:
 ---------------------------------------------------------------------
 Center     Atomic      Atomic             Coordinates (Angstroms)
 Number     Number       Type             X           Y           Z
 ---------------------------------------------------------------------
      1          6           0       -2.043296   -0.076308   -0.000031
      2          6           0       -0.830176   -0.635227    0.000035
      3          6           0        0.439877    0.139979    0.000041
      4          6           0        1.705264   -0.693557   -0.000015
      5          7           0        0.397078    1.419538    0.000002
      6          1           0       -2.149585    1.003956   -0.000090
      7          1           0       -2.946344   -0.678472   -0.000007
      8          1           0       -0.731904   -1.719459    0.000103
      9          1           0        1.736897   -1.346437   -0.880556
     10          1           0        1.736540   -1.347306    0.879857
     11          1           0        2.599842   -0.065465    0.000440
     12          1           0        1.344989    1.807093    0.000062
 ---------------------------------------------------------------------

 SCF Done:  E(RB3LYP) =  -211.364904860     A.U. after    1 cycles

 The electronic state is 1-A.
 Alpha  occ. eigenvalues --  -14.30857 -10.23539 -10.19256 -10.19014 -10.18707
 Alpha  occ. eigenvalues --   -0.89990  -0.76765  -0.72915  -0.61561  -0.53034
 Alpha  occ. eigenvalues --   -0.47078  -0.44716  -0.43018  -0.42703  -0.38549
 Alpha  occ. eigenvalues --   -0.35284  -0.32637  -0.25595  -0.25078
 Alpha virt. eigenvalues --   -0.03542   0.07465   0.08921   0.13072   0.13275
 Alpha virt. eigenvalues --    0.15541   0.17588   0.18233   0.20436   0.24918
 Alpha virt. eigenvalues --    0.32883   0.33572   0.40916   0.48712   0.52934

 Mulliken charges:
               1
     1  C   -0.214908
     2  C   -0.052089
     3  C    0.278256
     4  C   -0.374368
     5  N   -0.536649
     6  H    0.134393
     7  H    0.100832
     8  H    0.078778
     9  H    0.129144
    10  H    0.129120
    11  H    0.109360
    12  H    0.218133
 Sum of Mulliken charges =  -0.00000

 Dipole moment (field-independent basis, Debye):
    X=              1.1143    Y=             -1.6995    Z=             -0.0000  Tot=              2.0322
 Quadrupole moment (field-independent basis, Debye-Ang):
   XX=            -26.1282   YY=            -31.6242   ZZ=            -32.3431
   XY=              1.5626   XZ=             -0.0001   YZ=              0.0001

  Exact polarizability:  65.565   1.001  53.578   0.001  -0.000  25.230
 Approx polarizability:  89.589  -0.142  84.591   0.002  -0.000  36.008

                      1                      2                      3
                      A                      A                      A
 Frequencies --     75.6261               152.5668               278.5012
 Red. masses --      2.1579                 1.0555                 2.8061
 Frc consts  --      0.0073                 0.0145                 0.1282
 IR Inten    --      3.1233                 0.1461                 3.6735

                      4                      5                      6
                      A                      A                      A
 Frequencies --    423.8770               445.4034               578.8693
 Red. masses --      2.6985                 1.7514                 2.9206
 Frc consts  --      0.2857                 0.2047                 0.5766
 IR Inten    --      1.0638                 1.1579                18.4173

                      7                      8                      9
                      A                      A                      A
 Frequencies --    689.2560               801.2601               874.2473
 Red. masses --      1.6129                 2.6678                 1.1894
 Frc consts  --      0.4515                 1.0092                 0.5356
 IR Inten    --     16.9561                 0.5869                26.8921

                     10                     11                     12
                      A                      A                      A
 Frequencies --    982.6300               986.4320              1033.8820
 Red. masses --      1.4083                 1.7506                 1.0887
 Frc consts  --      0.8012                 1.0036                 0.6857
 IR Inten    --     27.5928                 8.6315                20.2907

                     13                     14                     15
                      A                      A                      A
 Frequencies --   1071.7158              1077.1986              1130.8365
 Red. masses --      1.6093                 1.5954                 1.5312
 Frc consts  --      1.0891                 1.0907                 1.1537
 IR Inten    --     40.0529                10.4750                16.7125

                     16                     17                     18
                      A                      A                      A
 Frequencies --   1328.9565              1355.8577              1413.3321
 Red. masses --      1.3191                 1.5092                 1.2675
 Frc consts  --      1.3727                 1.6347                 1.4918
 IR Inten    --     34.7487                20.1737                10.6183

                     19                     20                     21
                      A                      A                      A
 Frequencies --   1459.2097              1486.6430              1496.3208
 Red. masses --      1.3389                 1.0458                 1.0806
 Frc consts  --      1.6797                 1.3618                 1.4255
 IR Inten    --     52.5210                 6.4851                21.0116

                     22                     23                     24
                      A                      A                      A
 Frequencies --   1684.2286              1733.2538              3036.1237
 Red. masses --      5.9568                 5.7159                 1.0368
 Frc consts  --      9.9556                10.1171                 5.6309
 IR Inten    --     31.1748                24.6711                 8.2037

                     25                     26                     27
                      A                      A                      A
 Frequencies --   3096.5474              3132.3591              3157.2434
 Red. masses --      1.1000                 1.1027                 1.0697
 Frc consts  --      6.2144                 6.3744                 6.2827
 IR Inten    --     13.8568                18.9305                10.6084

                     28                     29                     30
                      A                      A                      A
 Frequencies --   3170.1786              3259.3818              3444.1791
 Red. masses --      1.0797                 1.1172                 1.0748
 Frc consts  --      6.3930                 6.9931                 7.5119
 IR Inten    --     13.8328                 4.9922                 4.2768

 - Thermochemistry -
 -------------------
 Temperature   298.150 Kelvin.  Pressure   1.00000 Atm.
 Atom     1 has atomic number  6 and mass  12.00000

 Molecular mass:    69.05785 amu.
 Principal axes and moments of inertia in atomic units:
                           1         2         3
     Eigenvalues --   185.71925 457.11937 631.68510
           X            0.99984  -0.01794  -0.00000
           Y            0.01794   0.99984   0.00000
           Z            0.00000  -0.00000   1.00000
 This molecule is an asymmetric top.
 Rotational symmetry number  1.
 Rotational temperatures (Kelvin)      0.46637     0.18948     0.13712
 Rotational constants (GHZ):           9.71758     3.94807     2.85703
 Zero-point vibrational energy     268299.2 (Joules/Mol)
                                   64.12504 (Kcal/Mol)
 Warning -- explicit consideration of   6 degrees of freedom as
           vibrations may cause significant error
 Vibrational temperatures:    108.81   219.51   400.70   609.86   640.84
          (Kelvin)            832.86   991.68  1152.83  1257.85  1413.78
                             1419.25  1487.52  1541.96  1549.85  1627.02
                             1912.07  1950.77  2033.47  2099.47  2138.95
                             2152.87  2423.23  2493.76  4368.30  4455.24
                             4506.76  4542.56  4561.17  4689.52  4955.40

 Zero-point correction=                           0.102190 (Hartree/Particle)
 Thermal correction to Energy=                    0.108106
 Thermal correction to Enthalpy=                  0.109050
 Thermal correction to Gibbs Free Energy=         0.073070
 Sum of electronic and zero-point Energies=           -211.262715
 Sum of electronic and thermal Energies=              -211.256799
 Sum of electronic and thermal Enthalpies=            -211.255854
 Sum of electronic and thermal Free Energies=         -211.291835

                     E (Thermal)             CV                S
                      KCal/Mol        Cal/Mol-Kelvin    Cal/Mol-Kelvin
 Total                   67.838             20.103             75.726
 Electronic               0.000              0.000              0.000
 Translational            0.889              2.981             38.614
 Rotational               0.889              2.981             25.487
 Vibrational             66.060             14.141             11.625
 Vibration     1          0.599              1.965              4.001
 Vibration     2          0.619              1.900              2.640
 Vibration     3          0.679              1.713              1.543
 Vibration     4          0.786              1.418              0.879
 Vibration     5          0.805              1.371              0.810
 Vibration     6          0.935              1.077              0.487

 Optimization completed.
    -- Stationary point found.
 Normal termination of Gaussian 09 at Fri Sep 10 19:28:21 2021.
