 Gaussian 09, Revision E.01,
 Gaussian 09:  ES64L-G09RevE.01 30-Nov-2015

 --------------------------------
 #P OPT=calcfc Freq B3LYP/6-31G**
 --------------------------------

 --------
 Frag_136
 --------
 Symbolic Z-matrix:
 Charge =  0 Multiplicity = 1

 SCF Done:  E(RB3LYP) =  -283.932059485     A.U. after   14 cycles
 SCF Done:  E(RB3LYP) =  -283.951581874     A.U. after   14 cycles
 SCF Done:  E(RB3LYP) =  -283.950680553     A.U. after   13 cycles
 SCF Done:  E(RB3LYP) =  -283.952354275     A.U. after   10 cycles
 SCF Done:  E(RB3LYP) =  -283.955871327     A.U. after   13 cycles
 SCF Done:  E(RB3LYP) =  -283.957652667     A.U. after   12 cycles
 SCF Done:  E(RB3LYP) =  -283.958026089     A.U. after   12 cycles
 SCF Done:  E(RB3LYP) =  -283.958224374     A.U. after   12 cycles
 SCF Done:  E(RB3LYP) =  -283.958390164     A.U. after   11 cycles
 SCF Done:  E(RB3LYP) =  -283.958456875     A.U. after   11 cycles
 SCF Done:  E(RB3LYP) =  -283.958469614     A.U. after   10 cycles
 SCF Done:  E(RB3LYP) =  -283.958472530     A.U. after    9 cycles
 SCF Done:  E(RB3LYP) =  -283.958472968     A.U. after    7 cycles
 SCF Done:  E(RB3LYP) =  -283.958473122     A.U. after    7 cycles
 SCF Done:  E(RB3LYP) =  -283.958473166     A.U. after    7 cycles
 Optimization completed.
    -- Stationary point found.
 Normal termination of Gaussian 09 at Sun Aug 22 16:33:10 2021.

 ----------------------------------------------------------------------
 #P Geom=AllCheck Guess=TCheck SCRF=Check GenChk RB3LYP/6-31G(d,p) Freq
 ----------------------------------------------------------------------

 Structure from the checkpoint file:  "/public/home/users/caep010/.cache/gau_scr/Gau-175680.chk"
 --------
 Frag_136
 --------
 Charge =  0 Multiplicity = 1

                         Standard orientation:
 ---------------------------------------------------------------------
 Center     Atomic      Atomic             Coordinates (Angstroms)
 Number     Number       Type             X           Y           Z
 ---------------------------------------------------------------------
      1          6           0       -1.799633   -0.679711   -0.060767
      2          6           0       -0.683445    0.341028   -0.013864
      3          7           0       -1.001876    1.579788    0.103313
      4          7           0        0.610155   -0.161851   -0.155088
      5          6           0        1.752458    0.731472   -0.041813
      6          7           0        0.911520   -1.518784    0.114573
      7          1           0       -1.739813   -1.306326   -0.957567
      8          1           0       -1.785044   -1.346814    0.808452
      9          1           0       -2.744491   -0.138122   -0.065492
     10          1           0       -0.178327    2.182040    0.149259
     11          1           0        1.672725    1.544063   -0.771670
     12          1           0        2.647522    0.150976   -0.259603
     13          1           0        1.851873    1.174665    0.961265
     14          1           0        0.508354   -2.103875   -0.612505
     15          1           0        0.512331   -1.807409    1.006940
 ---------------------------------------------------------------------

 SCF Done:  E(RB3LYP) =  -283.958473166     A.U. after    1 cycles

 The electronic state is 1-A.
 Alpha  occ. eigenvalues --  -14.37675 -14.36168 -14.28521 -10.24986 -10.21413
 Alpha  occ. eigenvalues --  -10.18583  -0.99734  -0.88376  -0.79653  -0.73485
 Alpha  occ. eigenvalues --   -0.67442  -0.56309  -0.51934  -0.51735  -0.47828
 Alpha  occ. eigenvalues --   -0.43203  -0.41851  -0.40608  -0.38500  -0.37896
 Alpha  occ. eigenvalues --   -0.31690  -0.28820  -0.24263  -0.22017
 Alpha virt. eigenvalues --    0.03663   0.06240   0.10792   0.11751   0.13253
 Alpha virt. eigenvalues --    0.15403   0.15724   0.16753   0.18637   0.19090
 Alpha virt. eigenvalues --    0.21705   0.22936   0.25944   0.34507   0.42192

 Mulliken charges:
               1
     1  C   -0.370004
     2  C    0.453475
     3  N   -0.574668
     4  N   -0.349446
     5  C   -0.169330
     6  N   -0.451380
     7  H    0.113667
     8  H    0.108660
     9  H    0.148985
    10  H    0.210931
    11  H    0.120284
    12  H    0.133117
    13  H    0.108725
    14  H    0.263217
    15  H    0.253767
 Sum of Mulliken charges =  -0.00000

 Dipole moment (field-independent basis, Debye):
    X=              1.2231    Y=             -2.2211    Z=              0.1581  Tot=              2.5405
 Quadrupole moment (field-independent basis, Debye-Ang):
   XX=            -40.2618   YY=            -36.5538   ZZ=            -36.8736
   XY=              7.3651   XZ=              0.2085   YZ=             -0.3593

  Exact polarizability:  57.707  -0.665  63.501  -0.018   0.873  38.110
 Approx polarizability:  75.164  -8.981  95.860  -1.274   2.725  55.216

                      1                      2                      3
                      A                      A                      A
 Frequencies --     89.4342               166.4688               188.9199
 Red. masses --      2.7701                 2.7128                 1.2208
 Frc consts  --      0.0131                 0.0443                 0.0257
 IR Inten    --      1.8812                 7.4659                 0.7825

                      4                      5                      6
                      A                      A                      A
 Frequencies --    200.0914               311.8197               333.1512
 Red. masses --      1.0781                 2.6740                 1.0767
 Frc consts  --      0.0254                 0.1532                 0.0704
 IR Inten    --      2.5217                 3.1289                45.7880

                      7                      8                      9
                      A                      A                      A
 Frequencies --    418.6840               503.4753               558.8583
 Red. masses --      2.8208                 2.8285                 2.6954
 Frc consts  --      0.2913                 0.4224                 0.4960
 IR Inten    --      0.9280                19.2307                12.5564

                     10                     11                     12
                      A                      A                      A
 Frequencies --    563.3253               745.7823               850.8920
 Red. masses --      2.7937                 4.0397                 1.3649
 Frc consts  --      0.5223                 1.3238                 0.5822
 IR Inten    --      2.4044                18.1154                71.1600

                     13                     14                     15
                      A                      A                      A
 Frequencies --    897.1411               957.5261              1050.0095
 Red. masses --      1.5152                 2.3424                 1.5236
 Frc consts  --      0.7185                 1.2654                 0.9897
 IR Inten    --     97.7541                 5.1970                38.9928

                     16                     17                     18
                      A                      A                      A
 Frequencies --   1070.6655              1123.1129              1146.2386
 Red. masses --      1.5190                 1.4569                 1.2977
 Frc consts  --      1.0259                 1.0827                 1.0046
 IR Inten    --      1.4701                13.3573                 2.7443

                     19                     20                     21
                      A                      A                      A
 Frequencies --   1239.9735              1293.8678              1318.5004
 Red. masses --      2.1082                 2.0729                 1.5147
 Frc consts  --      1.9098                 2.0446                 1.5515
 IR Inten    --     39.1386                 1.2176                22.9823

                     22                     23                     24
                      A                      A                      A
 Frequencies --   1390.5359              1429.3746              1457.8275
 Red. masses --      1.6347                 1.6085                 1.3612
 Frc consts  --      1.8623                 1.9363                 1.7045
 IR Inten    --     99.4959                92.1423                39.6396

                     25                     26                     27
                      A                      A                      A
 Frequencies --   1486.4026              1504.8320              1507.0762
 Red. masses --      1.0860                 1.0572                 1.0516
 Frc consts  --      1.4137                 1.4106                 1.4073
 IR Inten    --      1.0393                 1.5776                16.7041

                     28                     29                     30
                      A                      A                      A
 Frequencies --   1524.3457              1681.5653              1705.6716
 Red. masses --      1.0542                 1.3992                 2.8629
 Frc consts  --      1.4432                 2.3310                 4.9074
 IR Inten    --     12.1242                72.3085               102.8481

                     31                     32                     33
                      A                      A                      A
 Frequencies --   2996.8340              3046.5283              3080.6871
 Red. masses --      1.0523                 1.0405                 1.0889
 Frc consts  --      5.5682                 5.6900                 6.0887
 IR Inten    --     54.0115                16.2404                30.2818

                     34                     35                     36
                      A                      A                      A
 Frequencies --   3101.9973              3171.3334              3177.1609
 Red. masses --      1.1004                 1.0975                 1.0986
 Frc consts  --      6.2387                 6.5033                 6.5338
 IR Inten    --     21.0208                 5.4394                 6.0566

                     37                     38                     39
                      A                      A                      A
 Frequencies --   3454.0316              3488.5996              3554.6422
 Red. masses --      1.0480                 1.0735                 1.0951
 Frc consts  --      7.3669                 7.6974                 8.1522
 IR Inten    --      7.1714                 7.1317                 0.3699

 - Thermochemistry -
 -------------------
 Temperature   298.150 Kelvin.  Pressure   1.00000 Atm.
 Atom     1 has atomic number  6 and mass  12.00000

 Molecular mass:    87.07965 amu.
 Principal axes and moments of inertia in atomic units:
                           1         2         3
     Eigenvalues --   374.03220 524.23813 860.09875
           X            0.98218   0.18793   0.00277
           Y           -0.18793   0.98218  -0.00124
           Z           -0.00295   0.00070   1.00000
 This molecule is an asymmetric top.
 Rotational symmetry number  1.
 Rotational temperatures (Kelvin)      0.23157     0.16522     0.10070
 Rotational constants (GHZ):           4.82510     3.44260     2.09830
 Zero-point vibrational energy     345645.3 (Joules/Mol)
                                   82.61121 (Kcal/Mol)
 Warning -- explicit consideration of  10 degrees of freedom as
           vibrations may cause significant error
 Vibrational temperatures:    128.68   239.51   271.81   287.89   448.64
          (Kelvin)            479.33   602.39   724.39   804.07   810.50
                             1073.01  1224.24  1290.78  1377.66  1510.73
                             1540.45  1615.91  1649.18  1784.04  1861.58
                             1897.03  2000.67  2056.55  2097.49  2138.60
                             2165.11  2168.34  2193.19  2419.39  2454.08
                             4311.77  4383.27  4432.42  4463.08  4562.84
                             4571.22  4969.57  5019.31  5114.33

 Zero-point correction=                           0.131649 (Hartree/Particle)
 Thermal correction to Energy=                    0.139096
 Thermal correction to Enthalpy=                  0.140040
 Thermal correction to Gibbs Free Energy=         0.100717
 Sum of electronic and zero-point Energies=           -283.826824
 Sum of electronic and thermal Energies=              -283.819377
 Sum of electronic and thermal Enthalpies=            -283.818433
 Sum of electronic and thermal Free Energies=         -283.857756

                     E (Thermal)             CV                S
                      KCal/Mol        Cal/Mol-Kelvin    Cal/Mol-Kelvin
 Total                   87.284             26.172             82.762
 Electronic               0.000              0.000              0.000
 Translational            0.889              2.981             39.306
 Rotational               0.889              2.981             26.625
 Vibrational             85.506             20.211             16.831
 Vibration     1          0.602              1.957              3.672
 Vibration     2          0.624              1.884              2.475
 Vibration     3          0.633              1.855              2.238
 Vibration     4          0.638              1.840              2.132
 Vibration     5          0.700              1.651              1.353
 Vibration     6          0.715              1.609              1.245
 Vibration     7          0.782              1.430              0.896
 Vibration     8          0.859              1.242              0.649
 Vibration     9          0.914              1.120              0.526
 Vibration    10          0.919              1.111              0.517

 Optimization completed.
    -- Stationary point found.
 Normal termination of Gaussian 09 at Sun Aug 22 16:33:22 2021.
