 Gaussian 09, Revision E.01,
 Gaussian 09:  ES64L-G09RevE.01 30-Nov-2015

 ----------------------------
 #P OPT Freq B3LYP/6-31G(d,p)
 ----------------------------

 --------
 Frag_827
 --------
 Symbolic Z-matrix:
 Charge =  0 Multiplicity = 1

 SCF Done:  E(RB3LYP) =  -316.363243712     A.U. after   15 cycles
 SCF Done:  E(RB3LYP) =  -316.363282529     A.U. after   13 cycles
 SCF Done:  E(RB3LYP) =  -316.361405556     A.U. after   14 cycles
 SCF Done:  E(RB3LYP) =  -316.363350351     A.U. after    9 cycles
 SCF Done:  E(RB3LYP) =  -316.363381158     A.U. after   10 cycles
 SCF Done:  E(RB3LYP) =  -316.363381747     A.U. after    8 cycles
 Optimization completed.
    -- Stationary point found.
 Normal termination of Gaussian 09 at Thu Sep  8 15:00:04 2022.

 ----------------------------------------------------------------------
 #P Geom=AllCheck Guess=TCheck SCRF=Check GenChk RB3LYP/6-31G(d,p) Freq
 ----------------------------------------------------------------------

 Structure from the checkpoint file:  "B3LYP6-31Gdp.Frag_827.chk"
 --------
 Frag_827
 --------
 Charge =  0 Multiplicity = 1

                         Standard orientation:
 ---------------------------------------------------------------------
 Center     Atomic      Atomic             Coordinates (Angstroms)
 Number     Number       Type             X           Y           Z
 ---------------------------------------------------------------------
      1          7           0       -1.800186   -0.071608    0.098371
      2          7           0       -0.597212   -0.697953   -0.195322
      3          7           0        0.596992    0.062825   -0.021296
      4          8           0        0.477714    1.280423   -0.026694
      5          8           0        1.624564   -0.594483    0.068272
      6          1           0       -2.051071    0.516867   -0.690865
      7          1           0       -1.710815    0.532239    0.916560
      8          1           0       -0.453493   -1.589477    0.269409
 ---------------------------------------------------------------------

 SCF Done:  E(RB3LYP) =  -316.363381747     A.U. after    1 cycles

 The electronic state is 1-A.
 Alpha  occ. eigenvalues --  -19.19487 -19.19104 -14.60307 -14.43728 -14.38985
 Alpha  occ. eigenvalues --   -1.25092  -1.07499  -1.02531  -0.84089  -0.67058
 Alpha  occ. eigenvalues --   -0.57427  -0.57257  -0.54830  -0.51695  -0.49927
 Alpha  occ. eigenvalues --   -0.34990  -0.32377  -0.31695  -0.30613  -0.29093
 Alpha virt. eigenvalues --   -0.05935   0.06607   0.08077   0.12099   0.14273
 Alpha virt. eigenvalues --    0.19308   0.26571   0.37559   0.57361   0.58140
 Alpha virt. eigenvalues --    0.61203   0.63317   0.65968   0.69447   0.71066

 Mulliken charges:
               1
     1  N   -0.431374
     2  N   -0.228100
     3  N    0.593263
     4  O   -0.400266
     5  O   -0.392598
     6  H    0.288168
     7  H    0.269438
     8  H    0.301469
 Sum of Mulliken charges =  -0.00000

 Dipole moment (field-independent basis, Debye):
    X=             -2.5464    Y=             -0.4552    Z=              0.6796  Tot=              2.6745
 Quadrupole moment (field-independent basis, Debye-Ang):
   XX=            -31.6814   YY=            -28.3299   ZZ=            -26.2817
   XY=             -2.3791   XZ=             -0.1260   YZ=             -0.9442

  Exact polarizability:  38.648  -3.459  32.736   0.904  -0.380  17.968
 Approx polarizability:  61.158 -11.247  62.543   3.035  -0.395  25.664

                      1                      2                      3
                      A                      A                      A
 Frequencies --    176.8451               316.3284               327.3730
 Red. masses --      2.5318                 1.4443                 3.5701
 Frc consts  --      0.0467                 0.0851                 0.2254
 IR Inten    --      3.3627                41.4533                22.5520

                      4                      5                      6
                      A                      A                      A
 Frequencies --    513.3206               594.6624               779.4294
 Red. masses --      3.5141                 2.9868                10.5218
 Frc consts  --      0.5456                 0.6223                 3.7661
 IR Inten    --     65.6125                59.3090                20.4651

                      7                      8                      9
                      A                      A                      A
 Frequencies --    792.4391               879.4529               984.3494
 Red. masses --      3.6495                 1.8279                 2.9870
 Frc consts  --      1.3502                 0.8330                 1.7052
 IR Inten    --     64.1241               124.8130                44.6233

                     10                     11                     12
                      A                      A                      A
 Frequencies --   1246.0578              1324.7977              1387.1171
 Red. masses --      2.8457                 1.3427                 5.8074
 Frc consts  --      2.6032                 1.3885                 6.5835
 IR Inten    --      8.4003                74.5831               172.9906

                     13                     14                     15
                      A                      A                      A
 Frequencies --   1430.0591              1712.9627              1717.9186
 Red. masses --      1.2009                 1.9663                 1.8050
 Frc consts  --      1.4470                 3.3994                 3.1386
 IR Inten    --     32.8165               192.3775                71.2296

                     16                     17                     18
                      A                      A                      A
 Frequencies --   3461.4736              3566.1221              3577.4428
 Red. masses --      1.0518                 1.0824                 1.0859
 Frc consts  --      7.4253                 8.1102                 8.1878
 IR Inten    --      1.6248                17.4430                25.8451

 - Thermochemistry -
 -------------------
 Temperature   298.150 Kelvin.  Pressure   1.00000 Atm.
 Atom     1 has atomic number  7 and mass  14.00307

 Molecular mass:    77.02253 amu.
 Principal axes and moments of inertia in atomic units:
                           1         2         3
     Eigenvalues --   157.33614 394.88756 536.82032
           X            0.99983  -0.01830  -0.00271
           Y            0.01828   0.99981  -0.00744
           Z            0.00285   0.00739   0.99997
 This molecule is an asymmetric top.
 Rotational symmetry number  1.
 Rotational temperatures (Kelvin)      0.55050     0.21934     0.16135
 Rotational constants (GHZ):          11.47061     4.57027     3.36191
 Zero-point vibrational energy     148266.1 (Joules/Mol)
                                   35.43644 (Kcal/Mol)
 Warning -- explicit consideration of   5 degrees of freedom as
           vibrations may cause significant error
 Vibrational temperatures:    254.44   455.13   471.02   738.55   855.59
          (Kelvin)           1121.42  1140.14  1265.33  1416.26  1792.80
                             1906.09  1995.75  2057.53  2464.57  2471.70
                             4980.28  5130.85  5147.14

 Zero-point correction=                           0.056472 (Hartree/Particle)
 Thermal correction to Energy=                    0.061372
 Thermal correction to Enthalpy=                  0.062316
 Thermal correction to Gibbs Free Energy=         0.028679
 Sum of electronic and zero-point Energies=           -316.306910
 Sum of electronic and thermal Energies=              -316.302010
 Sum of electronic and thermal Enthalpies=            -316.301066
 Sum of electronic and thermal Free Energies=         -316.334703

                     E (Thermal)             CV                S
                      KCal/Mol        Cal/Mol-Kelvin    Cal/Mol-Kelvin
 Total                   38.511             16.220             70.795
 Electronic               0.000              0.000              0.000
 Translational            0.889              2.981             38.940
 Rotational               0.889              2.981             25.015
 Vibrational             36.734             10.258              6.840
 Vibration     1          0.628              1.871              2.361
 Vibration     2          0.703              1.642              1.329
 Vibration     3          0.711              1.621              1.273
 Vibration     4          0.868              1.220              0.626
 Vibration     5          0.952              1.043              0.459

 Normal termination of Gaussian 09 at Thu Sep  8 15:00:11 2022.
