 Gaussian 09, Revision D.01,
 Gaussian 09:  ES64L-G09RevD.01 24-Apr-2013

 -------------------------
 #P OPT Freq B3LYP/6-31G**
 -------------------------

 -------
 Frag_35
 -------
 Symbolic Z-matrix:
 Charge =  0 Multiplicity = 1

 SCF Done:  E(RB3LYP) =  -194.363632995     A.U. after   12 cycles
 Optimization completed.
    -- Stationary point found.
 Normal termination of Gaussian 09 at Fri Jul 23 03:32:07 2021.

 ----------------------------------------------------------------------
 #P Geom=AllCheck Guess=TCheck SCRF=Check GenChk RB3LYP/6-31G(d,p) Freq
 ----------------------------------------------------------------------

 Structure from the checkpoint file:  "/vol2/users/liuj201281/HOFBenchmark/IsodesmicSplit/Sample60/Ring26/Running/Gau-250555.chk"
 -------
 Frag_35
 -------
 Charge =  0 Multiplicity = 1

                         Standard orientation:
 ---------------------------------------------------------------------
 Center     Atomic      Atomic             Coordinates (Angstroms)
 Number     Number       Type             X           Y           Z
 ---------------------------------------------------------------------
      1          6           0        1.543109   -0.508969    0.119991
      2          6           0        0.627695    0.644420   -0.298109
      3          6           0       -0.777104    0.544602    0.301091
      4          8           0       -1.454589   -0.657007   -0.054809
      5          1           0        1.091722   -1.470174   -0.140509
      6          1           0        1.708209   -0.504767    1.203391
      7          1           0        2.520409   -0.442556   -0.368009
      8          1           0        0.544094    0.677019   -1.394609
      9          1           0        1.064183    1.607225   -0.000409
     10          1           0       -1.368915    1.430594    0.020291
     11          1           0       -0.717304    0.530103    1.395191
     12          1           0       -1.567889   -0.651708   -1.014709
 ---------------------------------------------------------------------

 SCF Done:  E(RB3LYP) =  -194.363632995     A.U. after    1 cycles

 The electronic state is 1-A.
 Alpha  occ. eigenvalues --  -19.13967 -10.22606 -10.18307 -10.17068  -1.01082
 Alpha  occ. eigenvalues --   -0.77167  -0.67235  -0.59217  -0.48717  -0.45833
 Alpha  occ. eigenvalues --   -0.44650  -0.39862  -0.36765  -0.35798  -0.33655
 Alpha  occ. eigenvalues --   -0.31507  -0.26342
 Alpha virt. eigenvalues --    0.07430   0.11722   0.14128   0.14449   0.16321
 Alpha virt. eigenvalues --    0.16887   0.18482   0.19693   0.22850   0.23308
 Alpha virt. eigenvalues --    0.27191   0.51399   0.52147   0.54243   0.55092

 Mulliken charges:
               1
     1  C   -0.309760
     2  C   -0.197008
     3  C    0.060399
     4  O   -0.534130
     5  H    0.118155
     6  H    0.102831
     7  H    0.098302
     8  H    0.084486
     9  H    0.093006
    10  H    0.078144
    11  H    0.105094
    12  H    0.300481
 Sum of Mulliken charges =   0.00000

 Dipole moment (field-independent basis, Debye):
    X=              0.5071    Y=              1.0497    Z=             -1.1067  Tot=              1.6074
 Quadrupole moment (field-independent basis, Debye-Ang):
   XX=            -27.8595   YY=            -27.1479   ZZ=            -24.1058
   XY=             -1.1955   XZ=              2.3017   YZ=              1.3052

  Exact polarizability:  38.749  -0.401  36.450   0.820   0.683  36.462
 Approx polarizability:  47.001   1.798  48.832   1.241   0.963  50.698

                      1                      2                      3
                      A                      A                      A
 Frequencies --    156.2986               228.6167               300.9782
 Red. masses --      1.7863                 1.2711                 1.6209
 Frc consts  --      0.0257                 0.0391                 0.0865
 IR Inten    --      1.3783                 0.0731                67.3740

                      4                      5                      6
                      A                      A                      A
 Frequencies --    337.1877               495.6928               777.3452
 Red. masses --      1.2857                 2.1629                 1.2902
 Frc consts  --      0.0861                 0.3131                 0.4593
 IR Inten    --     63.7370                14.9399                 0.3975

                      7                      8                      9
                      A                      A                      A
 Frequencies --    865.6893               912.2265               989.4280
 Red. masses --      2.6948                 1.2514                 1.8286
 Frc consts  --      1.1899                 0.6135                 1.0547
 IR Inten    --      3.2136                10.0167                29.5905

                     10                     11                     12
                      A                      A                      A
 Frequencies --   1088.1637              1093.0868              1132.7164
 Red. masses --      2.0109                 1.5779                 2.1397
 Frc consts  --      1.4029                 1.1108                 1.6175
 IR Inten    --     81.0332                 3.0801                 8.5604

                     13                     14                     15
                      A                      A                      A
 Frequencies --   1248.5542              1307.0880              1381.6622
 Red. masses --      1.4063                 1.1668                 1.4180
 Frc consts  --      1.2917                 1.1745                 1.5949
 IR Inten    --      9.7660                 0.5938                 8.9361

                     16                     17                     18
                      A                      A                      A
 Frequencies --   1393.0728              1417.4353              1435.1360
 Red. masses --      1.2242                 1.2841                 1.2684
 Frc consts  --      1.3997                 1.5200                 1.5392
 IR Inten    --      2.1275                21.7361                20.8790

                     19                     20                     21
                      A                      A                      A
 Frequencies --   1497.0729              1508.2010              1523.1884
 Red. masses --      1.0783                 1.0483                 1.0720
 Frc consts  --      1.4239                 1.4050                 1.4654
 IR Inten    --      1.0397                 4.9385                 3.6243

                     22                     23                     24
                      A                      A                      A
 Frequencies --   1524.8781              2988.4119              3014.9431
 Red. masses --      1.0691                 1.0703                 1.0656
 Frc consts  --      1.4646                 5.6316                 5.7067
 IR Inten    --      2.8532                67.1889                40.4053

                     25                     26                     27
                      A                      A                      A
 Frequencies --   3045.7364              3055.1614              3082.7362
 Red. masses --      1.0397                 1.0938                 1.0948
 Frc consts  --      5.6825                 6.0151                 6.1300
 IR Inten    --     25.3027                25.2332                44.4950

                     28                     29                     30
                      A                      A                      A
 Frequencies --   3112.5218              3131.8992              3805.7005
 Red. masses --      1.1016                 1.1020                 1.0662
 Frc consts  --      6.2876                 6.3684                 9.0980
 IR Inten    --     45.2082                27.0134                10.0191

 - Thermochemistry -
 -------------------
 Temperature   298.150 Kelvin.  Pressure   1.00000 Atm.
 Atom     1 has atomic number  6 and mass  12.00000

 Molecular mass:    60.05751 amu.
 Principal axes and moments of inertia in atomic units:
                           1         2         3
     Eigenvalues --   127.95397 357.63625 421.73924
           X            0.99905  -0.04264   0.00881
           Y            0.04253   0.99902   0.01194
           Z           -0.00931  -0.01155   0.99989
 This molecule is an asymmetric top.
 Rotational symmetry number  1.
 Rotational temperatures (Kelvin)      0.67691     0.24218     0.20537
 Rotational constants (GHZ):          14.10461     5.04630     4.27928
 Zero-point vibrational energy     286211.5 (Joules/Mol)
                                   68.40619 (Kcal/Mol)
 Warning -- explicit consideration of   5 degrees of freedom as
           vibrations may cause significant error
 Vibrational temperatures:    224.88   328.93   433.04   485.14   713.19
          (Kelvin)           1118.42  1245.53  1312.49  1423.56  1565.62
                             1572.71  1629.72  1796.39  1880.61  1987.90
                             2004.32  2039.37  2064.84  2153.95  2169.96
                             2191.53  2193.96  4299.65  4337.83  4382.13
                             4395.69  4435.36  4478.22  4506.10  5475.55

 Zero-point correction=                           0.109012 (Hartree/Particle)
 Thermal correction to Energy=                    0.114399
 Thermal correction to Enthalpy=                  0.115343
 Thermal correction to Gibbs Free Energy=         0.081402
 Sum of electronic and zero-point Energies=           -194.254621
 Sum of electronic and thermal Energies=              -194.249234
 Sum of electronic and thermal Enthalpies=            -194.248290
 Sum of electronic and thermal Free Energies=         -194.282231

                     E (Thermal)             CV                S
                      KCal/Mol        Cal/Mol-Kelvin    Cal/Mol-Kelvin
 Total                   71.786             18.148             71.435
 Electronic               0.000              0.000              0.000
 Translational            0.889              2.981             38.198
 Rotational               0.889              2.981             24.471
 Vibrational             70.009             12.187              8.766
 Vibration     1          0.620              1.896              2.594
 Vibration     2          0.651              1.797              1.890
 Vibration     3          0.693              1.672              1.411
 Vibration     4          0.718              1.601              1.225
 Vibration     5          0.851              1.260              0.669

 Optimization completed.
    -- Stationary point found.
 Normal termination of Gaussian 09 at Fri Jul 23 03:32:17 2021.
