 Gaussian 09, Revision E.01,
 Gaussian 09:  ES64L-G09RevE.01 30-Nov-2015

 --------------------------------
 #P OPT=calcfc Freq B3LYP/6-31G**
 --------------------------------

 --------
 Frag_376
 --------
 Symbolic Z-matrix:
 Charge =  0 Multiplicity = 1

 SCF Done:  E(RB3LYP) =  -190.484195588     A.U. after   12 cycles
 SCF Done:  E(RB3LYP) =  -190.489740006     A.U. after   10 cycles
 SCF Done:  E(RB3LYP) =  -190.489905524     A.U. after    9 cycles
 SCF Done:  E(RB3LYP) =  -190.489910603     A.U. after    7 cycles
 Optimization completed.
    -- Stationary point found.
 Normal termination of Gaussian 09 at Fri Sep 10 19:29:36 2021.

 ----------------------------------------------------------------------
 #P Geom=AllCheck Guess=TCheck SCRF=Check GenChk RB3LYP/6-31G(d,p) Freq
 ----------------------------------------------------------------------

 Structure from the checkpoint file:  "/public/home/users/caep010/.cache/gau_scr/Gau-223710.chk"
 --------
 Frag_376
 --------
 Charge =  0 Multiplicity = 1

                         Standard orientation:
 ---------------------------------------------------------------------
 Center     Atomic      Atomic             Coordinates (Angstroms)
 Number     Number       Type             X           Y           Z
 ---------------------------------------------------------------------
      1          6           0       -1.828676    0.104651   -0.021739
      2          7           0       -0.510998   -0.499244    0.181746
      3          7           0        0.511000    0.499237   -0.181766
      4          6           0        1.828677   -0.104647    0.021756
      5          1           0       -2.011782    0.850975    0.760568
      6          1           0       -1.943923    0.599112   -0.998403
      7          1           0       -2.588479   -0.675085    0.084510
      8          1           0       -0.405312   -1.212877   -0.541556
      9          1           0        0.405294    1.212884    0.541518
     10          1           0        1.943909   -0.599083    0.998434
     11          1           0        2.588478    0.675090   -0.084500
     12          1           0        2.011799   -0.850990   -0.760529
 ---------------------------------------------------------------------

 SCF Done:  E(RB3LYP) =  -190.489910603     A.U. after    1 cycles

 The electronic state is 1-A.
 Alpha  occ. eigenvalues --  -14.33833 -14.33822 -10.19863 -10.19863  -0.95288
 Alpha  occ. eigenvalues --   -0.80286  -0.66112  -0.63872  -0.48427  -0.46935
 Alpha  occ. eigenvalues --   -0.43080  -0.41984  -0.38409  -0.37282  -0.35627
 Alpha  occ. eigenvalues --   -0.29595  -0.18830
 Alpha virt. eigenvalues --    0.08413   0.11680   0.12234   0.14612   0.15874
 Alpha virt. eigenvalues --    0.17561   0.17601   0.19336   0.20989   0.23596
 Alpha virt. eigenvalues --    0.23791   0.50368   0.52118   0.56305   0.59004

 Mulliken charges:
               1
     1  C   -0.168608
     2  N   -0.393488
     3  N   -0.393489
     4  C   -0.168606
     5  H    0.106798
     6  H    0.099491
     7  H    0.107502
     8  H    0.248305
     9  H    0.248304
    10  H    0.099491
    11  H    0.107502
    12  H    0.106798
 Sum of Mulliken charges =  -0.00000

 Dipole moment (field-independent basis, Debye):
    X=             -0.0000    Y=              0.0000    Z=              0.0000  Tot=              0.0000
 Quadrupole moment (field-independent basis, Debye-Ang):
   XX=            -23.7466   YY=            -25.4488   ZZ=            -27.9083
   XY=              0.2668   XZ=              0.7447   YZ=              3.3648

  Exact polarizability:  48.447   0.231  35.846   0.744   2.109  31.965
 Approx polarizability:  55.408   1.036  50.357   0.531   3.099  43.909

                      1                      2                      3
                      A                      A                      A
 Frequencies --     66.3401               235.5365               292.4430
 Red. masses --      2.3917                 1.0302                 1.2375
 Frc consts  --      0.0062                 0.0337                 0.0624
 IR Inten    --      7.3268                 1.0221                 0.0000

                      4                      5                      6
                      A                      A                      A
 Frequencies --    293.8848               476.3340               824.6880
 Red. masses --      2.4813                 2.9863                 3.0162
 Frc consts  --      0.1263                 0.3992                 1.2086
 IR Inten    --      5.2981                 0.0000                 0.0000

                      7                      8                      9
                      A                      A                      A
 Frequencies --    909.4985               971.6768              1051.9154
 Red. masses --      1.1185                 1.1210                 3.0649
 Frc consts  --      0.5451                 0.6236                 1.9982
 IR Inten    --    140.8749                 0.0000                21.3754

                     10                     11                     12
                      A                      A                      A
 Frequencies --   1114.0161              1114.1811              1158.1950
 Red. masses --      1.3669                 5.9382                 1.3848
 Frc consts  --      0.9995                 4.3432                 1.0945
 IR Inten    --     16.1548                 0.0004                11.1701

                     13                     14                     15
                      A                      A                      A
 Frequencies --   1191.6122              1302.8986              1430.8638
 Red. masses --      1.6131                 1.6136                 1.2117
 Frc consts  --      1.3495                 1.6139                 1.4616
 IR Inten    --      0.0000                 0.0000                 4.6134

                     16                     17                     18
                      A                      A                      A
 Frequencies --   1457.5628              1457.7103              1491.5336
 Red. masses --      1.1791                 1.1898                 1.0409
 Frc consts  --      1.4759                 1.4896                 1.3644
 IR Inten    --      4.6950                 0.0000                 0.0000

                     19                     20                     21
                      A                      A                      A
 Frequencies --   1496.2366              1529.8875              1531.1053
 Red. masses --      1.0370                 1.0461                 1.0606
 Frc consts  --      1.3678                 1.4426                 1.4650
 IR Inten    --     11.1051                20.5237                 0.0000

                     22                     23                     24
                      A                      A                      A
 Frequencies --   1545.0532              2994.7709              2997.6612
 Red. masses --      1.1087                 1.0444                 1.0458
 Frc consts  --      1.5594                 5.5190                 5.5370
 IR Inten    --      0.0000               141.3937                 0.0000

                     25                     26                     27
                      A                      A                      A
 Frequencies --   3069.7465              3069.8072              3118.9815
 Red. masses --      1.0925                 1.0928                 1.0998
 Frc consts  --      6.0657                 6.0677                 6.3039
 IR Inten    --     87.1559                 0.0225                54.3026

                     28                     29                     30
                      A                      A                      A
 Frequencies --   3119.0249              3443.6198              3462.7405
 Red. masses --      1.1000                 1.0746                 1.0749
 Frc consts  --      6.3052                 7.5082                 7.5939
 IR Inten    --      0.0114                 0.0000                 3.0077

 - Thermochemistry -
 -------------------
 Temperature   298.150 Kelvin.  Pressure   1.00000 Atm.
 Atom     1 has atomic number  6 and mass  12.00000

 Molecular mass:    60.06875 amu.
 Principal axes and moments of inertia in atomic units:
                           1         2         3
     Eigenvalues --    64.29947 434.69821 466.68065
           X            0.99990  -0.01322   0.00556
           Y            0.01228   0.98946   0.14428
           Z           -0.00740  -0.14420   0.98952
 This molecule is an asymmetric top.
 Rotational symmetry number  1.
 Rotational temperatures (Kelvin)      1.34704     0.19925     0.18560
 Rotational constants (GHZ):          28.06775     4.15171     3.86719
 Zero-point vibrational energy     288416.8 (Joules/Mol)
                                   68.93327 (Kcal/Mol)
 Warning -- explicit consideration of   5 degrees of freedom as
           vibrations may cause significant error
 Vibrational temperatures:     95.45   338.88   420.76   422.83   685.34
          (Kelvin)           1186.54  1308.56  1398.02  1513.47  1602.82
                             1603.06  1666.38  1714.46  1874.58  2058.69
                             2097.11  2097.32  2145.98  2152.75  2201.16
                             2202.92  2222.98  4308.80  4312.96  4416.67
                             4416.76  4487.51  4487.58  4954.59  4982.11

 Zero-point correction=                           0.109852 (Hartree/Particle)
 Thermal correction to Energy=                    0.115424
 Thermal correction to Enthalpy=                  0.116368
 Thermal correction to Gibbs Free Energy=         0.081757
 Sum of electronic and zero-point Energies=           -190.380058
 Sum of electronic and thermal Energies=              -190.374487
 Sum of electronic and thermal Enthalpies=            -190.373542
 Sum of electronic and thermal Free Energies=         -190.408154

                     E (Thermal)             CV                S
                      KCal/Mol        Cal/Mol-Kelvin    Cal/Mol-Kelvin
 Total                   72.430             17.974             72.846
 Electronic               0.000              0.000              0.000
 Translational            0.889              2.981             38.199
 Rotational               0.889              2.981             24.082
 Vibrational             70.652             12.012             10.565
 Vibration     1          0.598              1.970              4.259
 Vibration     2          0.655              1.786              1.836
 Vibration     3          0.688              1.688              1.460
 Vibration     4          0.689              1.685              1.451
 Vibration     5          0.833              1.303              0.720

 Optimization completed.
    -- Stationary point found.
 Normal termination of Gaussian 09 at Fri Sep 10 19:29:44 2021.
