 Gaussian 09, Revision E.01,
 Gaussian 09:  ES64L-G09RevE.01 30-Nov-2015

 --------------------------------
 #P OPT=calcfc Freq B3LYP/6-31G**
 --------------------------------

 --------
 Frag_341
 --------
 Symbolic Z-matrix:
 Charge =  0 Multiplicity = 1

 SCF Done:  E(RB3LYP) =  -286.504949464     A.U. after   16 cycles
 SCF Done:  E(RB3LYP) =  -286.517606229     A.U. after   14 cycles
 SCF Done:  E(RB3LYP) =  -286.519130631     A.U. after   14 cycles
 SCF Done:  E(RB3LYP) =  -286.519467462     A.U. after   13 cycles
 SCF Done:  E(RB3LYP) =  -286.519511613     A.U. after   13 cycles
 SCF Done:  E(RB3LYP) =  -286.519536318     A.U. after   11 cycles
 SCF Done:  E(RB3LYP) =  -286.519536883     A.U. after    8 cycles
 Optimization completed.
    -- Stationary point found.
 Normal termination of Gaussian 09 at Fri Sep 10 18:58:10 2021.

 ----------------------------------------------------------------------
 #P Geom=AllCheck Guess=TCheck SCRF=Check GenChk RB3LYP/6-31G(d,p) Freq
 ----------------------------------------------------------------------

 Structure from the checkpoint file:  "/public/home/users/caep010/.cache/gau_scr/Gau-115417.chk"
 --------
 Frag_341
 --------
 Charge =  0 Multiplicity = 1

                         Standard orientation:
 ---------------------------------------------------------------------
 Center     Atomic      Atomic             Coordinates (Angstroms)
 Number     Number       Type             X           Y           Z
 ---------------------------------------------------------------------
      1          6           0       -1.119350    1.417485   -0.000125
      2          6           0       -0.682987    0.159683   -0.000033
      3          6           0       -1.562535   -1.058051    0.000127
      4          7           0        0.781732   -0.027308   -0.000028
      5          6           0        1.286778   -1.239050   -0.000117
      6          8           0        1.498062    1.022190    0.000158
      7          1           0       -2.182037    1.628655   -0.000202
      8          1           0       -0.408778    2.233334   -0.000091
      9          1           0       -2.608324   -0.745236   -0.000305
     10          1           0       -1.399553   -1.682269    0.885572
     11          1           0       -1.399079   -1.682949   -0.884757
     12          1           0        0.646033   -2.103975   -0.000362
     13          1           0        2.363684   -1.314331   -0.000041
 ---------------------------------------------------------------------

 SCF Done:  E(RB3LYP) =  -286.519536883     A.U. after    1 cycles

 The electronic state is 1-A.
 Alpha  occ. eigenvalues --  -19.11287 -14.47911 -10.24247 -10.21983 -10.20826
 Alpha  occ. eigenvalues --  -10.19467  -1.09992  -0.86408  -0.80139  -0.71382
 Alpha  occ. eigenvalues --   -0.65267  -0.55018  -0.51093  -0.48233  -0.46641
 Alpha  occ. eigenvalues --   -0.43585  -0.42271  -0.42252  -0.40893  -0.37655
 Alpha  occ. eigenvalues --   -0.27232  -0.24115  -0.21847
 Alpha virt. eigenvalues --   -0.04674   0.04412   0.08771   0.10979   0.13856
 Alpha virt. eigenvalues --    0.15824   0.15917   0.16206   0.18062   0.21049
 Alpha virt. eigenvalues --    0.24209   0.30567   0.30915   0.35258   0.50261

 Mulliken charges:
               1
     1  C   -0.258576
     2  C    0.291818
     3  C   -0.391391
     4  N    0.063570
     5  C   -0.107397
     6  O   -0.510394
     7  H    0.106825
     8  H    0.154935
     9  H    0.127330
    10  H    0.134379
    11  H    0.134349
    12  H    0.118406
    13  H    0.136147
 Sum of Mulliken charges =  -0.00000

 Dipole moment (field-independent basis, Debye):
    X=             -2.6958    Y=             -2.5262    Z=             -0.0003  Tot=              3.6945
 Quadrupole moment (field-independent basis, Debye-Ang):
   XX=            -35.7463   YY=            -34.0909   ZZ=            -37.5632
   XY=             -4.2058   XZ=             -0.0005   YZ=             -0.0002

  Exact polarizability:  60.799  -9.590  76.251   0.002   0.001  26.900
 Approx polarizability:  81.943 -16.241 150.264   0.004   0.003  38.989

                      1                      2                      3
                      A                      A                      A
 Frequencies --     66.3454               254.9267               349.4776
 Red. masses --      3.7645                 1.0436                 3.1085
 Frc consts  --      0.0098                 0.0400                 0.2237
 IR Inten    --      4.3409                 0.2967                 4.0570

                      4                      5                      6
                      A                      A                      A
 Frequencies --    362.4899               425.8150               516.8115
 Red. masses --      2.6592                 2.5694                 3.0433
 Frc consts  --      0.2059                 0.2745                 0.4789
 IR Inten    --      0.7258                 1.6380                 4.7681

                      7                      8                      9
                      A                      A                      A
 Frequencies --    555.3977               592.2425               676.4475
 Red. masses --      3.7981                 1.5152                 1.2976
 Frc consts  --      0.6903                 0.3131                 0.3498
 IR Inten    --     10.5972                 5.5776                11.1354

                     10                     11                     12
                      A                      A                      A
 Frequencies --    761.1278               776.0417               806.0916
 Red. masses --      3.2185                 1.3319                 1.5771
 Frc consts  --      1.0985                 0.4726                 0.6038
 IR Inten    --      3.6749                47.2197                 4.8979

                     13                     14                     15
                      A                      A                      A
 Frequencies --    924.8847               961.8522              1024.6552
 Red. masses --      1.8509                 1.3307                 1.4149
 Frc consts  --      0.9328                 0.7254                 0.8752
 IR Inten    --      1.8716                37.7317                 3.8813

                     16                     17                     18
                      A                      A                      A
 Frequencies --   1075.6434              1101.2819              1243.0797
 Red. masses --      1.4516                 2.0215                 2.6030
 Frc consts  --      0.9896                 1.4445                 2.3699
 IR Inten    --      0.3205                29.8365                20.8233

                     19                     20                     21
                      A                      A                      A
 Frequencies --   1347.7151              1400.1741              1436.5127
 Red. masses --      2.8715                 1.1489                 1.3186
 Frc consts  --      3.0729                 1.3271                 1.6032
 IR Inten    --     18.5176                11.8434                14.5776

                     22                     23                     24
                      A                      A                      A
 Frequencies --   1465.6557              1495.7976              1512.2356
 Red. masses --      1.4217                 1.0423                 1.0669
 Frc consts  --      1.7994                 1.3740                 1.4375
 IR Inten    --     19.0804                 8.7528                 8.5231

                     25                     26                     27
                      A                      A                      A
 Frequencies --   1615.8412              1743.6065              3045.1862
 Red. masses --      4.8283                 6.0990                 1.0384
 Frc consts  --      7.4275                10.9246                 5.6733
 IR Inten    --    111.2532                 0.8436                12.4941

                     28                     29                     30
                      A                      A                      A
 Frequencies --   3102.7097              3144.1027              3191.7857
 Red. masses --      1.1016                 1.0997                 1.0607
 Frc consts  --      6.2481                 6.4048                 6.3664
 IR Inten    --     13.7158                10.2179                 7.1988

                     31                     32                     33
                      A                      A                      A
 Frequencies --   3226.3964              3296.5221              3355.0988
 Red. masses --      1.0518                 1.1171                 1.1242
 Frc consts  --      6.4509                 7.1523                 7.4563
 IR Inten    --      2.0916                 1.3263                 0.1906

 - Thermochemistry -
 -------------------
 Temperature   298.150 Kelvin.  Pressure   1.00000 Atm.
 Atom     1 has atomic number  6 and mass  12.00000

 Molecular mass:    85.05276 amu.
 Principal axes and moments of inertia in atomic units:
                           1         2         3
     Eigenvalues --   337.43847 490.89525 817.05418
           X            0.99887  -0.04760  -0.00000
           Y            0.04760   0.99887  -0.00000
           Z            0.00000   0.00000   1.00000
 This molecule is an asymmetric top.
 Rotational symmetry number  1.
 Rotational temperatures (Kelvin)      0.25668     0.17644     0.10601
 Rotational constants (GHZ):           5.34836     3.67643     2.20884
 Zero-point vibrational energy     280248.9 (Joules/Mol)
                                   66.98109 (Kcal/Mol)
 Warning -- explicit consideration of   8 degrees of freedom as
           vibrations may cause significant error
 Vibrational temperatures:     95.46   366.78   502.82   521.54   612.65
          (Kelvin)            743.58   799.09   852.10   973.26  1095.09
                             1116.55  1159.78  1330.70  1383.89  1474.25
                             1547.61  1584.50  1788.51  1939.06  2014.54
                             2066.82  2108.75  2152.12  2175.77  2324.83
                             2508.66  4381.34  4464.10  4523.66  4592.26
                             4642.06  4742.95  4827.23

 Zero-point correction=                           0.106741 (Hartree/Particle)
 Thermal correction to Energy=                    0.113021
 Thermal correction to Enthalpy=                  0.113966
 Thermal correction to Gibbs Free Energy=         0.076925
 Sum of electronic and zero-point Energies=           -286.412796
 Sum of electronic and thermal Energies=              -286.406515
 Sum of electronic and thermal Enthalpies=            -286.405571
 Sum of electronic and thermal Free Energies=         -286.442612

                     E (Thermal)             CV                S
                      KCal/Mol        Cal/Mol-Kelvin    Cal/Mol-Kelvin
 Total                   70.922             23.176             77.959
 Electronic               0.000              0.000              0.000
 Translational            0.889              2.981             39.235
 Rotational               0.889              2.981             26.406
 Vibrational             69.145             17.214             12.318
 Vibration     1          0.598              1.970              4.259
 Vibration     2          0.665              1.754              1.696
 Vibration     3          0.727              1.576              1.169
 Vibration     4          0.736              1.550              1.111
 Vibration     5          0.788              1.414              0.872
 Vibration     6          0.872              1.213              0.617
 Vibration     7          0.911              1.128              0.533
 Vibration     8          0.950              1.048              0.463

 Optimization completed.
    -- Stationary point found.
 Normal termination of Gaussian 09 at Fri Sep 10 18:58:20 2021.
