 Gaussian 09, Revision D.01,
 Gaussian 09:  ES64L-G09RevD.01 24-Apr-2013

 -------------------------
 #P OPT Freq B3LYP/6-31G**
 -------------------------

 -------
 Frag_23
 -------
 Symbolic Z-matrix:
 Charge =  0 Multiplicity = 1

 SCF Done:  E(RB3LYP) =  -155.032965254     A.U. after   11 cycles
 Optimization completed.
    -- Stationary point found.

 1\1\GINC-FN16\FOpt\RB3LYP\6-31G(d,p)\C2H6O1\LIUJ201281\23-Jul-2021\0\\
 #P OPT Freq B3LYP/6-31G**\\Frag_23\\0,1\C,0.,1.1718,-0.1952\O,0.,0.,0.
 5904\C,0.,-1.1718,-0.1952\H,0.,2.0237,0.4891\H,0.8917,1.2346,-0.8398\H
 ,-0.8917,1.2346,-0.8398\H,0.,-2.0237,0.4891\H,-0.8917,-1.2346,-0.8398\
 H,0.8917,-1.2346,-0.8398\\Version=ES64L-G09RevD.01\State=1-A1\HF=-155.
 0329653\RMSD=9.367e-09\RMSF=7.043e-05\Dipole=0.,0.,-0.5023806\Quadrupo
 le=-0.5531361,1.7249604,-1.1718242,0.,0.,0.\PG=C02V [C2(O1),SGV(C2H2),
 X(H4)]\\@

 Normal termination of Gaussian 09 at Fri Jul 23 02:41:09 2021.

 ----------------------------------------------------------------------
 #P Geom=AllCheck Guess=TCheck SCRF=Check GenChk RB3LYP/6-31G(d,p) Freq
 ----------------------------------------------------------------------

 Structure from the checkpoint file:  "/vol2/users/liuj201281/HOFBenchmark/IsodesmicSplit/Sample60/Ring26/Running/Gau-542649.chk"
 -------
 Frag_23
 -------
 Charge =  0 Multiplicity = 1

                         Standard orientation:
 ---------------------------------------------------------------------
 Center     Atomic      Atomic             Coordinates (Angstroms)
 Number     Number       Type             X           Y           Z
 ---------------------------------------------------------------------
      1          6           0        0.000000    1.171800   -0.195192
      2          8           0        0.000000    0.000000    0.590408
      3          6           0        0.000000   -1.171800   -0.195192
      4          1           0        0.000000    2.023700    0.489108
      5          1           0        0.891700    1.234600   -0.839792
      6          1           0       -0.891700    1.234600   -0.839792
      7          1           0        0.000000   -2.023700    0.489108
      8          1           0       -0.891700   -1.234600   -0.839792
      9          1           0        0.891700   -1.234600   -0.839792
 ---------------------------------------------------------------------

 SCF Done:  E(RB3LYP) =  -155.032965254     A.U. after    1 cycles

 The electronic state is 1-A1.
 Alpha  occ. eigenvalues --  -19.14537 -10.22480 -10.22480  -1.02743  -0.71802
 Alpha  occ. eigenvalues --   -0.63540  -0.47355  -0.46675  -0.46506  -0.39244
 Alpha  occ. eigenvalues --   -0.37449  -0.31464  -0.25171
 Alpha virt. eigenvalues --    0.09227   0.14019   0.14858   0.15189   0.16664
 Alpha virt. eigenvalues --    0.18481   0.18740   0.24471   0.52226   0.52759
 Alpha virt. eigenvalues --    0.54324   0.56171   0.57929   0.71497   0.80741

 Mulliken charges:
               1
     1  C   -0.058792
     2  O   -0.465252
     3  C   -0.058792
     4  H    0.114979
     5  H    0.088220
     6  H    0.088220
     7  H    0.114979
     8  H    0.088220
     9  H    0.088220
 Sum of Mulliken charges =   0.00000

 Dipole moment (field-independent basis, Debye):
    X=              0.0000    Y=              0.0000    Z=             -1.2769  Tot=              1.2769
 Quadrupole moment (field-independent basis, Debye-Ang):
   XX=            -20.0771   YY=            -17.0129   ZZ=            -20.9092
   XY=              0.0000   XZ=              0.0000   YZ=              0.0000

  Exact polarizability:  24.885   0.000  31.677   0.000   0.000  24.608
 Approx polarizability:  32.179   0.000  36.647   0.000   0.000  34.133

                      1                      2                      3
                     A2                     B1                     A1
 Frequencies --    220.3288               247.4796               413.9964
 Red. masses --      1.0316                 1.2989                 2.2538
 Frc consts  --      0.0295                 0.0469                 0.2276
 IR Inten    --      0.0000                 6.2010                 2.6724

                      4                      5                      6
                     A1                     B2                     A2
 Frequencies --    953.7043              1130.3529              1167.1500
 Red. masses --      4.1121                 1.6583                 1.2170
 Frc consts  --      2.2037                 1.2484                 0.9767
 IR Inten    --     34.1833                34.7847                 0.0000

                      7                      8                      9
                     B1                     B2                     A1
 Frequencies --   1202.6623              1208.5527              1272.0672
 Red. masses --      1.3611                 3.3206                 1.5837
 Frc consts  --      1.1599                 2.8576                 1.5099
 IR Inten    --      6.1642               109.7416                 4.7664

                     10                     11                     12
                     B2                     A2                     B1
 Frequencies --   1471.8223              1493.0299              1502.4608
 Red. masses --      1.1205                 1.0451                 1.0487
 Frc consts  --      1.4301                 1.3726                 1.3948
 IR Inten    --     10.4393                 0.0000                 9.1956

                     13                     14                     15
                     A1                     B2                     A1
 Frequencies --   1503.5453              1511.1236              1534.7158
 Red. masses --      1.1377                 1.0500                 1.0835
 Frc consts  --      1.5153                 1.4127                 1.5036
 IR Inten    --      0.0569                13.3664                 0.3908

                     16                     17                     18
                     B2                     A1                     B1
 Frequencies --   2967.4558              2982.4956              3017.6998
 Red. masses --      1.0362                 1.0386                 1.1028
 Frc consts  --      5.3760                 5.4434                 5.9169
 IR Inten    --     58.4172                60.8682               154.8134

                     19                     20                     21
                     A2                     B2                     A1
 Frequencies --   3021.0559              3126.3915              3128.0249
 Red. masses --      1.1055                 1.0958                 1.0967
 Frc consts  --      5.9447                 6.3106                 6.3223
 IR Inten    --      0.0000                35.0009                29.7761

 - Thermochemistry -
 -------------------
 Temperature   298.150 Kelvin.  Pressure   1.00000 Atm.
 Atom     1 has atomic number  6 and mass  12.00000

 Molecular mass:    46.04186 amu.
 Principal axes and moments of inertia in atomic units:
                           1         2         3
     Eigenvalues --    46.06570 180.55176 203.72405
           X            0.00000   0.00000   1.00000
           Y            1.00000   0.00000   0.00000
           Z            0.00000   1.00000   0.00000
 This molecule is an asymmetric top.
 Rotational symmetry number  2.
 Rotational temperatures (Kelvin)      1.88022     0.47972     0.42515
 Rotational constants (GHZ):          39.17755     9.99570     8.85875
 Zero-point vibrational energy     209801.8 (Joules/Mol)
                                   50.14382 (Kcal/Mol)
 Warning -- explicit consideration of   3 degrees of freedom as
           vibrations may cause significant error
 Vibrational temperatures:    317.00   356.07   595.65  1372.17  1626.32
          (Kelvin)           1679.27  1730.36  1738.84  1830.22  2117.62
                             2148.13  2161.70  2163.26  2174.17  2208.11
                             4269.50  4291.14  4341.79  4346.62  4498.17
                             4500.52

 Zero-point correction=                           0.079909 (Hartree/Particle)
 Thermal correction to Energy=                    0.084217
 Thermal correction to Enthalpy=                  0.085161
 Thermal correction to Gibbs Free Energy=         0.055182
 Sum of electronic and zero-point Energies=           -154.953056
 Sum of electronic and thermal Energies=              -154.948748
 Sum of electronic and thermal Enthalpies=            -154.947804
 Sum of electronic and thermal Free Energies=         -154.977783

                     E (Thermal)             CV                S
                      KCal/Mol        Cal/Mol-Kelvin    Cal/Mol-Kelvin
 Total                   52.847             12.903             63.097
 Electronic               0.000              0.000              0.000
 Translational            0.889              2.981             37.406
 Rotational               0.889              2.981             20.677
 Vibrational             51.070              6.942              5.014
 Vibration     1          0.647              1.810              1.956
 Vibration     2          0.661              1.767              1.748
 Vibration     3          0.778              1.440              0.913

 Optimization completed.
    -- Stationary point found.

 1\1\GINC-FN16\Freq\RB3LYP\6-31G(d,p)\C2H6O1\LIUJ201281\23-Jul-2021\0\\
 #P Geom=AllCheck Guess=TCheck SCRF=Check GenChk RB3LYP/6-31G(d,p) Freq
 \\Frag_23\\0,1\C,0.,1.1718,-0.1952\O,0.,0.,0.5904\C,0.,-1.1718,-0.1952
 \H,0.,2.0237,0.4891\H,0.8917,1.2346,-0.8398\H,-0.8917,1.2346,-0.8398\H
 ,0.,-2.0237,0.4891\H,-0.8917,-1.2346,-0.8398\H,0.8917,-1.2346,-0.8398\
 \Version=ES64L-G09RevD.01\State=1-A1\HF=-155.0329653\RMSD=6.693e-09\RM
 SF=7.039e-05\ZeroPoint=0.0799093\Thermal=0.0842172\Dipole=0.,0.,-0.502
 3815\DipoleDeriv=0.4399649,0.,0.,0.,0.7207772,-0.1552214,0.,-0.3356,0.

 Normal termination of Gaussian 09 at Fri Jul 23 02:41:17 2021.
