 Gaussian 09, Revision E.01,
 Gaussian 09:  ES64L-G09RevE.01 30-Nov-2015

 ----------------------------
 #P OPT Freq B3LYP/6-31G(d,p)
 ----------------------------

 --------
 Frag_998
 --------
 Symbolic Z-matrix:
 Charge =  0 Multiplicity = 1

 SCF Done:  E(RB3LYP) =  -323.707546741     A.U. after   13 cycles
 SCF Done:  E(RB3LYP) =  -323.707628486     A.U. after   11 cycles
 SCF Done:  E(RB3LYP) =  -323.707635615     A.U. after    8 cycles
 SCF Done:  E(RB3LYP) =  -323.707638863     A.U. after   10 cycles
 SCF Done:  E(RB3LYP) =  -323.707640751     A.U. after    8 cycles
 SCF Done:  E(RB3LYP) =  -323.707641311     A.U. after    7 cycles
 SCF Done:  E(RB3LYP) =  -323.707642224     A.U. after    8 cycles
 SCF Done:  E(RB3LYP) =  -323.707642559     A.U. after    8 cycles
 SCF Done:  E(RB3LYP) =  -323.707642980     A.U. after    8 cycles
 SCF Done:  E(RB3LYP) =  -323.707643289     A.U. after    8 cycles
 SCF Done:  E(RB3LYP) =  -323.707643334     A.U. after    7 cycles
 Optimization completed.
    -- Stationary point found.
 Normal termination of Gaussian 09 at Thu Sep  8 15:08:25 2022.

 ----------------------------------------------------------------------
 #P Geom=AllCheck Guess=TCheck SCRF=Check GenChk RB3LYP/6-31G(d,p) Freq
 ----------------------------------------------------------------------

 Structure from the checkpoint file:  "B3LYP6-31Gdp.Frag_998.chk"
 --------
 Frag_998
 --------
 Charge =  0 Multiplicity = 1

                         Standard orientation:
 ---------------------------------------------------------------------
 Center     Atomic      Atomic             Coordinates (Angstroms)
 Number     Number       Type             X           Y           Z
 ---------------------------------------------------------------------
      1          6           0       -1.897521   -0.618661    0.416069
      2          6           0       -0.817996    0.090886    0.065923
      3          8           0       -0.873867    1.237403   -0.649948
      4          6           0        0.601641   -0.373813    0.374271
      5          7           0        1.461700    0.804595    0.480547
      6          8           0        1.145960   -1.115664   -0.710151
      7          1           0       -1.785060   -1.526478    0.997365
      8          1           0       -2.896341   -0.308531    0.133503
      9          1           0        0.045189    1.585796   -0.617000
     10          1           0        0.594511   -0.991036    1.288023
     11          1           0        1.478373    1.154940    1.434747
     12          1           0        2.407793    0.539885    0.220515
     13          1           0        0.430154   -1.651134   -1.077765
 ---------------------------------------------------------------------

 SCF Done:  E(RB3LYP) =  -323.707643334     A.U. after    1 cycles

 The electronic state is 1-A.
 Alpha  occ. eigenvalues --  -19.15727 -19.15642 -14.34226 -10.27746 -10.23726
 Alpha  occ. eigenvalues --  -10.16431  -1.05364  -1.02919  -0.89314  -0.75627
 Alpha  occ. eigenvalues --   -0.66146  -0.56787  -0.55452  -0.51074  -0.48273
 Alpha  occ. eigenvalues --   -0.44751  -0.43021  -0.40359  -0.39356  -0.35905
 Alpha  occ. eigenvalues --   -0.33738  -0.29395  -0.26756  -0.22058
 Alpha virt. eigenvalues --    0.02806   0.06845   0.10314   0.12475   0.13787
 Alpha virt. eigenvalues --    0.15310   0.16274   0.19129   0.21019   0.23426
 Alpha virt. eigenvalues --    0.28220   0.33236   0.36404   0.52427   0.54628

 Mulliken charges:
               1
     1  C   -0.329164
     2  C    0.362561
     3  O   -0.544885
     4  C    0.232215
     5  N   -0.634553
     6  O   -0.537122
     7  H    0.087921
     8  H    0.103769
     9  H    0.336533
    10  H    0.080689
    11  H    0.256909
    12  H    0.270223
    13  H    0.314905
 Sum of Mulliken charges =  -0.00000

 Dipole moment (field-independent basis, Debye):
    X=              1.5523    Y=             -0.7608    Z=              1.6425  Tot=              2.3847
 Quadrupole moment (field-independent basis, Debye-Ang):
   XX=            -35.8240   YY=            -35.0382   ZZ=            -34.7868
   XY=              4.2937   XZ=              2.3600   YZ=              1.8205

  Exact polarizability:  57.645   7.834  44.539  -2.230  -3.695  36.020
 Approx polarizability:  78.795  13.950  65.909  -6.859  -8.070  52.625

                      1                      2                      3
                      A                      A                      A
 Frequencies --     53.7407               220.7814               255.9114
 Red. masses --      3.6798                 1.2369                 3.0563
 Frc consts  --      0.0063                 0.0355                 0.1179
 IR Inten    --      7.6693                36.6176                18.3223

                      4                      5                      6
                      A                      A                      A
 Frequencies --    287.0127               319.4870               392.5031
 Red. masses --      1.1896                 3.4674                 2.7203
 Frc consts  --      0.0577                 0.2085                 0.2469
 IR Inten    --     52.3181                22.1528                 9.7637

                      7                      8                      9
                      A                      A                      A
 Frequencies --    490.2455               646.7902               682.1242
 Red. masses --      2.7998                 3.7766                 3.9811
 Frc consts  --      0.3965                 0.9309                 1.0914
 IR Inten    --     10.0111                 9.5272                10.5015

                     10                     11                     12
                      A                      A                      A
 Frequencies --    708.2572               780.7783               827.9466
 Red. masses --      1.1849                 1.0794                 1.5238
 Frc consts  --      0.3502                 0.3877                 0.6155
 IR Inten    --     14.8900                57.9847                95.5807

                     13                     14                     15
                      A                      A                      A
 Frequencies --    832.5975               956.8092               988.7342
 Red. masses --      1.7941                 1.7049                 2.1723
 Frc consts  --      0.7328                 0.9196                 1.2512
 IR Inten    --     20.6921               120.9271                29.0509

                     16                     17                     18
                      A                      A                      A
 Frequencies --    998.8105              1065.5800              1228.8069
 Red. masses --      2.5361                 2.9883                 1.3197
 Frc consts  --      1.4907                 1.9992                 1.1741
 IR Inten    --     64.4327               112.1903                 6.8023

                     19                     20                     21
                      A                      A                      A
 Frequencies --   1261.6003              1295.9567              1382.8054
 Red. masses --      1.4683                 1.3824                 1.3038
 Frc consts  --      1.3769                 1.3679                 1.4688
 IR Inten    --     43.0028                31.3819                34.5682

                     22                     23                     24
                      A                      A                      A
 Frequencies --   1415.6093              1432.7192              1465.3735
 Red. masses --      1.9736                 1.4835                 1.2108
 Frc consts  --      2.3302                 1.7942                 1.5319
 IR Inten    --    135.0338               159.1125                76.2537

                     25                     26                     27
                      A                      A                      A
 Frequencies --   1639.6855              1756.7165              2974.0166
 Red. masses --      1.1024                 5.0797                 1.0850
 Frc consts  --      1.7463                 9.2362                 5.6543
 IR Inten    --     39.6813                73.0490                75.1670

                     28                     29                     30
                      A                      A                      A
 Frequencies --   3180.3751              3271.9760              3510.5587
 Red. masses --      1.0596                 1.1175                 1.0511
 Frc consts  --      6.3147                 7.0488                 7.6323
 IR Inten    --      0.3937                 6.4901                64.8426

                     31                     32                     33
                      A                      A                      A
 Frequencies --   3522.1233              3605.6293              3821.4255
 Red. masses --      1.0625                 1.0940                 1.0663
 Frc consts  --      7.7662                 8.3799                 9.1748
 IR Inten    --    204.3224                 8.8668                28.6341

 - Thermochemistry -
 -------------------
 Temperature   298.150 Kelvin.  Pressure   1.00000 Atm.
 Atom     1 has atomic number  6 and mass  12.00000

 Molecular mass:    89.04768 amu.
 Principal axes and moments of inertia in atomic units:
                           1         2         3
     Eigenvalues --   349.71780 598.36410 746.89614
           X            0.99701   0.07694   0.00654
           Y           -0.07690   0.99702  -0.00616
           Z           -0.00699   0.00564   0.99996
 This molecule is an asymmetric top.
 Rotational symmetry number  1.
 Rotational temperatures (Kelvin)      0.24767     0.14475     0.11597
 Rotational constants (GHZ):           5.16056     3.01613     2.41632
 Zero-point vibrational energy     282758.2 (Joules/Mol)
                                   67.58084 (Kcal/Mol)
 Warning -- explicit consideration of   7 degrees of freedom as
           vibrations may cause significant error
 Vibrational temperatures:     77.32   317.65   368.20   412.95   459.67
          (Kelvin)            564.72   705.35   930.59   981.42  1019.02
                             1123.36  1191.23  1197.92  1376.63  1422.57
                             1437.06  1533.13  1767.98  1815.16  1864.59
                             1989.55  2036.74  2061.36  2108.34  2359.14
                             2527.52  4278.94  4575.84  4707.64  5050.90
                             5067.54  5187.69  5498.17

 Zero-point correction=                           0.107697 (Hartree/Particle)
 Thermal correction to Energy=                    0.114553
 Thermal correction to Enthalpy=                  0.115497
 Thermal correction to Gibbs Free Energy=         0.077080
 Sum of electronic and zero-point Energies=           -323.599946
 Sum of electronic and thermal Energies=              -323.593090
 Sum of electronic and thermal Enthalpies=            -323.592146
 Sum of electronic and thermal Free Energies=         -323.630563

                     E (Thermal)             CV                S
                      KCal/Mol        Cal/Mol-Kelvin    Cal/Mol-Kelvin
 Total                   71.883             24.569             80.856
 Electronic               0.000              0.000              0.000
 Translational            0.889              2.981             39.372
 Rotational               0.889              2.981             26.549
 Vibrational             70.106             18.607             14.934
 Vibration     1          0.596              1.976              4.675
 Vibration     2          0.647              1.809              1.953
 Vibration     3          0.666              1.753              1.690
 Vibration     4          0.684              1.698              1.492
 Vibration     5          0.705              1.636              1.313
 Vibration     6          0.760              1.486              0.991
 Vibration     7          0.846              1.272              0.683

 Optimization completed.
    -- Stationary point found.
 Normal termination of Gaussian 09 at Thu Sep  8 15:08:36 2022.
