 Gaussian 09, Revision E.01,
 Gaussian 09:  ES64L-G09RevE.01 30-Nov-2015

 ----------------------------
 #P OPT Freq B3LYP/6-31G(d,p)
 ----------------------------

 --------
 Frag_710
 --------
 Symbolic Z-matrix:
 Charge =  0 Multiplicity = 1

 SCF Done:  E(RB3LYP) =  -283.910209898     A.U. after   13 cycles
 SCF Done:  E(RB3LYP) =  -283.910259822     A.U. after    9 cycles
 SCF Done:  E(RB3LYP) =  -283.910264589     A.U. after    8 cycles
 SCF Done:  E(RB3LYP) =  -283.910266184     A.U. after    8 cycles
 SCF Done:  E(RB3LYP) =  -283.910267108     A.U. after    7 cycles
 SCF Done:  E(RB3LYP) =  -283.910267462     A.U. after    7 cycles
 SCF Done:  E(RB3LYP) =  -283.910267685     A.U. after    7 cycles
 Optimization completed.
    -- Stationary point found.
 Normal termination of Gaussian 09 at Thu Sep  8 15:24:06 2022.

 ----------------------------------------------------------------------
 #P Geom=AllCheck Guess=TCheck SCRF=Check GenChk RB3LYP/6-31G(d,p) Freq
 ----------------------------------------------------------------------

 Structure from the checkpoint file:  "B3LYP6-31Gdp.Frag_710.chk"
 --------
 Frag_710
 --------
 Charge =  0 Multiplicity = 1

                         Standard orientation:
 ---------------------------------------------------------------------
 Center     Atomic      Atomic             Coordinates (Angstroms)
 Number     Number       Type             X           Y           Z
 ---------------------------------------------------------------------
      1          6           0       -1.087263    1.494314    0.167861
      2          6           0       -0.675569    0.227046   -0.025076
      3          6           0       -1.661862   -0.913465   -0.111785
      4          7           0        0.672167   -0.126533   -0.250993
      5          7           0        1.131994   -1.381173    0.215141
      6          7           0        1.656613    0.869000   -0.080424
      7          1           0       -2.144354    1.710548    0.258991
      8          1           0       -0.409973    2.337316    0.204163
      9          1           0       -1.548439   -1.629683    0.709438
     10          1           0       -2.682844   -0.529778   -0.080638
     11          1           0       -1.533669   -1.470723   -1.046966
     12          1           0        0.728772   -1.612455    1.122864
     13          1           0        0.868829   -2.099835   -0.451698
     14          1           0        1.576245    1.515542   -0.862150
     15          1           0        1.468180    1.402645    0.773921
 ---------------------------------------------------------------------

 SCF Done:  E(RB3LYP) =  -283.910267685     A.U. after    1 cycles

 The electronic state is 1-A.
 Alpha  occ. eigenvalues --  -14.38858 -14.34539 -14.34012 -10.22188 -10.19054
 Alpha  occ. eigenvalues --  -10.16138  -1.01119  -0.86680  -0.80122  -0.70283
 Alpha  occ. eigenvalues --   -0.68092  -0.56846  -0.51754  -0.49082  -0.48559
 Alpha  occ. eigenvalues --   -0.46500  -0.42069  -0.41067  -0.39819  -0.36213
 Alpha  occ. eigenvalues --   -0.29827  -0.26036  -0.25090  -0.20353
 Alpha virt. eigenvalues --    0.03409   0.06844   0.09948   0.11836   0.12634
 Alpha virt. eigenvalues --    0.15143   0.16543   0.17186   0.18630   0.20325
 Alpha virt. eigenvalues --    0.22435   0.23771   0.25926   0.35166   0.38526

 Mulliken charges:
               1
     1  C   -0.329698
     2  C    0.339149
     3  C   -0.373267
     4  N   -0.296341
     5  N   -0.422433
     6  N   -0.413062
     7  H    0.086836
     8  H    0.068715
     9  H    0.107900
    10  H    0.119735
    11  H    0.121580
    12  H    0.239960
    13  H    0.259324
    14  H    0.258853
    15  H    0.232747
 Sum of Mulliken charges =  -0.00000

 Dipole moment (field-independent basis, Debye):
    X=             -1.8806    Y=             -0.4590    Z=              0.3408  Tot=              1.9656
 Quadrupole moment (field-independent basis, Debye-Ang):
   XX=            -43.2824   YY=            -31.8293   ZZ=            -36.7787
   XY=              3.5009   XZ=             -0.1455   YZ=             -0.3056

  Exact polarizability:  57.224  -3.334  68.884  -0.952   1.865  37.159
 Approx polarizability:  76.772 -10.668 101.836  -3.318   5.044  54.962

                      1                      2                      3
                      A                      A                      A
 Frequencies --     88.9962               191.8412               258.1202
 Red. masses --      3.2856                 1.0417                 2.9666
 Frc consts  --      0.0153                 0.0226                 0.1165
 IR Inten    --      1.4712                 1.3065                26.9556

                      4                      5                      6
                      A                      A                      A
 Frequencies --    292.5701               328.6246               362.4027
 Red. masses --      1.2697                 2.2462                 1.0760
 Frc consts  --      0.0640                 0.1429                 0.0833
 IR Inten    --     14.5243                 7.6262                72.6456

                      7                      8                      9
                      A                      A                      A
 Frequencies --    428.3465               524.9968               531.6426
 Red. masses --      2.7464                 2.7042                 2.5709
 Frc consts  --      0.2969                 0.4391                 0.4281
 IR Inten    --      4.1933                 0.9831                 3.4546

                     10                     11                     12
                      A                      A                      A
 Frequencies --    547.0609               734.0435               744.4362
 Red. masses --      2.5654                 1.2609                 2.9753
 Frc consts  --      0.4524                 0.4003                 0.9715
 IR Inten    --     12.3628                20.6982                58.6144

                     13                     14                     15
                      A                      A                      A
 Frequencies --    811.0322               816.5894               929.5117
 Red. masses --      1.7866                 1.3707                 1.8915
 Frc consts  --      0.6924                 0.5385                 0.9629
 IR Inten    --     23.3760                50.5505                 3.8266

                     16                     17                     18
                      A                      A                      A
 Frequencies --    973.7354              1022.7079              1073.1682
 Red. masses --      1.4677                 1.3921                 1.5059
 Frc consts  --      0.8199                 0.8579                 1.0218
 IR Inten    --    212.7381                 2.3111                 1.1953

                     19                     20                     21
                      A                      A                      A
 Frequencies --   1107.6423              1256.9913              1308.6662
 Red. masses --      2.8512                 2.8166                 1.2220
 Frc consts  --      2.0610                 2.6220                 1.2330
 IR Inten    --     10.0749                 1.3859                 9.6177

                     22                     23                     24
                      A                      A                      A
 Frequencies --   1326.2730              1353.4548              1424.3991
 Red. masses --      1.6588                 1.9351                 1.3174
 Frc consts  --      1.7192                 2.0885                 1.5748
 IR Inten    --     44.1131                20.7235                15.6836

                     25                     26                     27
                      A                      A                      A
 Frequencies --   1453.1502              1496.8499              1508.2711
 Red. masses --      1.2301                 1.0470                 1.0576
 Frc consts  --      1.5304                 1.3822                 1.4176
 IR Inten    --      1.9770                 9.7042                 5.0762

                     28                     29                     30
                      A                      A                      A
 Frequencies --   1670.1103              1692.5193              1705.3494
 Red. masses --      1.1085                 1.7282                 1.7282
 Frc consts  --      1.8217                 2.9168                 2.9612
 IR Inten    --      5.6784                89.2269                15.2808

                     31                     32                     33
                      A                      A                      A
 Frequencies --   3042.6713              3095.6798              3147.5501
 Red. masses --      1.0392                 1.1006                 1.0991
 Frc consts  --      5.6684                 6.2143                 6.4156
 IR Inten    --     22.5577                20.7552                15.2602

                     34                     35                     36
                      A                      A                      A
 Frequencies --   3191.3129              3273.9198              3387.3078
 Red. masses --      1.0598                 1.1155                 1.0548
 Frc consts  --      6.3596                 7.0445                 7.1304
 IR Inten    --      1.8561                11.4509                14.8429

                     37                     38                     39
                      A                      A                      A
 Frequencies --   3447.1752              3535.4089              3573.4961
 Red. masses --      1.0501                 1.0861                 1.0929
 Frc consts  --      7.3520                 7.9980                 8.2228
 IR Inten    --     12.7622                 0.3770                 0.9512

 - Thermochemistry -
 -------------------
 Temperature   298.150 Kelvin.  Pressure   1.00000 Atm.
 Atom     1 has atomic number  6 and mass  12.00000

 Molecular mass:    87.07965 amu.
 Principal axes and moments of inertia in atomic units:
                           1         2         3
     Eigenvalues --   379.69683 518.05984 850.13323
           X            0.99695   0.07804   0.00204
           Y           -0.07805   0.99695   0.00285
           Z           -0.00181  -0.00300   0.99999
 This molecule is an asymmetric top.
 Rotational symmetry number  1.
 Rotational temperatures (Kelvin)      0.22811     0.16719     0.10188
 Rotational constants (GHZ):           4.75311     3.48365     2.12289
 Zero-point vibrational energy     344871.6 (Joules/Mol)
                                   82.42628 (Kcal/Mol)
 Warning -- explicit consideration of  10 degrees of freedom as
           vibrations may cause significant error
 Vibrational temperatures:    128.05   276.02   371.38   420.94   472.82
          (Kelvin)            521.42   616.29   755.35   764.91   787.10
                             1056.12  1071.08  1166.89  1174.89  1337.36
                             1400.99  1471.45  1544.05  1593.65  1808.53
                             1882.88  1908.21  1947.32  2049.39  2090.76
                             2153.63  2170.06  2402.91  2435.15  2453.61
                             4377.72  4453.99  4528.62  4591.58  4710.43
                             4873.57  4959.71  5086.66  5141.46

 Zero-point correction=                           0.131355 (Hartree/Particle)
 Thermal correction to Energy=                    0.138629
 Thermal correction to Enthalpy=                  0.139573
 Thermal correction to Gibbs Free Energy=         0.100869
 Sum of electronic and zero-point Energies=           -283.778913
 Sum of electronic and thermal Energies=              -283.771639
 Sum of electronic and thermal Enthalpies=            -283.770695
 Sum of electronic and thermal Free Energies=         -283.809399

                     E (Thermal)             CV                S
                      KCal/Mol        Cal/Mol-Kelvin    Cal/Mol-Kelvin
 Total                   86.991             26.893             81.460
 Electronic               0.000              0.000              0.000
 Translational            0.889              2.981             39.306
 Rotational               0.889              2.981             26.617
 Vibrational             85.213             20.932             15.537
 Vibration     1          0.602              1.957              3.682
 Vibration     2          0.634              1.851              2.210
 Vibration     3          0.667              1.749              1.674
 Vibration     4          0.688              1.688              1.459
 Vibration     5          0.712              1.618              1.267
 Vibration     6          0.736              1.550              1.112
 Vibration     7          0.790              1.409              0.864
 Vibration     8          0.880              1.195              0.598
 Vibration     9          0.887              1.180              0.584
 Vibration    10          0.902              1.146              0.550

 Normal termination of Gaussian 09 at Thu Sep  8 15:24:18 2022.
