 Gaussian 09, Revision E.01,
 Gaussian 09:  ES64L-G09RevE.01 30-Nov-2015

 --------------------------------
 #P OPT=calcfc Freq B3LYP/6-31G**
 --------------------------------

 --------
 Frag_201
 --------
 Symbolic Z-matrix:
 Charge =  0 Multiplicity = 1

 SCF Done:  E(RB3LYP) =  -244.602967111     A.U. after   15 cycles
 SCF Done:  E(RB3LYP) =  -244.623845758     A.U. after   13 cycles
 SCF Done:  E(RB3LYP) =  -244.624276769     A.U. after   14 cycles
 SCF Done:  E(RB3LYP) =  -244.581689346     A.U. after   14 cycles
 SCF Done:  E(RB3LYP) =  -244.624890815     A.U. after   10 cycles
 SCF Done:  E(RB3LYP) =  -244.624960482     A.U. after   12 cycles
 SCF Done:  E(RB3LYP) =  -244.625198469     A.U. after   13 cycles
 SCF Done:  E(RB3LYP) =  -244.625217588     A.U. after   10 cycles
 SCF Done:  E(RB3LYP) =  -244.625220910     A.U. after    9 cycles
 SCF Done:  E(RB3LYP) =  -244.625226109     A.U. after    9 cycles
 SCF Done:  E(RB3LYP) =  -244.625320337     A.U. after   11 cycles
 SCF Done:  E(RB3LYP) =  -244.625305374     A.U. after   12 cycles
 SCF Done:  E(RB3LYP) =  -244.625307578     A.U. after    9 cycles
 SCF Done:  E(RB3LYP) =  -244.625355223     A.U. after   11 cycles
 SCF Done:  E(RB3LYP) =  -244.625356894     A.U. after   12 cycles
 SCF Done:  E(RB3LYP) =  -244.625362874     A.U. after   12 cycles
 SCF Done:  E(RB3LYP) =  -244.625368041     A.U. after   10 cycles
 SCF Done:  E(RB3LYP) =  -244.625368809     A.U. after    8 cycles
 SCF Done:  E(RB3LYP) =  -244.625368846     A.U. after    8 cycles
 Optimization completed.
    -- Stationary point found.
 Normal termination of Gaussian 09 at Sat Aug 21 02:20:48 2021.

 ----------------------------------------------------------------------
 #P Geom=AllCheck Guess=TCheck SCRF=Check GenChk RB3LYP/6-31G(d,p) Freq
 ----------------------------------------------------------------------

 Structure from the checkpoint file:  "/public/home/users/caep010/.cache/gau_scr/Gau-98132.chk"
 --------
 Frag_201
 --------
 Charge =  0 Multiplicity = 1

                         Standard orientation:
 ---------------------------------------------------------------------
 Center     Atomic      Atomic             Coordinates (Angstroms)
 Number     Number       Type             X           Y           Z
 ---------------------------------------------------------------------
      1          6           0       -1.610479   -0.710312   -0.057965
      2          7           0       -0.357851   -0.011150    0.151729
      3          6           0       -0.286599    1.431899   -0.014367
      4          7           0        0.742732   -0.767227    0.048602
      5          7           0        1.818003   -0.108376   -0.059332
      6          1           0       -2.372779   -0.338917    0.634640
      7          1           0       -1.437281   -1.770071    0.132266
      8          1           0       -1.986455   -0.592876   -1.084927
      9          1           0       -1.264306    1.855693    0.222210
     10          1           0       -0.002527    1.707378   -1.039258
     11          1           0        0.471087    1.839975    0.657646
     12          1           0        2.554535   -0.823438   -0.075571
 ---------------------------------------------------------------------

 SCF Done:  E(RB3LYP) =  -244.625368846     A.U. after    1 cycles

 The electronic state is 1-A.
 Alpha  occ. eigenvalues --  -14.40009 -14.38243 -14.33107 -10.22095 -10.21348
 Alpha  occ. eigenvalues --   -1.05307  -0.90310  -0.73235  -0.71696  -0.57084
 Alpha  occ. eigenvalues --   -0.50691  -0.47666  -0.47581  -0.41295  -0.40621
 Alpha  occ. eigenvalues --   -0.39015  -0.37792  -0.37189  -0.22960  -0.22648
 Alpha virt. eigenvalues --   -0.00095   0.09730   0.12303   0.13857   0.14566
 Alpha virt. eigenvalues --    0.16105   0.16560   0.17163   0.18811   0.23422
 Alpha virt. eigenvalues --    0.30202   0.37024   0.48737   0.52789   0.53778

 Mulliken charges:
               1
     1  C   -0.159208
     2  N   -0.232205
     3  C   -0.161660
     4  N   -0.068928
     5  N   -0.371391
     6  H    0.116150
     7  H    0.139262
     8  H    0.112852
     9  H    0.106241
    10  H    0.123704
    11  H    0.148322
    12  H    0.246861
 Sum of Mulliken charges =   0.00000

 Dipole moment (field-independent basis, Debye):
    X=             -1.8532    Y=              0.1795    Z=             -0.1709  Tot=              1.8697
 Quadrupole moment (field-independent basis, Debye-Ang):
   XX=            -28.5406   YY=            -30.0668   ZZ=            -31.4143
   XY=             -1.8058   XZ=              0.1064   YZ=              0.3073

  Exact polarizability:  62.931  -3.045  41.914  -0.589  -0.185  29.865
 Approx polarizability:  96.318  -3.118  56.312  -3.112  -0.426  41.936

                      1                      2                      3
                      A                      A                      A
 Frequencies --    114.2447               157.1261               211.5065
 Red. masses --      1.6228                 1.2821                 1.2869
 Frc consts  --      0.0125                 0.0186                 0.0339
 IR Inten    --      5.1600                 1.9745                 6.0425

                      4                      5                      6
                      A                      A                      A
 Frequencies --    349.3715               356.5774               411.7853
 Red. masses --      4.7694                 3.0878                 2.4872
 Frc consts  --      0.3430                 0.2313                 0.2485
 IR Inten    --      7.0268                 1.6717                 3.6537

                      7                      8                      9
                      A                      A                      A
 Frequencies --    684.8849               832.0993               920.2195
 Red. masses --      4.7004                 3.7559                 1.1617
 Frc consts  --      1.2990                 1.5322                 0.5796
 IR Inten    --     28.1071                22.6262                41.7324

                     10                     11                     12
                      A                      A                      A
 Frequencies --   1057.0789              1069.4664              1122.8544
 Red. masses --      1.7479                 1.5714                 1.2547
 Frc consts  --      1.1508                 1.0589                 0.9321
 IR Inten    --     84.5382                46.6705                 2.1853

                     13                     14                     15
                      A                      A                      A
 Frequencies --   1162.4765              1302.1200              1358.6395
 Red. masses --      1.3478                 3.0129                 3.2175
 Frc consts  --      1.0731                 3.0098                 3.4992
 IR Inten    --     15.8330                28.4946                53.7521

                     16                     17                     18
                      A                      A                      A
 Frequencies --   1439.7096              1452.3966              1481.0556
 Red. masses --      1.1880                 1.1826                 1.0716
 Frc consts  --      1.4509                 1.4698                 1.3849
 IR Inten    --      0.2828                 7.5263                10.3471

                     19                     20                     21
                      A                      A                      A
 Frequencies --   1492.9100              1495.8535              1519.1281
 Red. masses --      1.5370                 1.0815                 1.0854
 Frc consts  --      2.0183                 1.4258                 1.4758
 IR Inten    --     30.2069                 5.8468                17.7679

                     22                     23                     24
                      A                      A                      A
 Frequencies --   1531.4603              1560.3648              3007.5474
 Red. masses --      1.2467                 3.0286                 1.0487
 Frc consts  --      1.7227                 4.3446                 5.5888
 IR Inten    --     19.2061               115.2047                67.5442

                     25                     26                     27
                      A                      A                      A
 Frequencies --   3027.5029              3084.5334              3111.7341
 Red. masses --      1.0469                 1.0906                 1.0868
 Frc consts  --      5.6538                 6.1137                 6.2002
 IR Inten    --     37.4802                33.5154                19.7162

                     28                     29                     30
                      A                      A                      A
 Frequencies --   3157.5406              3161.2280              3393.9927
 Red. masses --      1.1053                 1.0995                 1.0749
 Frc consts  --      6.4927                 6.4735                 7.2951
 IR Inten    --      9.1928                 8.6549                 4.0588

 - Thermochemistry -
 -------------------
 Temperature   298.150 Kelvin.  Pressure   1.00000 Atm.
 Atom     1 has atomic number  6 and mass  12.00000

 Molecular mass:    73.06400 amu.
 Principal axes and moments of inertia in atomic units:
                           1         2         3
     Eigenvalues --   202.73247 398.09857 574.89107
           X            0.99988   0.01519   0.00314
           Y           -0.01519   0.99988   0.00186
           Z           -0.00311  -0.00191   0.99999
 This molecule is an asymmetric top.
 Rotational symmetry number  1.
 Rotational temperatures (Kelvin)      0.42723     0.21757     0.15066
 Rotational constants (GHZ):           8.90208     4.53340     3.13928
 Zero-point vibrational energy     269323.7 (Joules/Mol)
                                   64.36991 (Kcal/Mol)
 Warning -- explicit consideration of   6 degrees of freedom as
           vibrations may cause significant error
 Vibrational temperatures:    164.37   226.07   304.31   502.67   513.03
          (Kelvin)            592.47   985.40  1197.20  1323.99  1520.90
                             1538.72  1615.54  1672.54  1873.46  1954.78
                             2071.42  2089.67  2130.91  2147.96  2152.20
                             2185.68  2203.43  2245.01  4327.18  4355.90
                             4437.95  4477.09  4542.99  4548.30  4883.19

 Zero-point correction=                           0.102580 (Hartree/Particle)
 Thermal correction to Energy=                    0.108707
 Thermal correction to Enthalpy=                  0.109651
 Thermal correction to Gibbs Free Energy=         0.073449
 Sum of electronic and zero-point Energies=           -244.522789
 Sum of electronic and thermal Energies=              -244.516662
 Sum of electronic and thermal Enthalpies=            -244.515718
 Sum of electronic and thermal Free Energies=         -244.551919

                     E (Thermal)             CV                S
                      KCal/Mol        Cal/Mol-Kelvin    Cal/Mol-Kelvin
 Total                   68.215             20.129             76.193
 Electronic               0.000              0.000              0.000
 Translational            0.889              2.981             38.783
 Rotational               0.889              2.981             25.343
 Vibrational             66.437             14.168             12.068
 Vibration     1          0.607              1.938              3.195
 Vibration     2          0.621              1.895              2.584
 Vibration     3          0.643              1.823              2.031
 Vibration     4          0.727              1.577              1.169
 Vibration     5          0.732              1.562              1.137
 Vibration     6          0.776              1.445              0.920

 Optimization completed.
    -- Stationary point found.
 Normal termination of Gaussian 09 at Sat Aug 21 02:20:57 2021.
