 Gaussian 09, Revision E.01,
 Gaussian 09:  ES64L-G09RevE.01 30-Nov-2015

 ----------------------------
 #P OPT Freq B3LYP/6-31G(d,p)
 ----------------------------

 --------
 Frag_665
 --------
 Symbolic Z-matrix:
 Charge =  0 Multiplicity = 1

 SCF Done:  E(RB3LYP) =  -339.793052507     A.U. after   14 cycles
 SCF Done:  E(RB3LYP) =  -339.793160450     A.U. after   11 cycles
 SCF Done:  E(RB3LYP) =  -339.793133467     A.U. after   11 cycles
 SCF Done:  E(RB3LYP) =  -339.793181959     A.U. after    9 cycles
 SCF Done:  E(RB3LYP) =  -339.793184348     A.U. after    9 cycles
 SCF Done:  E(RB3LYP) =  -339.793186955     A.U. after   10 cycles
 SCF Done:  E(RB3LYP) =  -339.793189133     A.U. after   11 cycles
 SCF Done:  E(RB3LYP) =  -339.793192102     A.U. after   11 cycles
 SCF Done:  E(RB3LYP) =  -339.793197704     A.U. after   11 cycles
 SCF Done:  E(RB3LYP) =  -339.793202334     A.U. after   11 cycles
 SCF Done:  E(RB3LYP) =  -339.782418985     A.U. after   13 cycles
 SCF Done:  E(RB3LYP) =  -339.793232671     A.U. after    7 cycles
 SCF Done:  E(RB3LYP) =  -339.751894359     A.U. after   13 cycles
 SCF Done:  E(RB3LYP) =  -339.793232805     A.U. after    7 cycles
 SCF Done:  E(RB3LYP) =  -339.793234186     A.U. after    9 cycles
 SCF Done:  E(RB3LYP) =  -339.793235812     A.U. after   10 cycles
 SCF Done:  E(RB3LYP) =  -339.793236435     A.U. after    9 cycles
 SCF Done:  E(RB3LYP) =  -339.793237033     A.U. after    8 cycles
 SCF Done:  E(RB3LYP) =  -339.793237118     A.U. after    7 cycles
 Optimization completed.
    -- Stationary point found.
 Normal termination of Gaussian 09 at Thu Sep  8 15:15:48 2022.

 ----------------------------------------------------------------------
 #P Geom=AllCheck Guess=TCheck SCRF=Check GenChk RB3LYP/6-31G(d,p) Freq
 ----------------------------------------------------------------------

 Structure from the checkpoint file:  "B3LYP6-31Gdp.Frag_665.chk"
 --------
 Frag_665
 --------
 Charge =  0 Multiplicity = 1

                         Standard orientation:
 ---------------------------------------------------------------------
 Center     Atomic      Atomic             Coordinates (Angstroms)
 Number     Number       Type             X           Y           Z
 ---------------------------------------------------------------------
      1          7           0        1.511973    0.946459    0.145718
      2          6           0        0.802911   -0.188819   -0.069583
      3          8           0        1.279521   -1.316791   -0.072231
      4          6           0       -0.696332    0.014235   -0.376667
      5          7           0       -1.561852   -0.955042    0.266732
      6          8           0       -1.064629    1.326093    0.011146
      7          1           0        2.487496    0.867394    0.389190
      8          1           0        1.028553    1.825302    0.246718
      9          1           0       -0.809894   -0.124521   -1.464407
     10          1           0       -1.320092   -1.012960    1.255356
     11          1           0       -1.364469   -1.874661   -0.121862
     12          1           0       -2.031049    1.352620   -0.025968
 ---------------------------------------------------------------------

 SCF Done:  E(RB3LYP) =  -339.793237118     A.U. after    1 cycles

 The electronic state is 1-A.
 Alpha  occ. eigenvalues --  -19.16041 -19.11026 -14.35487 -14.32583 -10.28341
 Alpha  occ. eigenvalues --  -10.27211  -1.04813  -1.02231  -0.90202  -0.88161
 Alpha  occ. eigenvalues --   -0.69025  -0.58275  -0.55151  -0.52328  -0.49159
 Alpha  occ. eigenvalues --   -0.47692  -0.43830  -0.40377  -0.38450  -0.36767
 Alpha  occ. eigenvalues --   -0.29796  -0.26937  -0.26369  -0.24206
 Alpha virt. eigenvalues --    0.02449   0.07585   0.10791   0.10859   0.13334
 Alpha virt. eigenvalues --    0.14798   0.17479   0.19830   0.27141   0.27905
 Alpha virt. eigenvalues --    0.33306   0.38844   0.54421   0.55925   0.59031

 Mulliken charges:
               1
     1  N   -0.598793
     2  C    0.533747
     3  O   -0.513268
     4  C    0.219082
     5  N   -0.590756
     6  O   -0.558361
     7  H    0.274885
     8  H    0.294444
     9  H    0.115310
    10  H    0.246280
    11  H    0.258987
    12  H    0.318443
 Sum of Mulliken charges =  -0.00000

 Dipole moment (field-independent basis, Debye):
    X=             -0.6493    Y=              2.0570    Z=              0.4358  Tot=              2.2007
 Quadrupole moment (field-independent basis, Debye-Ang):
   XX=            -33.2432   YY=            -35.1859   ZZ=            -33.5006
   XY=              4.5556   XZ=              1.6359   YZ=              0.1727

  Exact polarizability:  44.153   1.761  47.747   1.110   1.479  29.169
 Approx polarizability:  55.825   0.130  76.246   1.109   3.308  41.248

                      1                      2                      3
                      A                      A                      A
 Frequencies --     26.6729               198.1519               266.0215
 Red. masses --      5.8116                 1.1162                 3.4140
 Frc consts  --      0.0024                 0.0258                 0.1423
 IR Inten    --      8.5714                61.3024                25.1520

                      4                      5                      6
                      A                      A                      A
 Frequencies --    335.2119               344.2934               369.0909
 Red. masses --      1.7533                 1.4856                 1.4383
 Frc consts  --      0.1161                 0.1038                 0.1154
 IR Inten    --     69.3306               220.0977                27.4855

                      7                      8                      9
                      A                      A                      A
 Frequencies --    479.0277               504.7033               546.6511
 Red. masses --      2.7452                 3.5092                 4.1534
 Frc consts  --      0.3711                 0.5267                 0.7313
 IR Inten    --     66.3917                 5.7490                 6.2909

                     10                     11                     12
                      A                      A                      A
 Frequencies --    637.5617               731.0083               853.9319
 Red. masses --      1.2431                 2.9170                 2.9769
 Frc consts  --      0.2977                 0.9184                 1.2790
 IR Inten    --     10.7882                 9.3179                26.3450

                     13                     14                     15
                      A                      A                      A
 Frequencies --    941.0364              1011.7977              1103.9981
 Red. masses --      1.6682                 2.9176                 1.9005
 Frc consts  --      0.8704                 1.7598                 1.3647
 IR Inten    --    164.1952                92.8939                 5.3935

                     16                     17                     18
                      A                      A                      A
 Frequencies --   1159.1726              1222.9370              1272.4781
 Red. masses --      2.3465                 1.3542                 1.3942
 Frc consts  --      1.8577                 1.1933                 1.3301
 IR Inten    --     29.3856                83.2779                74.9291

                     19                     20                     21
                      A                      A                      A
 Frequencies --   1350.6460              1422.5825              1442.2975
 Red. masses --      1.8432                 1.3743                 1.8424
 Frc consts  --      1.9811                 1.6386                 2.2581
 IR Inten    --     78.3643                16.8618                 3.2885

                     22                     23                     24
                      A                      A                      A
 Frequencies --   1608.7616              1669.0338              1805.8023
 Red. masses --      1.3195                 1.1057                 9.9621
 Frc consts  --      2.0120                 1.8147                19.1399
 IR Inten    --    133.7365                27.1861               288.1141

                     25                     26                     27
                      A                      A                      A
 Frequencies --   2989.9665              3484.9903              3574.4603
 Red. masses --      1.0833                 1.0517                 1.0898
 Frc consts  --      5.7060                 7.5258                 8.2040
 IR Inten    --     49.4587                 1.2137                 4.7590

                     28                     29                     30
                      A                      A                      A
 Frequencies --   3597.6327              3740.7629              3804.7588
 Red. masses --      1.0439                 1.1061                 1.0657
 Frc consts  --      7.9604                 9.1196                 9.0894
 IR Inten    --     38.7201                61.6242                30.7947

 - Thermochemistry -
 -------------------
 Temperature   298.150 Kelvin.  Pressure   1.00000 Atm.
 Atom     1 has atomic number  7 and mass  14.00307

 Molecular mass:    90.04293 amu.
 Principal axes and moments of inertia in atomic units:
                           1         2         3
     Eigenvalues --   352.45866 526.47703 828.14762
           X            0.99421   0.10724   0.00718
           Y           -0.10724   0.99423  -0.00077
           Z           -0.00722   0.00000   0.99997
 This molecule is an asymmetric top.
 Rotational symmetry number  1.
 Rotational temperatures (Kelvin)      0.24574     0.16452     0.10459
 Rotational constants (GHZ):           5.12043     3.42796     2.17925
 Zero-point vibrational energy     254179.2 (Joules/Mol)
                                   60.75028 (Kcal/Mol)
 Warning -- explicit consideration of   9 degrees of freedom as
           vibrations may cause significant error
 Vibrational temperatures:     38.38   285.10   382.75   482.29   495.36
          (Kelvin)            531.04   689.21   726.15   786.51   917.31
                             1051.76  1228.62  1353.94  1455.75  1588.41
                             1667.79  1759.53  1830.81  1943.28  2046.78
                             2075.14  2314.65  2401.36  2598.14  4301.89
                             5014.12  5142.84  5176.18  5382.12  5474.19

 Zero-point correction=                           0.096812 (Hartree/Particle)
 Thermal correction to Energy=                    0.103784
 Thermal correction to Enthalpy=                  0.104728
 Thermal correction to Gibbs Free Energy=         0.065540
 Sum of electronic and zero-point Energies=           -339.696425
 Sum of electronic and thermal Energies=              -339.689453
 Sum of electronic and thermal Enthalpies=            -339.688509
 Sum of electronic and thermal Free Energies=         -339.727697

                     E (Thermal)             CV                S
                      KCal/Mol        Cal/Mol-Kelvin    Cal/Mol-Kelvin
 Total                   65.125             24.330             82.478
 Electronic               0.000              0.000              0.000
 Translational            0.889              2.981             39.405
 Rotational               0.889              2.981             26.533
 Vibrational             63.348             18.368             16.540
 Vibration     1          0.593              1.984              6.063
 Vibration     2          0.637              1.842              2.150
 Vibration     3          0.672              1.735              1.622
 Vibration     4          0.716              1.605              1.235
 Vibration     5          0.723              1.587              1.192
 Vibration     6          0.741              1.536              1.084
 Vibration     7          0.835              1.297              0.713
 Vibration     8          0.860              1.240              0.646
 Vibration     9          0.902              1.147              0.551

 Optimization completed.
    -- Stationary point found.
 Normal termination of Gaussian 09 at Thu Sep  8 15:15:58 2022.
