 Gaussian 09, Revision E.01,
 Gaussian 09:  ES64L-G09RevE.01 30-Nov-2015

 --------------------------------
 #P OPT=calcfc Freq B3LYP/6-31G**
 --------------------------------

 --------
 Frag_412
 --------
 Symbolic Z-matrix:
 Charge =  0 Multiplicity = 1

 SCF Done:  E(RB3LYP) =  -303.841466085     A.U. after   14 cycles
 SCF Done:  E(RB3LYP) =  -303.851374539     A.U. after   13 cycles
 SCF Done:  E(RB3LYP) =  -303.852023257     A.U. after   12 cycles
 SCF Done:  E(RB3LYP) =  -303.852271080     A.U. after   13 cycles
 SCF Done:  E(RB3LYP) =  -303.816878885     A.U. after   14 cycles
 SCF Done:  E(RB3LYP) =  -303.852308941     A.U. after   10 cycles
 SCF Done:  E(RB3LYP) =  -303.853199156     A.U. after   12 cycles
 SCF Done:  E(RB3LYP) =  -303.853493293     A.U. after   12 cycles
 SCF Done:  E(RB3LYP) =  -303.853530223     A.U. after   11 cycles
 SCF Done:  E(RB3LYP) =  -303.853366535     A.U. after   12 cycles
 SCF Done:  E(RB3LYP) =  -303.853546952     A.U. after    9 cycles
 SCF Done:  E(RB3LYP) =  -303.853557723     A.U. after    9 cycles
 SCF Done:  E(RB3LYP) =  -303.853564402     A.U. after   10 cycles
 SCF Done:  E(RB3LYP) =  -303.853565154     A.U. after    8 cycles
 Optimization completed.
    -- Stationary point found.
 Normal termination of Gaussian 09 at Fri Sep 10 19:03:33 2021.

 ----------------------------------------------------------------------
 #P Geom=AllCheck Guess=TCheck SCRF=Check GenChk RB3LYP/6-31G(d,p) Freq
 ----------------------------------------------------------------------

 Structure from the checkpoint file:  "/public/home/users/caep010/.cache/gau_scr/Gau-142762.chk"
 --------
 Frag_412
 --------
 Charge =  0 Multiplicity = 1

                         Standard orientation:
 ---------------------------------------------------------------------
 Center     Atomic      Atomic             Coordinates (Angstroms)
 Number     Number       Type             X           Y           Z
 ---------------------------------------------------------------------
      1          6           0        1.784023    0.769359    0.000146
      2          6           0        0.723073   -0.316026    0.000028
      3          8           0        1.002351   -1.508895   -0.000237
      4          7           0       -0.592193    0.108631    0.000243
      5          6           0       -1.689208   -0.842609    0.000122
      6          7           0       -0.877448    1.484456   -0.000206
      7          1           0        2.755766    0.275921    0.000408
      8          1           0        1.691825    1.415358    0.876961
      9          1           0        1.692221    1.415130   -0.876873
     10          1           0       -2.318142   -0.712161    0.890780
     11          1           0       -2.318026   -0.712457   -0.890675
     12          1           0       -1.263675   -1.845423    0.000171
     13          1           0       -1.439022    1.709217   -0.821876
     14          1           0       -1.439596    1.709620    0.820967
 ---------------------------------------------------------------------

 SCF Done:  E(RB3LYP) =  -303.853565154     A.U. after    1 cycles

 The electronic state is 1-A.
 Alpha  occ. eigenvalues --  -19.10171 -14.38291 -14.36920 -10.27808 -10.21610
 Alpha  occ. eigenvalues --  -10.17650  -1.03149  -0.97998  -0.81169  -0.74327
 Alpha  occ. eigenvalues --   -0.68043  -0.55372  -0.52495  -0.50419  -0.46679
 Alpha  occ. eigenvalues --   -0.43534  -0.41607  -0.40486  -0.39126  -0.37905
 Alpha  occ. eigenvalues --   -0.34448  -0.28461  -0.24039  -0.23752
 Alpha virt. eigenvalues --    0.03615   0.05964   0.12595   0.13645   0.13768
 Alpha virt. eigenvalues --    0.15227   0.16741   0.17171   0.18532   0.18896
 Alpha virt. eigenvalues --    0.22113   0.27141   0.33651   0.37088   0.51712

 Mulliken charges:
               1
     1  C   -0.361576
     2  C    0.568125
     3  O   -0.509541
     4  N   -0.342792
     5  C   -0.177639
     6  N   -0.448207
     7  H    0.129219
     8  H    0.128122
     9  H    0.128125
    10  H    0.104781
    11  H    0.104772
    12  H    0.163657
    13  H    0.256475
    14  H    0.256480
 Sum of Mulliken charges =  -0.00000

 Dipole moment (field-independent basis, Debye):
    X=             -3.0109    Y=              2.7393    Z=             -0.0004  Tot=              4.0705
 Quadrupole moment (field-independent basis, Debye-Ang):
   XX=            -32.5317   YY=            -40.1690   ZZ=            -34.8522
   XY=              1.3472   XZ=              0.0011   YZ=             -0.0015

  Exact polarizability:  58.453  -2.817  53.523  -0.000   0.001  36.854
 Approx polarizability:  73.749 -11.550  81.003  -0.003   0.004  52.394

                      1                      2                      3
                      A                      A                      A
 Frequencies --     92.2785               127.3909               137.6944
 Red. masses --      1.9380                 1.4310                 1.8169
 Frc consts  --      0.0097                 0.0137                 0.0203
 IR Inten    --      2.0394                 2.7395                 3.9308

                      4                      5                      6
                      A                      A                      A
 Frequencies --    201.6602               300.6537               352.6825
 Red. masses --      1.3394                 3.2186                 1.0815
 Frc consts  --      0.0321                 0.1714                 0.0793
 IR Inten    --      3.2331                 9.1992                28.8621

                      7                      8                      9
                      A                      A                      A
 Frequencies --    395.6742               487.3659               588.4691
 Red. masses --      2.8085                 3.1135                 2.7120
 Frc consts  --      0.2591                 0.4357                 0.5533
 IR Inten    --      6.5310                 4.8805                 7.2417

                     10                     11                     12
                      A                      A                      A
 Frequencies --    592.8216               739.4473               924.3046
 Red. masses --      5.4179                 4.0605                 1.6908
 Frc consts  --      1.1218                 1.3081                 0.8511
 IR Inten    --      6.0974                 1.7019               124.5156

                     13                     14                     15
                      A                      A                      A
 Frequencies --    971.6881              1048.0452              1053.0241
 Red. masses --      1.9871                 1.4528                 1.7417
 Frc consts  --      1.1054                 0.9402                 1.1379
 IR Inten    --     13.2464                22.9452                 6.3634

                     16                     17                     18
                      A                      A                      A
 Frequencies --   1151.2646              1179.8896              1278.2491
 Red. masses --      1.2669                 2.3853                 5.4845
 Frc consts  --      0.9894                 1.9565                 5.2798
 IR Inten    --      0.7660                38.9808                82.4067

                     19                     20                     21
                      A                      A                      A
 Frequencies --   1322.9304              1397.0401              1424.2114
 Red. masses --      1.1620                 1.3330                 1.6111
 Frc consts  --      1.1982                 1.5329                 1.9254
 IR Inten    --      2.5968                 8.6662                65.7880

                     22                     23                     24
                      A                      A                      A
 Frequencies --   1443.4672              1476.6890              1489.7210
 Red. masses --      1.6749                 1.0960                 1.0483
 Frc consts  --      2.0562                 1.4081                 1.3707
 IR Inten    --     88.5717                12.4534                 6.3293

                     25                     26                     27
                      A                      A                      A
 Frequencies --   1511.3280              1523.9018              1706.2755
 Red. masses --      1.0452                 1.1557                 1.1317
 Frc consts  --      1.4066                 1.5813                 1.9412
 IR Inten    --     10.3932                10.3183                25.4529

                     28                     29                     30
                      A                      A                      A
 Frequencies --   1775.8151              3014.1775              3063.0844
 Red. masses --      9.1339                 1.0385                 1.1050
 Frc consts  --     16.9708                 5.5589                 6.1082
 IR Inten    --    268.5059                61.4745                45.8657

                     31                     32                     33
                      A                      A                      A
 Frequencies --   3071.2904              3137.9082              3175.3386
 Red. masses --      1.0357                 1.1001                 1.0975
 Frc consts  --      5.7561                 6.3823                 6.5197
 IR Inten    --      4.5281                 9.8285                 2.6163

                     34                     35                     36
                      A                      A                      A
 Frequencies --   3176.0018              3433.5486              3511.8037
 Red. masses --      1.1033                 1.0456                 1.0970
 Frc consts  --      6.5568                 7.2625                 7.9714
 IR Inten    --     10.2040                 7.2623                 0.0827

 - Thermochemistry -
 -------------------
 Temperature   298.150 Kelvin.  Pressure   1.00000 Atm.
 Atom     1 has atomic number  6 and mass  12.00000

 Molecular mass:    88.06366 amu.
 Principal axes and moments of inertia in atomic units:
                           1         2         3
     Eigenvalues --   365.08902 520.72658 853.61004
           X            0.98990   0.14175   0.00001
           Y           -0.14175   0.98990  -0.00001
           Z           -0.00001   0.00001   1.00000
 This molecule is an asymmetric top.
 Rotational symmetry number  1.
 Rotational temperatures (Kelvin)      0.23724     0.16633     0.10147
 Rotational constants (GHZ):           4.94329     3.46581     2.11425
 Zero-point vibrational energy     312686.7 (Joules/Mol)
                                   74.73392 (Kcal/Mol)
 Warning -- explicit consideration of  10 degrees of freedom as
           vibrations may cause significant error
 Vibrational temperatures:    132.77   183.29   198.11   290.14   432.57
          (Kelvin)            507.43   569.29   701.21   846.67   852.94
                             1063.90  1329.87  1398.04  1507.90  1515.06
                             1656.41  1697.60  1839.11  1903.40  2010.03
                             2049.12  2076.82  2124.62  2143.37  2174.46
                             2192.55  2454.95  2555.00  4336.72  4407.09
                             4418.90  4514.74  4568.60  4569.55  4940.10
                             5052.70

 Zero-point correction=                           0.119096 (Hartree/Particle)
 Thermal correction to Energy=                    0.126593
 Thermal correction to Enthalpy=                  0.127538
 Thermal correction to Gibbs Free Energy=         0.087842
 Sum of electronic and zero-point Energies=           -303.734469
 Sum of electronic and thermal Energies=              -303.726972
 Sum of electronic and thermal Enthalpies=            -303.726028
 Sum of electronic and thermal Free Energies=         -303.765723

                     E (Thermal)             CV                S
                      KCal/Mol        Cal/Mol-Kelvin    Cal/Mol-Kelvin
 Total                   79.439             25.394             83.546
 Electronic               0.000              0.000              0.000
 Translational            0.889              2.981             39.339
 Rotational               0.889              2.981             26.587
 Vibrational             77.661             19.433             17.620
 Vibration     1          0.602              1.955              3.611
 Vibration     2          0.611              1.926              2.985
 Vibration     3          0.614              1.916              2.836
 Vibration     4          0.639              1.838              2.118
 Vibration     5          0.693              1.672              1.413
 Vibration     6          0.729              1.570              1.154
 Vibration     7          0.762              1.479              0.979
 Vibration     8          0.843              1.278              0.690
 Vibration     9          0.946              1.056              0.470
 Vibration    10          0.950              1.047              0.462

 Optimization completed.
    -- Stationary point found.
 Normal termination of Gaussian 09 at Fri Sep 10 19:03:44 2021.
