 Gaussian 09, Revision E.01,
 Gaussian 09:  ES64L-G09RevE.01 30-Nov-2015

 ----------------------------
 #P OPT Freq B3LYP/6-31G(d,p)
 ----------------------------

 --------
 Frag_809
 --------
 Symbolic Z-matrix:
 Charge =  0 Multiplicity = 1

 SCF Done:  E(RB3LYP) =  -305.067080885     A.U. after   13 cycles
 SCF Done:  E(RB3LYP) =  -305.067125423     A.U. after    8 cycles
 SCF Done:  E(RB3LYP) =  -305.067133333     A.U. after    8 cycles
 SCF Done:  E(RB3LYP) =  -305.067138895     A.U. after    8 cycles
 SCF Done:  E(RB3LYP) =  -305.067142635     A.U. after    8 cycles
 SCF Done:  E(RB3LYP) =  -305.067145455     A.U. after    9 cycles
 SCF Done:  E(RB3LYP) =  -305.067146669     A.U. after    8 cycles
 SCF Done:  E(RB3LYP) =  -305.067147151     A.U. after    7 cycles
 SCF Done:  E(RB3LYP) =  -305.067147408     A.U. after    7 cycles
 SCF Done:  E(RB3LYP) =  -305.067147560     A.U. after    7 cycles
 SCF Done:  E(RB3LYP) =  -305.067147608     A.U. after    7 cycles
 Optimization completed.
    -- Stationary point found.
 Normal termination of Gaussian 09 at Thu Sep  8 15:22:48 2022.

 ----------------------------------------------------------------------
 #P Geom=AllCheck Guess=TCheck SCRF=Check GenChk RB3LYP/6-31G(d,p) Freq
 ----------------------------------------------------------------------

 Structure from the checkpoint file:  "B3LYP6-31Gdp.Frag_809.chk"
 --------
 Frag_809
 --------
 Charge =  0 Multiplicity = 1

                         Standard orientation:
 ---------------------------------------------------------------------
 Center     Atomic      Atomic             Coordinates (Angstroms)
 Number     Number       Type             X           Y           Z
 ---------------------------------------------------------------------
      1          6           0       -2.082726    0.069227    0.015988
      2          7           0       -0.853377   -0.235744   -0.714042
      3          6           0        0.415900   -0.018848   -0.021540
      4          6           0        0.741954    1.472768    0.056878
      5          7           0        0.388008   -0.576752    1.327980
      6          8           0        1.450388   -0.584555   -0.831621
      7          1           0       -2.128498    1.141039    0.230114
      8          1           0       -2.201095   -0.462109    0.971476
      9          1           0       -2.934410   -0.168717   -0.628525
     10          1           0       -0.874527   -1.189046   -1.067056
     11          1           0        0.814760    1.874146   -0.954861
     12          1           0        1.698739    1.620142    0.565688
     13          1           0       -0.031116    2.010799    0.608039
     14          1           0        1.304798   -0.487116    1.759760
     15          1           0        0.154036   -1.567926    1.299674
     16          1           0        1.401020   -1.546176   -0.736862
 ---------------------------------------------------------------------

 SCF Done:  E(RB3LYP) =  -305.067147608     A.U. after    1 cycles

 The electronic state is 1-A.
 Alpha  occ. eigenvalues --  -19.14036 -14.31724 -14.31302 -10.28599 -10.19571
 Alpha  occ. eigenvalues --  -10.16552  -1.03020  -0.90064  -0.85037  -0.72523
 Alpha  occ. eigenvalues --   -0.66647  -0.57631  -0.52490  -0.49508  -0.47748
 Alpha  occ. eigenvalues --   -0.43624  -0.40914  -0.39423  -0.38079  -0.37181
 Alpha  occ. eigenvalues --   -0.36121  -0.34212  -0.29358  -0.24343  -0.22116
 Alpha virt. eigenvalues --    0.05575   0.10501   0.12067   0.12545   0.13899
 Alpha virt. eigenvalues --    0.16243   0.17140   0.19297   0.19554   0.21231
 Alpha virt. eigenvalues --    0.22662   0.24469   0.26581   0.28135   0.31114

 Mulliken charges:
               1
     1  C   -0.164699
     2  N   -0.483337
     3  C    0.437450
     4  C   -0.284802
     5  N   -0.573090
     6  O   -0.537163
     7  H    0.114619
     8  H    0.096797
     9  H    0.099937
    10  H    0.217707
    11  H    0.127511
    12  H    0.099146
    13  H    0.109866
    14  H    0.241163
    15  H    0.218172
    16  H    0.280723
 Sum of Mulliken charges =  -0.00000

 Dipole moment (field-independent basis, Debye):
    X=             -0.1540    Y=             -2.1626    Z=              1.0651  Tot=              2.4156
 Quadrupole moment (field-independent basis, Debye-Ang):
   XX=            -37.8191   YY=            -31.5197   ZZ=            -41.6388
   XY=             -0.7767   XZ=              3.1305   YZ=              0.6117

  Exact polarizability:  54.881   0.756  51.593   1.292   0.736  46.234
 Approx polarizability:  69.749   0.788  69.576   0.255   1.918  65.423

                      1                      2                      3
                      A                      A                      A
 Frequencies --     58.9140               189.6483               212.1253
 Red. masses --      1.6386                 1.0829                 1.3099
 Frc consts  --      0.0034                 0.0229                 0.0347
 IR Inten    --      1.2273                 7.8848                13.1609

                      4                      5                      6
                      A                      A                      A
 Frequencies --    240.6167               273.0773               331.8101
 Red. masses --      1.3020                 1.9607                 1.1887
 Frc consts  --      0.0444                 0.0861                 0.0771
 IR Inten    --     39.5441                28.3368                39.3733

                      7                      8                      9
                      A                      A                      A
 Frequencies --    372.3598               395.0922               479.4897
 Red. masses --      2.4991                 2.1958                 3.3021
 Frc consts  --      0.2042                 0.2019                 0.4473
 IR Inten    --     27.6243                 8.7489                 2.9843

                     10                     11                     12
                      A                      A                      A
 Frequencies --    523.3828               545.2210               684.0306
 Red. masses --      2.4468                 3.3155                 1.5120
 Frc consts  --      0.3949                 0.5807                 0.4168
 IR Inten    --     22.4857                15.4490               121.3703

                     13                     14                     15
                      A                      A                      A
 Frequencies --    778.6275               829.9992               926.7227
 Red. masses --      3.1947                 1.5871                 2.1808
 Frc consts  --      1.1412                 0.6442                 1.1035
 IR Inten    --      8.1482               121.9522                75.5285

                     16                     17                     18
                      A                      A                      A
 Frequencies --    962.3982              1014.9187              1115.1262
 Red. masses --      1.6156                 1.6526                 3.6314
 Frc consts  --      0.8816                 1.0030                 2.6606
 IR Inten    --     12.9749                48.3432                 5.1424

                     19                     20                     21
                      A                      A                      A
 Frequencies --   1127.5091              1139.4873              1162.6171
 Red. masses --      1.4184                 1.5935                 1.5223
 Frc consts  --      1.0624                 1.2191                 1.2123
 IR Inten    --     42.3633                27.3786                56.2845

                     22                     23                     24
                      A                      A                      A
 Frequencies --   1217.0183              1279.7517              1383.3140
 Red. masses --      2.2474                 1.8125                 1.5274
 Frc consts  --      1.9612                 1.7489                 1.7221
 IR Inten    --    102.7829                57.7211                60.1503

                     25                     26                     27
                      A                      A                      A
 Frequencies --   1421.4325              1466.6861              1495.9368
 Red. masses --      1.3843                 1.1666                 1.0842
 Frc consts  --      1.6479                 1.4786                 1.4296
 IR Inten    --     38.1431                 4.6501                 4.3990

                     28                     29                     30
                      A                      A                      A
 Frequencies --   1502.2010              1503.2286              1510.0595
 Red. masses --      1.1442                 1.0815                 1.2010
 Frc consts  --      1.5213                 1.4399                 1.6135
 IR Inten    --      3.2663                 3.9813                 4.7709

                     31                     32                     33
                      A                      A                      A
 Frequencies --   1536.8949              1653.1854              3006.8456
 Red. masses --      1.0877                 1.1078                 1.0480
 Frc consts  --      1.5137                 1.7838                 5.5824
 IR Inten    --      9.9697                30.2257                64.4935

                     34                     35                     36
                      A                      A                      A
 Frequencies --   3069.5578              3085.1757              3118.9594
 Red. masses --      1.0376                 1.0861                 1.1029
 Frc consts  --      5.7601                 6.0911                 6.3215
 IR Inten    --     11.3667                37.6318                32.7292

                     37                     38                     39
                      A                      A                      A
 Frequencies --   3145.2581              3168.4918              3476.1779
 Red. masses --      1.1005                 1.1043                 1.0490
 Frc consts  --      6.4141                 6.5321                 7.4687
 IR Inten    --     21.8195                14.1992                 1.9447

                     40                     41                     42
                      A                      A                      A
 Frequencies --   3519.0770              3574.9649              3789.2381
 Red. masses --      1.0744                 1.0930                 1.0659
 Frc consts  --      7.8394                 8.2304                 9.0176
 IR Inten    --      1.7361                 0.3402                 4.5464

 - Thermochemistry -
 -------------------
 Temperature   298.150 Kelvin.  Pressure   1.00000 Atm.
 Atom     1 has atomic number  6 and mass  12.00000

 Molecular mass:    90.07931 amu.
 Principal axes and moments of inertia in atomic units:
                           1         2         3
     Eigenvalues --   384.67662 661.50917 672.01700
           X            0.99965   0.01721   0.02017
           Y           -0.01611   0.99842  -0.05378
           Z           -0.02107   0.05344   0.99835
 This molecule is an asymmetric top.
 Rotational symmetry number  1.
 Rotational temperatures (Kelvin)      0.22516     0.13093     0.12889
 Rotational constants (GHZ):           4.69158     2.72822     2.68556
 Zero-point vibrational energy     372556.8 (Joules/Mol)
                                   89.04321 (Kcal/Mol)
 Warning -- explicit consideration of  11 degrees of freedom as
           vibrations may cause significant error
 Vibrational temperatures:     84.76   272.86   305.20   346.19   392.90
          (Kelvin)            477.40   535.74   568.45   689.88   753.03
                              784.45   984.17  1120.27  1194.18  1333.35
                             1384.67  1460.24  1604.42  1622.23  1639.47
                             1672.74  1751.02  1841.27  1990.28  2045.12
                             2110.23  2152.32  2161.33  2162.81  2172.64
                             2211.25  2378.56  4326.17  4416.40  4438.87
                             4487.48  4525.32  4558.75  5001.44  5063.16
                             5143.57  5451.86

 Zero-point correction=                           0.141899 (Hartree/Particle)
 Thermal correction to Energy=                    0.149857
 Thermal correction to Enthalpy=                  0.150801
 Thermal correction to Gibbs Free Energy=         0.110513
 Sum of electronic and zero-point Energies=           -304.925248
 Sum of electronic and thermal Energies=              -304.917291
 Sum of electronic and thermal Enthalpies=            -304.916347
 Sum of electronic and thermal Free Energies=         -304.956635

                     E (Thermal)             CV                S
                      KCal/Mol        Cal/Mol-Kelvin    Cal/Mol-Kelvin
 Total                   94.036             28.831             84.794
 Electronic               0.000              0.000              0.000
 Translational            0.889              2.981             39.407
 Rotational               0.889              2.981             26.639
 Vibrational             92.259             22.869             18.748
 Vibration     1          0.596              1.974              4.493
 Vibration     2          0.633              1.854              2.231
 Vibration     3          0.643              1.822              2.025
 Vibration     4          0.658              1.778              1.798
 Vibration     5          0.676              1.723              1.577
 Vibration     6          0.714              1.612              1.251
 Vibration     7          0.744              1.529              1.070
 Vibration     8          0.762              1.481              0.981
 Vibration     9          0.836              1.296              0.711
 Vibration    10          0.878              1.198              0.602
 Vibration    11          0.900              1.150              0.554

 Optimization completed.
    -- Stationary point found.
 Normal termination of Gaussian 09 at Thu Sep  8 15:23:01 2022.
