 Gaussian 09, Revision E.01,
 Gaussian 09:  ES64L-G09RevE.01 30-Nov-2015

 ----------------------------
 #P OPT Freq B3LYP/6-31G(d,p)
 ----------------------------

 --------
 Frag_942
 --------
 Symbolic Z-matrix:
 Charge =  0 Multiplicity = 1

 SCF Done:  E(RB3LYP) =  -383.709250119     A.U. after   12 cycles
 SCF Done:  E(RB3LYP) =  -383.709294717     A.U. after    9 cycles
 SCF Done:  E(RB3LYP) =  -383.709297062     A.U. after    8 cycles
 SCF Done:  E(RB3LYP) =  -383.709297734     A.U. after    7 cycles
 SCF Done:  E(RB3LYP) =  -383.709298433     A.U. after    7 cycles
 SCF Done:  E(RB3LYP) =  -383.709298597     A.U. after    7 cycles
 SCF Done:  E(RB3LYP) =  -383.709298598     A.U. after    6 cycles
 SCF Done:  E(RB3LYP) =  -383.709298702     A.U. after    6 cycles
 Optimization completed.
    -- Stationary point found.
 Normal termination of Gaussian 09 at Thu Sep  8 15:13:44 2022.

 ----------------------------------------------------------------------
 #P Geom=AllCheck Guess=TCheck SCRF=Check GenChk RB3LYP/6-31G(d,p) Freq
 ----------------------------------------------------------------------

 Structure from the checkpoint file:  "B3LYP6-31Gdp.Frag_942.chk"
 --------
 Frag_942
 --------
 Charge =  0 Multiplicity = 1

                         Standard orientation:
 ---------------------------------------------------------------------
 Center     Atomic      Atomic             Coordinates (Angstroms)
 Number     Number       Type             X           Y           Z
 ---------------------------------------------------------------------
      1          6           0        1.323361   -0.465551    1.373328
      2          6           0        0.781695   -0.006498    0.002975
      3          6           0        1.280890   -0.984256   -1.077698
      4          6           0        1.320281    1.404143   -0.308776
      5          6           0       -0.792091   -0.003887   -0.005760
      6          7           0       -1.298714    1.055219    0.877941
      7          7           0       -1.293519   -1.353713    0.258180
      8          8           0       -1.299148    0.291830   -1.299700
      9          1           0        2.417743   -0.493085    1.348879
     10          1           0        1.045681    0.210557    2.191177
     11          1           0        0.979566   -1.474122    1.622878
     12          1           0        0.905363   -0.695106   -2.062060
     13          1           0        2.376120   -0.980182   -1.108888
     14          1           0        0.936526   -1.999800   -0.872714
     15          1           0        2.415136    1.388868   -0.335537
     16          1           0        0.977854    1.749021   -1.290195
     17          1           0        1.005184    2.140448    0.434870
     18          1           0       -0.876482    1.001029    1.800652
     19          1           0       -2.301593    0.926315    0.996690
     20          1           0       -2.252125   -1.403015   -0.078174
     21          1           0       -1.301383   -1.535889    1.256961
     22          1           0       -1.273586    1.256066   -1.364202
 ---------------------------------------------------------------------

 SCF Done:  E(RB3LYP) =  -383.709298702     A.U. after    1 cycles

 The electronic state is 1-A.
 Alpha  occ. eigenvalues --  -19.14006 -14.31892 -14.30957 -10.28513 -10.19023
 Alpha  occ. eigenvalues --  -10.17424 -10.16484 -10.15221  -1.03366  -0.89462
 Alpha  occ. eigenvalues --   -0.84028  -0.79607  -0.68018  -0.66852  -0.62991
 Alpha  occ. eigenvalues --   -0.55142  -0.50562  -0.49418  -0.47269  -0.44746
 Alpha  occ. eigenvalues --   -0.43017  -0.41620  -0.41407  -0.38456  -0.36900
 Alpha  occ. eigenvalues --   -0.36341  -0.35211  -0.33278  -0.31713  -0.31404
 Alpha  occ. eigenvalues --   -0.29063  -0.26512  -0.22398
 Alpha virt. eigenvalues --    0.05855   0.10413   0.11144   0.12177   0.13203
 Alpha virt. eigenvalues --    0.14415   0.15473   0.16463   0.17678   0.19196
 Alpha virt. eigenvalues --    0.20089   0.20696   0.20916   0.22733   0.23723

 Mulliken charges:
               1
     1  C   -0.323432
     2  C    0.041718
     3  C   -0.293300
     4  C   -0.302993
     5  C    0.476851
     6  N   -0.608398
     7  N   -0.582971
     8  O   -0.552764
     9  H    0.105852
    10  H    0.081964
    11  H    0.106942
    12  H    0.111104
    13  H    0.080573
    14  H    0.119335
    15  H    0.094122
    16  H    0.090367
    17  H    0.104764
    18  H    0.235710
    19  H    0.230117
    20  H    0.242264
    21  H    0.228125
    22  H    0.314050
 Sum of Mulliken charges =  -0.00000

 Dipole moment (field-independent basis, Debye):
    X=             -0.8881    Y=              0.6878    Z=              2.2811  Tot=              2.5427
 Quadrupole moment (field-independent basis, Debye-Ang):
   XX=            -47.0968   YY=            -53.8689   ZZ=            -49.5953
   XY=              0.1951   XZ=             -3.1536   YZ=             -3.0125

  Exact polarizability:  74.956   0.426  68.704  -0.358  -0.534  69.498
 Approx polarizability:  99.420   0.371  96.153   2.515  -0.427  99.478

                      1                      2                      3
                      A                      A                      A
 Frequencies --     76.3216               201.2992               224.1170
 Red. masses --      2.8820                 1.0865                 1.0858
 Frc consts  --      0.0099                 0.0259                 0.0321
 IR Inten    --      0.9420                22.7618                 3.4281

                      4                      5                      6
                      A                      A                      A
 Frequencies --    235.6559               262.0785               273.6964
 Red. masses --      1.1205                 1.3557                 1.8824
 Frc consts  --      0.0367                 0.0549                 0.0831
 IR Inten    --     19.0877                 4.5984                 2.0363

                      7                      8                      9
                      A                      A                      A
 Frequencies --    280.2585               285.0742               341.2896
 Red. masses --      1.7802                 1.3734                 2.2106
 Frc consts  --      0.0824                 0.0658                 0.1517
 IR Inten    --      4.6348                 6.0763                11.5652

                     10                     11                     12
                      A                      A                      A
 Frequencies --    357.5742               364.8051               407.2632
 Red. masses --      2.6148                 2.6143                 1.6544
 Frc consts  --      0.1970                 0.2050                 0.1617
 IR Inten    --      0.8982                 0.4965                46.9533

                     13                     14                     15
                      A                      A                      A
 Frequencies --    420.1673               475.0268               527.7616
 Red. masses --      2.5653                 1.7219                 3.0312
 Frc consts  --      0.2668                 0.2289                 0.4974
 IR Inten    --      5.9072                56.6660                 0.9317

                     16                     17                     18
                      A                      A                      A
 Frequencies --    539.1909               556.6779               693.1992
 Red. masses --      2.6853                 3.0789                 3.2531
 Frc consts  --      0.4600                 0.5621                 0.9210
 IR Inten    --     12.0612                37.7379                10.8804

                     19                     20                     21
                      A                      A                      A
 Frequencies --    816.6581               840.2008               869.3957
 Red. masses --      1.2974                 2.6095                 1.7973
 Frc consts  --      0.5098                 1.0853                 0.8004
 IR Inten    --    293.2079                 5.5215                23.8523

                     22                     23                     24
                      A                      A                      A
 Frequencies --    940.2784               944.7554               961.0592
 Red. masses --      1.6332                 1.6737                 2.3475
 Frc consts  --      0.8508                 0.8802                 1.2775
 IR Inten    --      1.7593                 2.8353                55.1894

                     25                     26                     27
                      A                      A                      A
 Frequencies --    967.3021              1012.7708              1040.2693
 Red. masses --      1.2298                 2.0053                 1.4409
 Frc consts  --      0.6779                 1.2119                 0.9187
 IR Inten    --      0.2689                29.2853                 7.9289

                     28                     29                     30
                      A                      A                      A
 Frequencies --   1066.5762              1109.9329              1214.3050
 Red. masses --      1.6354                 1.5088                 1.9759
 Frc consts  --      1.0961                 1.0951                 1.7166
 IR Inten    --     46.7623                47.7456                56.5321

                     31                     32                     33
                      A                      A                      A
 Frequencies --   1244.9097              1259.0067              1282.3089
 Red. masses --      2.4195                 2.6325                 2.7368
 Frc consts  --      2.2093                 2.4585                 2.6514
 IR Inten    --     11.4205                 3.7007                18.6525

                     34                     35                     36
                      A                      A                      A
 Frequencies --   1356.5519              1382.0451              1408.2223
 Red. masses --      1.5830                 1.8516                 1.2903
 Frc consts  --      1.7163                 2.0837                 1.5076
 IR Inten    --     65.2438                43.7868                 2.2687

                     37                     38                     39
                      A                      A                      A
 Frequencies --   1411.5912              1443.3735              1490.1360
 Red. masses --      1.2522                 1.2571                 1.0490
 Frc consts  --      1.4701                 1.5430                 1.3724
 IR Inten    --      7.0557                18.7786                 0.0613

                     40                     41                     42
                      A                      A                      A
 Frequencies --   1503.5641              1507.1742              1516.3911
 Red. masses --      1.0481                 1.0467                 1.0513
 Frc consts  --      1.3960                 1.4009                 1.4244
 IR Inten    --      0.3100                 0.9183                 3.1932

                     43                     44                     45
                      A                      A                      A
 Frequencies --   1525.1746              1541.4290              1639.5573
 Red. masses --      1.0532                 1.0621                 1.1112
 Frc consts  --      1.4434                 1.4868                 1.7599
 IR Inten    --      2.2431                16.6706                28.2131

                     46                     47                     48
                      A                      A                      A
 Frequencies --   1652.0256              3033.5322              3044.0956
 Red. masses --      1.1011                 1.0376                 1.0369
 Frc consts  --      1.7705                 5.6258                 5.6613
 IR Inten    --     53.8657                34.3186                20.1719

                     49                     50                     51
                      A                      A                      A
 Frequencies --   3052.8932              3097.4336              3106.5162
 Red. masses --      1.0403                 1.0982                 1.1014
 Frc consts  --      5.7125                 6.2080                 6.2622
 IR Inten    --     27.9843                30.3317                30.2179

                     52                     53                     54
                      A                      A                      A
 Frequencies --   3116.7848              3127.4795              3131.8192
 Red. masses --      1.1018                 1.0968                 1.1011
 Frc consts  --      6.3061                 6.3207                 6.3634
 IR Inten    --     18.9151                34.5551                28.3776

                     55                     56                     57
                      A                      A                      A
 Frequencies --   3151.7782              3492.9033              3504.2616
 Red. masses --      1.1025                 1.0501                 1.0490
 Frc consts  --      6.4525                 7.5481                 7.5898
 IR Inten    --     17.1586                 0.5928                 0.8742

                     58                     59                     60
                      A                      A                      A
 Frequencies --   3587.7296              3602.6690              3821.4345
 Red. masses --      1.0920                 1.0933                 1.0652
 Frc consts  --      8.2813                 8.3608                 9.1652
 IR Inten    --      0.2351                 1.0020                30.1449

 - Thermochemistry -
 -------------------
 Temperature   298.150 Kelvin.  Pressure   1.00000 Atm.
 Atom     1 has atomic number  6 and mass  12.00000

 Molecular mass:   118.11061 amu.
 Principal axes and moments of inertia in atomic units:
                           1         2         3
     Eigenvalues --   741.217261034.381411051.17668
           X            0.99928  -0.00201  -0.03800
           Y           -0.00583   0.97872  -0.20511
           Z            0.03761   0.20518   0.97800
 This molecule is an asymmetric top.
 Rotational symmetry number  1.
 Warning -- assumption of classical behavior for rotation
           may cause significant error
 Rotational temperatures (Kelvin)      0.11685     0.08373     0.08240
 Rotational constants (GHZ):           2.43483     1.74475     1.71688
 Zero-point vibrational energy     522407.7 (Joules/Mol)
                                  124.85844 (Kcal/Mol)
 Warning -- explicit consideration of  17 degrees of freedom as
           vibrations may cause significant error
 Vibrational temperatures:    109.81   289.62   322.45   339.06   377.07
          (Kelvin)            393.79   403.23   410.16   491.04   514.47
                              524.87   585.96   604.53   683.46   759.33
                              775.77   800.93   997.36  1174.99  1208.86
                             1250.86  1352.85  1359.29  1382.75  1391.73
                             1457.15  1496.71  1534.56  1596.94  1747.11
                             1791.15  1811.43  1844.95  1951.77  1988.45
                             2026.12  2030.96  2076.69  2143.97  2163.29
                             2168.48  2181.75  2194.38  2217.77  2358.95
                             2376.89  4364.57  4379.77  4392.43  4456.51
                             4469.58  4484.35  4499.74  4505.98  4534.70
                             5025.50  5041.84  5161.94  5183.43  5498.19

 Zero-point correction=                           0.198975 (Hartree/Particle)
 Thermal correction to Energy=                    0.209216
 Thermal correction to Enthalpy=                  0.210160
 Thermal correction to Gibbs Free Energy=         0.165452
 Sum of electronic and zero-point Energies=           -383.510324
 Sum of electronic and thermal Energies=              -383.500083
 Sum of electronic and thermal Enthalpies=            -383.499138
 Sum of electronic and thermal Free Energies=         -383.543846

                     E (Thermal)             CV                S
                      KCal/Mol        Cal/Mol-Kelvin    Cal/Mol-Kelvin
 Total                  131.285             39.942             94.096
 Electronic               0.000              0.000              0.000
 Translational            0.889              2.981             40.214
 Rotational               0.889              2.981             28.179
 Vibrational            129.508             33.980             25.702
 Vibration     1          0.599              1.965              3.983
 Vibration     2          0.638              1.838              2.121
 Vibration     3          0.649              1.804              1.926
 Vibration     4          0.655              1.786              1.835
 Vibration     5          0.669              1.742              1.648
 Vibration     6          0.676              1.722              1.573
 Vibration     7          0.680              1.710              1.532
 Vibration     8          0.683              1.701              1.503
 Vibration     9          0.721              1.593              1.206
 Vibration    10          0.733              1.560              1.133
 Vibration    11          0.738              1.545              1.102
 Vibration    12          0.772              1.454              0.936
 Vibration    13          0.783              1.426              0.891
 Vibration    14          0.832              1.305              0.724
 Vibration    15          0.883              1.189              0.592
 Vibration    16          0.894              1.163              0.567
 Vibration    17          0.912              1.125              0.531

 Optimization completed.
    -- Stationary point found.
 Normal termination of Gaussian 09 at Thu Sep  8 15:14:10 2022.
