 Gaussian 09, Revision E.01,
 Gaussian 09:  ES64L-G09RevE.01 30-Nov-2015

 ----------------------------
 #P OPT Freq B3LYP/6-31G(d,p)
 ----------------------------

 --------
 Frag_742
 --------
 Symbolic Z-matrix:
 Charge =  0 Multiplicity = 1

 SCF Done:  E(RB3LYP) =  -359.653359466     A.U. after   14 cycles
 SCF Done:  E(RB3LYP) =  -359.653483210     A.U. after   11 cycles
 SCF Done:  E(RB3LYP) =  -359.653358164     A.U. after   11 cycles
 SCF Done:  E(RB3LYP) =  -359.653498949     A.U. after    7 cycles
 SCF Done:  E(RB3LYP) =  -359.653512031     A.U. after   10 cycles
 SCF Done:  E(RB3LYP) =  -359.653519752     A.U. after    9 cycles
 SCF Done:  E(RB3LYP) =  -359.653524737     A.U. after    9 cycles
 SCF Done:  E(RB3LYP) =  -359.653528073     A.U. after    9 cycles
 SCF Done:  E(RB3LYP) =  -359.653529726     A.U. after    8 cycles
 SCF Done:  E(RB3LYP) =  -359.653530332     A.U. after    8 cycles
 SCF Done:  E(RB3LYP) =  -359.653530455     A.U. after    7 cycles
 Optimization completed.
    -- Stationary point found.
 Normal termination of Gaussian 09 at Thu Sep  8 15:19:56 2022.

 ----------------------------------------------------------------------
 #P Geom=AllCheck Guess=TCheck SCRF=Check GenChk RB3LYP/6-31G(d,p) Freq
 ----------------------------------------------------------------------

 Structure from the checkpoint file:  "B3LYP6-31Gdp.Frag_742.chk"
 --------
 Frag_742
 --------
 Charge =  0 Multiplicity = 1

                         Standard orientation:
 ---------------------------------------------------------------------
 Center     Atomic      Atomic             Coordinates (Angstroms)
 Number     Number       Type             X           Y           Z
 ---------------------------------------------------------------------
      1          7           0        1.147804    1.149130   -0.578513
      2          6           0        0.697287    0.149248    0.391857
      3          8           0        1.476866   -1.003933    0.316039
      4          6           0       -0.758897   -0.171740    0.036617
      5          8           0       -1.116426   -1.201980   -0.485783
      6          8           0       -1.589667    0.849383    0.334208
      7          1           0        0.615771    2.009983   -0.467811
      8          1           0        2.123572    1.361940   -0.384404
      9          1           0        0.743282    0.481916    1.440924
     10          1           0        1.163128   -1.498548   -0.458238
     11          1           0       -2.476900    0.587991    0.032571
 ---------------------------------------------------------------------

 SCF Done:  E(RB3LYP) =  -359.653530455     A.U. after    1 cycles

 The electronic state is 1-A.
 Alpha  occ. eigenvalues --  -19.21463 -19.15692 -19.15262 -14.32746 -10.33043
 Alpha  occ. eigenvalues --  -10.28085  -1.12298  -1.04619  -1.02556  -0.88440
 Alpha  occ. eigenvalues --   -0.71268  -0.61704  -0.54845  -0.50609  -0.49522
 Alpha  occ. eigenvalues --   -0.47478  -0.45916  -0.42833  -0.41471  -0.35564
 Alpha  occ. eigenvalues --   -0.33525  -0.30073  -0.28887  -0.25516
 Alpha virt. eigenvalues --   -0.00462   0.06203   0.09287   0.11421   0.14006
 Alpha virt. eigenvalues --    0.15537   0.21454   0.22344   0.25159   0.31929
 Alpha virt. eigenvalues --    0.36854   0.52115   0.55172   0.55788   0.61295

 Mulliken charges:
               1
     1  N   -0.596402
     2  C    0.228576
     3  O   -0.519279
     4  C    0.567356
     5  O   -0.459345
     6  O   -0.481235
     7  H    0.248531
     8  H    0.254573
     9  H    0.109234
    10  H    0.318703
    11  H    0.329287
 Sum of Mulliken charges =  -0.00000

 Dipole moment (field-independent basis, Debye):
    X=             -0.9515    Y=              2.3640    Z=              0.5210  Tot=              2.6010
 Quadrupole moment (field-independent basis, Debye-Ang):
   XX=            -29.9689   YY=            -34.1166   ZZ=            -36.2356
   XY=              0.2606   XZ=             -0.5849   YZ=              0.8668

  Exact polarizability:  41.518  -0.595  40.679   0.512   2.794  28.411
 Approx polarizability:  52.845  -1.769  62.858   1.515   7.635  42.099

                      1                      2                      3
                      A                      A                      A
 Frequencies --     84.7202               175.7437               257.1902
 Red. masses --      6.8058                 1.3109                 3.7744
 Frc consts  --      0.0288                 0.0239                 0.1471
 IR Inten    --      0.2426                27.0793                 1.4475

                      4                      5                      6
                      A                      A                      A
 Frequencies --    293.9964               357.9123               445.8883
 Red. masses --      1.6946                 1.8931                 3.5751
 Frc consts  --      0.0863                 0.1429                 0.4188
 IR Inten    --     55.5891                75.5763                27.3121

                      7                      8                      9
                      A                      A                      A
 Frequencies --    541.0039               609.2433               655.2626
 Red. masses --      3.5018                 1.7149                 2.2757
 Frc consts  --      0.6039                 0.3750                 0.5757
 IR Inten    --     59.0410                54.2401                25.4053

                     10                     11                     12
                      A                      A                      A
 Frequencies --    761.0955               818.5633               931.1027
 Red. masses --      3.8239                 2.0629                 1.7483
 Frc consts  --      1.3051                 0.8144                 0.8930
 IR Inten    --    101.6802                84.7599                83.0339

                     13                     14                     15
                      A                      A                      A
 Frequencies --   1020.8293              1128.4771              1176.4038
 Red. masses --      3.7504                 2.8057                 2.4526
 Frc consts  --      2.3027                 2.1051                 1.9998
 IR Inten    --     42.6272               166.3595               176.0955

                     16                     17                     18
                      A                      A                      A
 Frequencies --   1212.7246              1335.0388              1353.6610
 Red. masses --      1.1860                 1.6626                 1.5390
 Frc consts  --      1.0277                 1.7459                 1.6615
 IR Inten    --     56.9989                21.4365                20.9762

                     19                     20                     21
                      A                      A                      A
 Frequencies --   1396.4354              1479.7804              1642.1861
 Red. masses --      1.4608                 1.6125                 1.1059
 Frc consts  --      1.6784                 2.0804                 1.7572
 IR Inten    --     72.9186                10.9149                35.9563

                     22                     23                     24
                      A                      A                      A
 Frequencies --   1856.9708              2998.6497              3491.3756
 Red. masses --     10.4938                 1.0835                 1.0490
 Frc consts  --     21.3203                 5.7400                 7.5339
 IR Inten    --    255.6280                60.1300                 0.4429

                     25                     26                     27
                      A                      A                      A
 Frequencies --   3585.5238              3743.7308              3757.1069
 Red. masses --      1.0934                 1.0642                 1.0649
 Frc consts  --      8.2816                 8.7878                 8.8563
 IR Inten    --      2.0566                53.2933                37.5696

 - Thermochemistry -
 -------------------
 Temperature   298.150 Kelvin.  Pressure   1.00000 Atm.
 Atom     1 has atomic number  7 and mass  14.00307

 Molecular mass:    91.02694 amu.
 Principal axes and moments of inertia in atomic units:
                           1         2         3
     Eigenvalues --   338.96929 556.45902 778.47609
           X            0.99975   0.02192  -0.00516
           Y           -0.02193   0.99976  -0.00096
           Z            0.00514   0.00108   0.99999
 This molecule is an asymmetric top.
 Rotational symmetry number  1.
 Rotational temperatures (Kelvin)      0.25552     0.15565     0.11126
 Rotational constants (GHZ):           5.32420     3.24326     2.31830
 Zero-point vibrational energy     221970.8 (Joules/Mol)
                                   53.05229 (Kcal/Mol)
 Warning -- explicit consideration of   8 degrees of freedom as
           vibrations may cause significant error
 Vibrational temperatures:    121.89   252.86   370.04   422.99   514.96
          (Kelvin)            641.53   778.38   876.56   942.78  1095.05
                             1177.73  1339.65  1468.74  1623.62  1692.58
                             1744.84  1920.82  1947.61  2009.16  2129.07
                             2362.74  2671.76  4314.38  5023.30  5158.76
                             5386.39  5405.63

 Zero-point correction=                           0.084544 (Hartree/Particle)
 Thermal correction to Energy=                    0.091085
 Thermal correction to Enthalpy=                  0.092029
 Thermal correction to Gibbs Free Energy=         0.054314
 Sum of electronic and zero-point Energies=           -359.568986
 Sum of electronic and thermal Energies=              -359.562446
 Sum of electronic and thermal Enthalpies=            -359.561501
 Sum of electronic and thermal Free Energies=         -359.599216

                     E (Thermal)             CV                S
                      KCal/Mol        Cal/Mol-Kelvin    Cal/Mol-Kelvin
 Total                   57.157             22.582             79.378
 Electronic               0.000              0.000              0.000
 Translational            0.889              2.981             39.438
 Rotational               0.889              2.981             26.487
 Vibrational             55.379             16.620             13.453
 Vibration     1          0.601              1.960              3.778
 Vibration     2          0.628              1.872              2.373
 Vibration     3          0.667              1.751              1.681
 Vibration     4          0.689              1.685              1.451
 Vibration     5          0.733              1.559              1.131
 Vibration     6          0.805              1.370              0.808
 Vibration     7          0.896              1.159              0.563
 Vibration     8          0.968              1.012              0.434

 Optimization completed.
    -- Stationary point found.
 Normal termination of Gaussian 09 at Thu Sep  8 15:20:05 2022.
