 Gaussian 09, Revision E.01,
 Gaussian 09:  ES64L-G09RevE.01 30-Nov-2015

 ----------------------------
 #P OPT Freq B3LYP/6-31G(d,p)
 ----------------------------

 --------
 Frag_620
 --------
 Symbolic Z-matrix:
 Charge =  0 Multiplicity = 1

 SCF Done:  E(RB3LYP) =  -340.979434077     A.U. after   13 cycles
 SCF Done:  E(RB3LYP) =  -340.979488977     A.U. after    9 cycles
 SCF Done:  E(RB3LYP) =  -340.979480263     A.U. after    9 cycles
 SCF Done:  E(RB3LYP) =  -340.979493638     A.U. after    9 cycles
 SCF Done:  E(RB3LYP) =  -340.979494170     A.U. after    7 cycles
 SCF Done:  E(RB3LYP) =  -340.979494199     A.U. after    7 cycles
 Optimization completed.
    -- Stationary point found.
 Normal termination of Gaussian 09 at Thu Sep  8 15:19:29 2022.

 ----------------------------------------------------------------------
 #P Geom=AllCheck Guess=TCheck SCRF=Check GenChk RB3LYP/6-31G(d,p) Freq
 ----------------------------------------------------------------------

 Structure from the checkpoint file:  "B3LYP6-31Gdp.Frag_620.chk"
 --------
 Frag_620
 --------
 Charge =  0 Multiplicity = 1

                         Standard orientation:
 ---------------------------------------------------------------------
 Center     Atomic      Atomic             Coordinates (Angstroms)
 Number     Number       Type             X           Y           Z
 ---------------------------------------------------------------------
      1          7           0       -1.663059   -0.656471   -0.363224
      2          6           0       -0.420240    0.012526    0.005476
      3          7           0       -0.467425    1.379866   -0.474053
      4          8           0       -0.318191    0.023212    1.427014
      5          6           0        0.849681   -0.731379   -0.449688
      6          8           0        2.016007   -0.005891   -0.099016
      7          1           0       -1.627861   -0.972807   -1.331093
      8          1           0       -1.766388   -1.479798    0.223548
      9          1           0       -1.119028    1.478828   -1.243696
     10          1           0        0.461205    1.689841   -0.747464
     11          1           0       -0.817241    0.808083    1.698095
     12          1           0        0.846521   -1.740770   -0.009373
     13          1           0        0.850329   -0.831339   -1.540520
     14          1           0        1.926689    0.158752    0.852732
 ---------------------------------------------------------------------

 SCF Done:  E(RB3LYP) =  -340.979494199     A.U. after    1 cycles

 The electronic state is 1-A.
 Alpha  occ. eigenvalues --  -19.14619 -19.14485 -14.32257 -14.31627 -10.28985
 Alpha  occ. eigenvalues --  -10.22845  -1.04438  -1.01063  -0.90088  -0.84632
 Alpha  occ. eigenvalues --   -0.70305  -0.60107  -0.53774  -0.50976  -0.50194
 Alpha  occ. eigenvalues --   -0.46463  -0.44784  -0.41887  -0.40993  -0.36288
 Alpha  occ. eigenvalues --   -0.34311  -0.29549  -0.28592  -0.26156  -0.23468
 Alpha virt. eigenvalues --    0.06699   0.09268   0.12046   0.12769   0.14485
 Alpha virt. eigenvalues --    0.15211   0.15914   0.18646   0.21071   0.23689
 Alpha virt. eigenvalues --    0.26140   0.28984   0.29769   0.54315   0.56746

 Mulliken charges:
               1
     1  N   -0.598279
     2  C    0.435796
     3  N   -0.602177
     4  O   -0.549178
     5  C    0.066422
     6  O   -0.543178
     7  H    0.234496
     8  H    0.252533
     9  H    0.246037
    10  H    0.252756
    11  H    0.314438
    12  H    0.085892
    13  H    0.089400
    14  H    0.315043
 Sum of Mulliken charges =  -0.00000

 Dipole moment (field-independent basis, Debye):
    X=             -0.8178    Y=             -0.6307    Z=             -1.0522  Tot=              1.4743
 Quadrupole moment (field-independent basis, Debye-Ang):
   XX=            -42.0098   YY=            -33.9974   ZZ=            -32.4729
   XY=              1.9767   XZ=              2.6501   YZ=              1.0365

  Exact polarizability:  43.097   2.008  42.759   1.689  -0.085  43.449
 Approx polarizability:  57.355   3.528  57.362   2.588  -1.154  61.995

                      1                      2                      3
                      A                      A                      A
 Frequencies --    151.6200               209.1828               226.2155
 Red. masses --      3.6066                 1.0726                 1.8075
 Frc consts  --      0.0488                 0.0277                 0.0545
 IR Inten    --      6.2405                 9.8137                46.0058

                      4                      5                      6
                      A                      A                      A
 Frequencies --    253.6514               375.5968               382.1575
 Red. masses --      1.6555                 2.1275                 2.1924
 Frc consts  --      0.0628                 0.1768                 0.1887
 IR Inten    --     24.0272                19.9501                26.3415

                      7                      8                      9
                      A                      A                      A
 Frequencies --    440.7847               478.2111               518.2479
 Red. masses --      1.7580                 2.5270                 1.5218
 Frc consts  --      0.2012                 0.3405                 0.2408
 IR Inten    --     32.6366                34.8749                85.5911

                     10                     11                     12
                      A                      A                      A
 Frequencies --    570.5451               619.3980               797.1226
 Red. masses --      1.6823                 4.0161                 1.9534
 Frc consts  --      0.3226                 0.9078                 0.7313
 IR Inten    --     50.4192                 8.4629               171.3866

                     13                     14                     15
                      A                      A                      A
 Frequencies --    817.5299               873.8193               951.9389
 Red. masses --      2.3945                 1.4642                 1.6650
 Frc consts  --      0.9429                 0.6587                 0.8890
 IR Inten    --     31.2979               172.6032                62.3407

                     16                     17                     18
                      A                      A                      A
 Frequencies --   1011.5937              1067.4720              1093.5181
 Red. masses --      2.2533                 1.8735                 2.7821
 Frc consts  --      1.3585                 1.2578                 1.9601
 IR Inten    --     89.6735                39.5744                42.9073

                     19                     20                     21
                      A                      A                      A
 Frequencies --   1123.0749              1204.7643              1311.1915
 Red. masses --      2.0934                 1.1487                 1.6517
 Frc consts  --      1.5557                 0.9823                 1.6730
 IR Inten    --    117.4535                28.8316                29.4017

                     22                     23                     24
                      A                      A                      A
 Frequencies --   1341.0561              1384.2223              1391.6428
 Red. masses --      1.8266                 1.6400                 1.4569
 Frc consts  --      1.9354                 1.8514                 1.6625
 IR Inten    --     27.4627                97.6881                30.1546

                     25                     26                     27
                      A                      A                      A
 Frequencies --   1443.3651              1509.0537              1623.6522
 Red. masses --      1.3540                 1.0905                 1.1154
 Frc consts  --      1.6619                 1.4631                 1.7325
 IR Inten    --     36.3682                 2.1927                70.7215

                     28                     29                     30
                      A                      A                      A
 Frequencies --   1653.8198              3000.4237              3089.6587
 Red. masses --      1.1322                 1.0676                 1.0976
 Frc consts  --      1.8245                 5.6629                 6.1733
 IR Inten    --     33.2985                62.4555                36.2492

                     31                     32                     33
                      A                      A                      A
 Frequencies --   3488.1421              3516.0704              3590.0544
 Red. masses --      1.0508                 1.0492                 1.0911
 Frc consts  --      7.5331                 7.6423                 8.2857
 IR Inten    --      1.2792                 3.6751                 2.3380

                     34                     35                     36
                      A                      A                      A
 Frequencies --   3632.0147              3768.6769              3790.4347
 Red. masses --      1.0948                 1.0650                 1.0650
 Frc consts  --      8.5088                 8.9124                 9.0153
 IR Inten    --     11.0246                33.5781                39.4200

 - Thermochemistry -
 -------------------
 Temperature   298.150 Kelvin.  Pressure   1.00000 Atm.
 Atom     1 has atomic number  7 and mass  14.00307

 Molecular mass:    92.05858 amu.
 Principal axes and moments of inertia in atomic units:
                           1         2         3
     Eigenvalues --   363.68342 650.61857 658.57308
           X            0.99973   0.00197   0.02334
           Y           -0.00963   0.94291   0.33291
           Z           -0.02135  -0.33304   0.94267
 This molecule is an asymmetric top.
 Rotational symmetry number  1.
 Rotational temperatures (Kelvin)      0.23816     0.13313     0.13152
 Rotational constants (GHZ):           4.96240     2.77389     2.74038
 Zero-point vibrational energy     315215.5 (Joules/Mol)
                                   75.33832 (Kcal/Mol)
 Warning -- explicit consideration of  11 degrees of freedom as
           vibrations may cause significant error
 Vibrational temperatures:    218.15   300.97   325.47   364.95   540.40
          (Kelvin)            549.84   634.19   688.04   745.64   820.89
                              891.17  1146.88  1176.24  1257.23  1369.63
                             1455.46  1535.85  1573.33  1615.85  1733.38
                             1886.51  1929.48  1991.58  2002.26  2076.68
                             2171.19  2336.07  2379.47  4316.94  4445.32
                             5018.65  5058.83  5165.28  5225.65  5422.28
                             5453.58

 Zero-point correction=                           0.120059 (Hartree/Particle)
 Thermal correction to Energy=                    0.127229
 Thermal correction to Enthalpy=                  0.128173
 Thermal correction to Gibbs Free Energy=         0.089870
 Sum of electronic and zero-point Energies=           -340.859435
 Sum of electronic and thermal Energies=              -340.852265
 Sum of electronic and thermal Enthalpies=            -340.851321
 Sum of electronic and thermal Free Energies=         -340.889624

                     E (Thermal)             CV                S
                      KCal/Mol        Cal/Mol-Kelvin    Cal/Mol-Kelvin
 Total                   79.837             26.670             80.615
 Electronic               0.000              0.000              0.000
 Translational            0.889              2.981             39.471
 Rotational               0.889              2.981             26.547
 Vibrational             78.060             20.708             14.597
 Vibration     1          0.619              1.901              2.652
 Vibration     2          0.642              1.827              2.051
 Vibration     3          0.650              1.801              1.909
 Vibration     4          0.665              1.757              1.705
 Vibration     5          0.746              1.522              1.057
 Vibration     6          0.752              1.508              1.031
 Vibration     7          0.801              1.381              0.824
 Vibration     8          0.835              1.298              0.715
 Vibration     9          0.873              1.210              0.614
 Vibration    10          0.927              1.095              0.503
 Vibration    11          0.979              0.991              0.417

 Normal termination of Gaussian 09 at Thu Sep  8 15:19:40 2022.
