 Gaussian 09, Revision E.01,
 Gaussian 09:  ES64L-G09RevE.01 30-Nov-2015

 ----------------------------
 #P OPT Freq B3LYP/6-31G(d,p)
 ----------------------------

 ---------
 Frag_1005
 ---------
 Symbolic Z-matrix:
 Charge =  0 Multiplicity = 1

 SCF Done:  E(RB3LYP) =  -339.352233951     A.U. after   14 cycles
 SCF Done:  E(RB3LYP) =  -339.352286622     A.U. after   11 cycles
 SCF Done:  E(RB3LYP) =  -339.352277971     A.U. after   11 cycles
 SCF Done:  E(RB3LYP) =  -339.352303225     A.U. after   10 cycles
 SCF Done:  E(RB3LYP) =  -339.352304608     A.U. after    8 cycles
 SCF Done:  E(RB3LYP) =  -339.352305115     A.U. after    7 cycles
 Optimization completed.
    -- Stationary point found.
 Normal termination of Gaussian 09 at Thu Sep  8 14:50:17 2022.

 ----------------------------------------------------------------------
 #P Geom=AllCheck Guess=TCheck SCRF=Check GenChk RB3LYP/6-31G(d,p) Freq
 ----------------------------------------------------------------------

 Structure from the checkpoint file:  "B3LYP6-31Gdp.Frag_1005.chk"
 ---------
 Frag_1005
 ---------
 Charge =  0 Multiplicity = 1

                         Standard orientation:
 ---------------------------------------------------------------------
 Center     Atomic      Atomic             Coordinates (Angstroms)
 Number     Number       Type             X           Y           Z
 ---------------------------------------------------------------------
      1          6           0       -1.079965   -1.202522   -0.814690
      2          6           0       -0.579049   -0.003686    0.011259
      3          7           0       -1.044499   -0.174387    1.397985
      4          7           0       -1.163300    1.265998   -0.425425
      5          6           0        0.966857    0.155704   -0.054593
      6          7           0        1.587015    1.273275   -0.083311
      7          7           0        1.692021   -1.028726   -0.070537
      8          1           0       -0.765606   -1.109480   -1.858098
      9          1           0       -0.707369   -2.164211   -0.446011
     10          1           0       -2.172319   -1.232695   -0.769284
     11          1           0       -0.657497    0.579419    1.962952
     12          1           0       -0.699737   -1.048276    1.787295
     13          1           0       -2.160826    1.235719   -0.229660
     14          1           0       -1.041927    1.383190   -1.428602
     15          1           0        0.891879    2.022183   -0.126117
     16          1           0        1.293419   -1.829109    0.397236
     17          1           0        2.674265   -0.886841    0.127457
 ---------------------------------------------------------------------

 SCF Done:  E(RB3LYP) =  -339.352305115     A.U. after    1 cycles

 The electronic state is 1-A.
 Alpha  occ. eigenvalues --  -14.33769 -14.32485 -14.32077 -14.27768 -10.25719
 Alpha  occ. eigenvalues --  -10.24141 -10.18429  -0.95051  -0.90933  -0.84786
 Alpha  occ. eigenvalues --   -0.82951  -0.72934  -0.62817  -0.56402  -0.53830
 Alpha  occ. eigenvalues --   -0.50121  -0.49453  -0.43496  -0.43202  -0.42082
 Alpha  occ. eigenvalues --   -0.40366  -0.39060  -0.37782  -0.34729  -0.27206
 Alpha  occ. eigenvalues --   -0.25047  -0.23386  -0.22625
 Alpha virt. eigenvalues --    0.03834   0.05094   0.09753   0.11920   0.12938
 Alpha virt. eigenvalues --    0.14000   0.15028   0.15822   0.17970   0.19071
 Alpha virt. eigenvalues --    0.20703   0.22313   0.25029   0.26453   0.28018

 Mulliken charges:
               1
     1  C   -0.296462
     2  C    0.171734
     3  N   -0.571729
     4  N   -0.593307
     5  C    0.449211
     6  N   -0.592544
     7  N   -0.610615
     8  H    0.115102
     9  H    0.086079
    10  H    0.111561
    11  H    0.251217
    12  H    0.229690
    13  H    0.250878
    14  H    0.244981
    15  H    0.239309
    16  H    0.246166
    17  H    0.268726
 Sum of Mulliken charges =  -0.00000

 Dipole moment (field-independent basis, Debye):
    X=             -1.4608    Y=             -2.4506    Z=              0.4303  Tot=              2.8853
 Quadrupole moment (field-independent basis, Debye-Ang):
   XX=            -46.5289   YY=            -42.6014   ZZ=            -40.6271
   XY=             -5.9855   XZ=              4.9775   YZ=             -3.1772

  Exact polarizability:  61.417   0.536  66.801  -0.042  -2.256  48.329
 Approx polarizability:  83.009   3.918 104.335  -2.868  -4.334  67.826

                      1                      2                      3
                      A                      A                      A
 Frequencies --     63.2962               225.0136               250.6205
 Red. masses --      3.3966                 1.7041                 1.4924
 Frc consts  --      0.0080                 0.0508                 0.0552
 IR Inten    --      5.5513                 4.5726                 7.0206

                      4                      5                      6
                      A                      A                      A
 Frequencies --    284.4035               293.6257               325.7063
 Red. masses --      1.1452                 1.7643                 1.5496
 Frc consts  --      0.0546                 0.0896                 0.0969
 IR Inten    --     21.4842                10.3231                15.0481

                      7                      8                      9
                      A                      A                      A
 Frequencies --    372.0918               394.4403               413.4472
 Red. masses --      1.9382                 1.4624                 2.5770
 Frc consts  --      0.1581                 0.1341                 0.2595
 IR Inten    --     19.1549                73.2135                16.4574

                     10                     11                     12
                      A                      A                      A
 Frequencies --    440.3693               523.6897               566.6389
 Red. masses --      2.4345                 3.0432                 2.4459
 Frc consts  --      0.2782                 0.4917                 0.4627
 IR Inten    --      3.9875                 1.2215                41.2504

                     13                     14                     15
                      A                      A                      A
 Frequencies --    594.8175               713.2688               746.5642
 Red. masses --      1.4320                 3.5637                 4.4864
 Frc consts  --      0.2985                 1.0682                 1.4733
 IR Inten    --    190.8625                 6.3431                29.7185

                     16                     17                     18
                      A                      A                      A
 Frequencies --    865.0098               893.9857               917.1090
 Red. masses --      1.7355                 2.0805                 1.2229
 Frc consts  --      0.7651                 0.9796                 0.6060
 IR Inten    --    113.0477               102.3407                90.4134

                     19                     20                     21
                      A                      A                      A
 Frequencies --    943.3407               993.5124              1033.2691
 Red. masses --      1.1750                 1.4221                 1.8791
 Frc consts  --      0.6161                 0.8270                 1.1820
 IR Inten    --     41.2434                28.1177                21.2905

                     22                     23                     24
                      A                      A                      A
 Frequencies --   1081.8476              1123.4322              1170.3641
 Red. masses --      1.6266                 1.8431                 1.3790
 Frc consts  --      1.1217                 1.3705                 1.1129
 IR Inten    --     18.9391                11.8351                67.7306

                     25                     26                     27
                      A                      A                      A
 Frequencies --   1246.3761              1307.6394              1344.8893
 Red. masses --      2.5138                 1.8575                 1.7501
 Frc consts  --      2.3008                 1.8713                 1.8650
 IR Inten    --    107.0214                23.4553                 8.6922

                     28                     29                     30
                      A                      A                      A
 Frequencies --   1416.7877              1437.7614              1496.4173
 Red. masses --      1.4806                 1.7616                 1.0611
 Frc consts  --      1.7510                 2.1456                 1.3999
 IR Inten    --     14.4385                41.6076                 1.3491

                     31                     32                     33
                      A                      A                      A
 Frequencies --   1510.2049              1630.5585              1638.0345
 Red. masses --      1.0685                 1.2508                 1.1149
 Frc consts  --      1.4358                 1.9594                 1.7625
 IR Inten    --      7.1377                21.2606                86.7340

                     34                     35                     36
                      A                      A                      A
 Frequencies --   1655.5969              1729.3747              3046.2715
 Red. masses --      1.1120                 5.7010                 1.0366
 Frc consts  --      1.7959                10.0457                 5.6677
 IR Inten    --     43.1584               155.9105                18.9785

                     37                     38                     39
                      A                      A                      A
 Frequencies --   3113.5849              3136.1750              3473.5177
 Red. masses --      1.0999                 1.1043                 1.0724
 Frc consts  --      6.2822                 6.3993                 7.6233
 IR Inten    --     31.9234                19.2006                12.2990

                     40                     41                     42
                      A                      A                      A
 Frequencies --   3490.6695              3496.1297              3570.3338
 Red. masses --      1.0495                 1.0490                 1.0472
 Frc consts  --      7.5347                 7.5541                 7.8647
 IR Inten    --      0.7595                 0.4989                11.6879

                     43                     44                     45
                      A                      A                      A
 Frequencies --   3584.1366              3591.5005              3691.0001
 Red. masses --      1.0926                 1.0937                 1.0989
 Frc consts  --      8.2695                 8.3117                 8.8207
 IR Inten    --      0.3046                 1.8885                12.2533

 - Thermochemistry -
 -------------------
 Temperature   298.150 Kelvin.  Pressure   1.00000 Atm.
 Atom     1 has atomic number  6 and mass  12.00000

 Molecular mass:   102.09055 amu.
 Principal axes and moments of inertia in atomic units:
                           1         2         3
     Eigenvalues --   536.47599 759.82769 927.56025
           X            0.99917  -0.02413   0.03285
           Y            0.02425   0.99970  -0.00308
           Z           -0.03276   0.00388   0.99946
 This molecule is an asymmetric top.
 Rotational symmetry number  1.
 Warning -- assumption of classical behavior for rotation
           may cause significant error
 Rotational temperatures (Kelvin)      0.16145     0.11399     0.09338
 Rotational constants (GHZ):           3.36407     2.37520     1.94569
 Zero-point vibrational energy     393791.7 (Joules/Mol)
                                   94.11846 (Kcal/Mol)
 Warning -- explicit consideration of  13 degrees of freedom as
           vibrations may cause significant error
 Vibrational temperatures:     91.07   323.74   360.59   409.19   422.46
          (Kelvin)            468.62   535.36   567.51   594.86   633.59
                              753.47   815.27   855.81  1026.23  1074.14
                             1244.55  1286.24  1319.51  1357.26  1429.44
                             1486.64  1556.54  1616.37  1683.89  1793.25
                             1881.40  1934.99  2038.44  2068.62  2153.01
                             2172.85  2346.01  2356.76  2382.03  2488.18
                             4382.90  4479.75  4512.25  4997.61  5022.29
                             5030.14  5136.91  5156.77  5167.36  5310.52

 Zero-point correction=                           0.149987 (Hartree/Particle)
 Thermal correction to Energy=                    0.158284
 Thermal correction to Enthalpy=                  0.159229
 Thermal correction to Gibbs Free Energy=         0.118169
 Sum of electronic and zero-point Energies=           -339.202318
 Sum of electronic and thermal Energies=              -339.194021
 Sum of electronic and thermal Enthalpies=            -339.193077
 Sum of electronic and thermal Free Energies=         -339.234137

                     E (Thermal)             CV                S
                      KCal/Mol        Cal/Mol-Kelvin    Cal/Mol-Kelvin
 Total                   99.325             31.681             86.418
 Electronic               0.000              0.000              0.000
 Translational            0.889              2.981             39.780
 Rotational               0.889              2.981             27.427
 Vibrational             97.548             25.719             19.211
 Vibration     1          0.597              1.972              4.352
 Vibration     2          0.650              1.803              1.918
 Vibration     3          0.663              1.762              1.726
 Vibration     4          0.683              1.703              1.507
 Vibration     5          0.688              1.686              1.453
 Vibration     6          0.710              1.624              1.281
 Vibration     7          0.744              1.529              1.071
 Vibration     8          0.761              1.482              0.983
 Vibration     9          0.777              1.441              0.915
 Vibration    10          0.800              1.382              0.825
 Vibration    11          0.879              1.198              0.601
 Vibration    12          0.923              1.103              0.511
 Vibration    13          0.953              1.043              0.459

 Normal termination of Gaussian 09 at Thu Sep  8 14:50:34 2022.
