 Gaussian 09, Revision E.01,
 Gaussian 09:  ES64L-G09RevE.01 30-Nov-2015

 ----------------------------
 #P OPT Freq B3LYP/6-31G(d,p)
 ----------------------------

 --------
 Frag_560
 --------
 Symbolic Z-matrix:
 Charge =  0 Multiplicity = 1

 SCF Done:  E(RB3LYP) =  -267.939632741     A.U. after   13 cycles
 SCF Done:  E(RB3LYP) =  -267.939675260     A.U. after    9 cycles
 SCF Done:  E(RB3LYP) =  -267.939678106     A.U. after    8 cycles
 SCF Done:  E(RB3LYP) =  -267.939679370     A.U. after    8 cycles
 SCF Done:  E(RB3LYP) =  -267.939679714     A.U. after    7 cycles
 Optimization completed.
    -- Stationary point found.
 Normal termination of Gaussian 09 at Thu Sep  8 15:06:11 2022.

 ----------------------------------------------------------------------
 #P Geom=AllCheck Guess=TCheck SCRF=Check GenChk RB3LYP/6-31G(d,p) Freq
 ----------------------------------------------------------------------

 Structure from the checkpoint file:  "B3LYP6-31Gdp.Frag_560.chk"
 --------
 Frag_560
 --------
 Charge =  0 Multiplicity = 1

                         Standard orientation:
 ---------------------------------------------------------------------
 Center     Atomic      Atomic             Coordinates (Angstroms)
 Number     Number       Type             X           Y           Z
 ---------------------------------------------------------------------
      1          6           0        1.181765    1.245332    0.601403
      2          6           0        0.794573    0.126409   -0.028152
      3          7           0        1.685890   -0.851902   -0.497587
      4          6           0       -0.660230   -0.178001   -0.363210
      5          6           0       -1.269809   -1.161474    0.650053
      6          7           0       -1.460509    1.048513   -0.360422
      7          1           0        0.450624    1.990555    0.882867
      8          1           0        2.225676    1.432303    0.836185
      9          1           0        1.313535   -1.793566   -0.501245
     10          1           0        2.594125   -0.828088   -0.051099
     11          1           0       -0.647573   -0.677154   -1.350774
     12          1           0       -0.689102   -2.087567    0.713727
     13          1           0       -2.291223   -1.434019    0.360613
     14          1           0       -1.299018   -0.698118    1.639481
     15          1           0       -1.095472    1.695395   -1.055353
     16          1           0       -2.417036    0.830383   -0.628909
 ---------------------------------------------------------------------

 SCF Done:  E(RB3LYP) =  -267.939679714     A.U. after    1 cycles

 The electronic state is 1-A.
 Alpha  occ. eigenvalues --  -14.32970 -14.30981 -10.21651 -10.20810 -10.17700
 Alpha  occ. eigenvalues --  -10.14328  -0.90805  -0.87444  -0.73849  -0.70911
 Alpha  occ. eigenvalues --   -0.62049  -0.53303  -0.50465  -0.48605  -0.46691
 Alpha  occ. eigenvalues --   -0.42365  -0.41297  -0.38476  -0.36770  -0.36754
 Alpha  occ. eigenvalues --   -0.33043  -0.31171  -0.23370  -0.19481
 Alpha virt. eigenvalues --    0.05120   0.07303   0.09513   0.12979   0.14453
 Alpha virt. eigenvalues --    0.15791   0.16262   0.17750   0.18588   0.19544
 Alpha virt. eigenvalues --    0.22589   0.23413   0.25491   0.28567   0.34922

 Mulliken charges:
               1
     1  C   -0.321429
     2  C    0.302935
     3  N   -0.636785
     4  C    0.014564
     5  C   -0.301690
     6  N   -0.599111
     7  H    0.108071
     8  H    0.065508
     9  H    0.247938
    10  H    0.251681
    11  H    0.078288
    12  H    0.088635
    13  H    0.096485
    14  H    0.129465
    15  H    0.241862
    16  H    0.233583
 Sum of Mulliken charges =  -0.00000

 Dipole moment (field-independent basis, Debye):
    X=             -0.3263    Y=             -1.7416    Z=             -0.6592  Tot=              1.8905
 Quadrupole moment (field-independent basis, Debye-Ang):
   XX=            -33.7680   YY=            -36.3219   ZZ=            -40.1251
   XY=             -1.8194   XZ=              4.0514   YZ=             -1.8950

  Exact polarizability:  62.692   2.413  64.386   3.290   7.622  43.273
 Approx polarizability:  80.073   3.458  95.943   4.492  17.968  63.915

                      1                      2                      3
                      A                      A                      A
 Frequencies --     88.0826               236.5711               245.2953
 Red. masses --      3.1628                 1.1970                 1.6503
 Frc consts  --      0.0145                 0.0395                 0.0585
 IR Inten    --      1.7570                 9.9209                 3.1814

                      4                      5                      6
                      A                      A                      A
 Frequencies --    284.7758               319.2448               327.4977
 Red. masses --      1.0902                 2.4051                 1.3028
 Frc consts  --      0.0521                 0.1444                 0.0823
 IR Inten    --     20.5510                11.3710                38.4834

                      7                      8                      9
                      A                      A                      A
 Frequencies --    392.0405               463.0749               543.3373
 Red. masses --      2.7055                 2.2973                 3.0317
 Frc consts  --      0.2450                 0.2903                 0.5273
 IR Inten    --      5.7010                 5.6596                10.2966

                     10                     11                     12
                      A                      A                      A
 Frequencies --    612.0926               677.0340               763.9626
 Red. masses --      1.8816                 1.4253                 1.2876
 Frc consts  --      0.4153                 0.3849                 0.4428
 IR Inten    --    119.8762               124.0633                22.3887

                     13                     14                     15
                      A                      A                      A
 Frequencies --    779.5910               827.8280               871.6596
 Red. masses --      2.2142                 1.3933                 1.3790
 Frc consts  --      0.7929                 0.5626                 0.6173
 IR Inten    --     16.5718                72.2812                91.4781

                     16                     17                     18
                      A                      A                      A
 Frequencies --    943.9825               989.8036              1016.3972
 Red. masses --      2.0516                 1.5438                 1.5464
 Frc consts  --      1.0771                 0.8911                 0.9412
 IR Inten    --      5.3109                 5.4901                 3.4693

                     19                     20                     21
                      A                      A                      A
 Frequencies --   1096.8363              1121.8698              1170.8424
 Red. masses --      1.7712                 1.6304                 1.9477
 Frc consts  --      1.2554                 1.2090                 1.5732
 IR Inten    --     18.5478                 3.8582                 9.9793

                     22                     23                     24
                      A                      A                      A
 Frequencies --   1255.1094              1325.8063              1384.2324
 Red. masses --      1.2123                 2.0185                 1.3541
 Frc consts  --      1.1252                 2.0904                 1.5287
 IR Inten    --      0.2476                38.4450                15.4118

                     25                     26                     27
                      A                      A                      A
 Frequencies --   1416.4817              1431.0692              1445.7599
 Red. masses --      1.3147                 1.6381                 1.2247
 Frc consts  --      1.5542                 1.9766                 1.5082
 IR Inten    --      6.2844                 6.8820                 5.0203

                     28                     29                     30
                      A                      A                      A
 Frequencies --   1504.4099              1514.2991              1654.6840
 Red. masses --      1.0555                 1.0762                 1.1164
 Frc consts  --      1.4075                 1.4540                 1.8009
 IR Inten    --      1.8892                 3.8241                30.9972

                     31                     32                     33
                      A                      A                      A
 Frequencies --   1663.0068              1731.2852              2923.5349
 Red. masses --      1.1386                 4.7957                 1.0815
 Frc consts  --      1.8552                 8.4691                 5.4463
 IR Inten    --     56.2242                84.8126                79.1734

                     34                     35                     36
                      A                      A                      A
 Frequencies --   3042.4891              3107.2508              3139.3293
 Red. masses --      1.0367                 1.1008                 1.1023
 Frc consts  --      5.6539                 6.2620                 6.4008
 IR Inten    --     27.8869                37.7787                20.4220

                     37                     38                     39
                      A                      A                      A
 Frequencies --   3165.7973              3276.3243              3491.4373
 Red. masses --      1.0636                 1.1115                 1.0494
 Frc consts  --      6.2807                 7.0295                 7.5370
 IR Inten    --     15.3063                 3.9597                 1.0349

                     40                     41                     42
                      A                      A                      A
 Frequencies --   3546.9817              3580.8043              3650.2356
 Red. masses --      1.0477                 1.0932                 1.0971
 Frc consts  --      7.7664                 8.2589                 8.6123
 IR Inten    --      2.9620                 0.1473                 4.7079

 - Thermochemistry -
 -------------------
 Temperature   298.150 Kelvin.  Pressure   1.00000 Atm.
 Atom     1 has atomic number  6 and mass  12.00000

 Molecular mass:    86.08440 amu.
 Principal axes and moments of inertia in atomic units:
                           1         2         3
     Eigenvalues --   380.58216 614.35731 818.42614
           X            0.99953   0.02799   0.01241
           Y           -0.02785   0.99955  -0.01119
           Z           -0.01272   0.01083   0.99986
 This molecule is an asymmetric top.
 Rotational symmetry number  1.
 Rotational temperatures (Kelvin)      0.22758     0.14098     0.10583
 Rotational constants (GHZ):           4.74205     2.93761     2.20514
 Zero-point vibrational energy     376956.2 (Joules/Mol)
                                   90.09468 (Kcal/Mol)
 Warning -- explicit consideration of  10 degrees of freedom as
           vibrations may cause significant error
 Vibrational temperatures:    126.73   340.37   352.92   409.73   459.32
          (Kelvin)            471.20   564.06   666.26   781.74   880.66
                              974.10  1099.17  1121.66  1191.06  1254.12
                             1358.18  1424.10  1462.37  1578.10  1614.12
                             1684.58  1805.82  1907.54  1991.60  2038.00
                             2058.99  2080.12  2164.51  2178.74  2380.72
                             2392.69  2490.93  4206.31  4377.46  4470.64
                             4516.79  4554.87  4713.89  5023.39  5103.31
                             5151.97  5251.87

 Zero-point correction=                           0.143575 (Hartree/Particle)
 Thermal correction to Energy=                    0.150985
 Thermal correction to Enthalpy=                  0.151929
 Thermal correction to Gibbs Free Energy=         0.113007
 Sum of electronic and zero-point Energies=           -267.796105
 Sum of electronic and thermal Energies=              -267.788695
 Sum of electronic and thermal Enthalpies=            -267.787751
 Sum of electronic and thermal Free Energies=         -267.826672

                     E (Thermal)             CV                S
                      KCal/Mol        Cal/Mol-Kelvin    Cal/Mol-Kelvin
 Total                   94.744             27.758             81.917
 Electronic               0.000              0.000              0.000
 Translational            0.889              2.981             39.271
 Rotational               0.889              2.981             26.751
 Vibrational             92.967             21.797             15.895
 Vibration     1          0.601              1.958              3.702
 Vibration     2          0.655              1.785              1.829
 Vibration     3          0.660              1.771              1.764
 Vibration     4          0.683              1.702              1.505
 Vibration     5          0.705              1.637              1.314
 Vibration     6          0.711              1.621              1.272
 Vibration     7          0.759              1.487              0.992
 Vibration     8          0.821              1.332              0.757
 Vibration     9          0.898              1.154              0.558
 Vibration    10          0.971              1.006              0.429

 Normal termination of Gaussian 09 at Thu Sep  8 15:06:24 2022.
