 Gaussian 09, Revision E.01,
 Gaussian 09:  ES64L-G09RevE.01 30-Nov-2015

 ----------------------------
 #P OPT Freq B3LYP/6-31G(d,p)
 ----------------------------

 ---------
 Frag_1094
 ---------
 Symbolic Z-matrix:
 Charge =  0 Multiplicity = 1

 SCF Done:  E(RB3LYP) =  -265.659659684     A.U. after   13 cycles
 SCF Done:  E(RB3LYP) =  -265.659706975     A.U. after   10 cycles
 SCF Done:  E(RB3LYP) =  -265.659719582     A.U. after    9 cycles
 SCF Done:  E(RB3LYP) =  -265.659725187     A.U. after    8 cycles
 SCF Done:  E(RB3LYP) =  -265.659727577     A.U. after    8 cycles
 SCF Done:  E(RB3LYP) =  -265.659727991     A.U. after    7 cycles
 SCF Done:  E(RB3LYP) =  -265.659728154     A.U. after    7 cycles
 Optimization completed.
    -- Stationary point found.
 Normal termination of Gaussian 09 at Thu Sep  8 14:50:52 2022.

 ----------------------------------------------------------------------
 #P Geom=AllCheck Guess=TCheck SCRF=Check GenChk RB3LYP/6-31G(d,p) Freq
 ----------------------------------------------------------------------

 Structure from the checkpoint file:  "B3LYP6-31Gdp.Frag_1094.chk"
 ---------
 Frag_1094
 ---------
 Charge =  0 Multiplicity = 1

                         Standard orientation:
 ---------------------------------------------------------------------
 Center     Atomic      Atomic             Coordinates (Angstroms)
 Number     Number       Type             X           Y           Z
 ---------------------------------------------------------------------
      1          6           0        1.740062    0.067004    0.404671
      2          7           0        0.779864   -0.466952   -0.558369
      3          7           0       -0.570677   -0.075212   -0.491646
      4          6           0       -0.830342    1.255675    0.052946
      5          8           0       -1.303986   -1.014861    0.299603
      6          1           0        1.866039    1.161182    0.395318
      7          1           0        1.467738   -0.234465    1.422127
      8          1           0        2.709824   -0.389075    0.187417
      9          1           0        1.086985   -0.358675   -1.517342
     10          1           0       -0.520874    1.376449    1.105033
     11          1           0       -1.903749    1.438154   -0.014268
     12          1           0       -0.305111    1.998474   -0.555130
     13          1           0       -0.891595   -1.014090    1.184424
 ---------------------------------------------------------------------

 SCF Done:  E(RB3LYP) =  -265.659728154     A.U. after    1 cycles

 The electronic state is 1-A.
 Alpha  occ. eigenvalues --  -19.15805 -14.39652 -14.34871 -10.21505 -10.20894
 Alpha  occ. eigenvalues --   -1.06272  -0.92414  -0.78796  -0.70275  -0.62058
 Alpha  occ. eigenvalues --   -0.53407  -0.48623  -0.47937  -0.43434  -0.43059
 Alpha  occ. eigenvalues --   -0.40300  -0.39160  -0.36172  -0.28238  -0.23689
 Alpha  occ. eigenvalues --   -0.23171
 Alpha virt. eigenvalues --    0.05861   0.10492   0.11044   0.13226   0.15073
 Alpha virt. eigenvalues --    0.15610   0.16211   0.16475   0.18865   0.21585
 Alpha virt. eigenvalues --    0.23065   0.28004   0.51003   0.52762   0.54735

 Mulliken charges:
               1
     1  C   -0.183131
     2  N   -0.345649
     3  N   -0.100781
     4  C   -0.153344
     5  O   -0.415352
     6  H    0.094842
     7  H    0.109338
     8  H    0.120566
     9  H    0.261270
    10  H    0.078957
    11  H    0.136447
    12  H    0.110000
    13  H    0.286838
 Sum of Mulliken charges =  -0.00000

 Dipole moment (field-independent basis, Debye):
    X=              2.1305    Y=              2.0785    Z=              1.1454  Tot=              3.1892
 Quadrupole moment (field-independent basis, Debye-Ang):
   XX=            -31.8889   YY=            -33.2302   ZZ=            -28.6123
   XY=             -2.1099   XZ=             -2.2227   YZ=             -1.7505

  Exact polarizability:  47.206   0.147  39.241  -1.488  -1.336  39.028
 Approx polarizability:  60.923   2.973  52.872  -2.252  -1.635  56.564

                      1                      2                      3
                      A                      A                      A
 Frequencies --    107.8609               230.8803               288.2024
 Red. masses --      2.3284                 1.1135                 1.0544
 Frc consts  --      0.0160                 0.0350                 0.0516
 IR Inten    --      9.1045                 0.9372                15.0144

                      4                      5                      6
                      A                      A                      A
 Frequencies --    299.7697               333.8021               437.3247
 Red. masses --      1.9749                 1.2080                 2.6876
 Frc consts  --      0.1046                 0.0793                 0.3028
 IR Inten    --     10.7351                83.7772                 5.2840

                      7                      8                      9
                      A                      A                      A
 Frequencies --    497.6636               523.9094               626.0053
 Red. masses --      3.0998                 2.4813                 2.1273
 Frc consts  --      0.4523                 0.4013                 0.4912
 IR Inten    --     28.1479                 3.8258                82.1653

                     10                     11                     12
                      A                      A                      A
 Frequencies --    793.7901               937.0715              1062.6436
 Red. masses --      4.7449                 2.1074                 4.1083
 Frc consts  --      1.7615                 1.0903                 2.7333
 IR Inten    --     23.8511                29.8246                17.2021

                     13                     14                     15
                      A                      A                      A
 Frequencies --   1113.0451              1133.9859              1150.9057
 Red. masses --      2.1314                 1.3852                 1.6410
 Frc consts  --      1.5557                 1.0495                 1.2807
 IR Inten    --      6.9464                 5.2472                 5.0326

                     16                     17                     18
                      A                      A                      A
 Frequencies --   1191.6971              1241.9341              1393.0551
 Red. masses --      1.7617                 2.3942                 1.1837
 Frc consts  --      1.4741                 2.1757                 1.3535
 IR Inten    --     12.5435                13.9480                28.5529

                     19                     20                     21
                      A                      A                      A
 Frequencies --   1444.0380              1464.3483              1485.1480
 Red. masses --      1.1803                 1.1538                 1.1248
 Frc consts  --      1.4500                 1.4577                 1.4617
 IR Inten    --      0.0509                 2.3287                 1.1832

                     22                     23                     24
                      A                      A                      A
 Frequencies --   1494.2034              1506.8547              1517.8423
 Red. masses --      1.0601                 1.0570                 1.0658
 Frc consts  --      1.3944                 1.4141                 1.4467
 IR Inten    --      1.8801                18.8552                 5.9109

                     25                     26                     27
                      A                      A                      A
 Frequencies --   1531.6097              2972.4171              2990.8658
 Red. masses --      1.0490                 1.0541                 1.0525
 Frc consts  --      1.4498                 5.4871                 5.5468
 IR Inten    --      6.9648                26.7028                92.3482

                     28                     29                     30
                      A                      A                      A
 Frequencies --   3074.3455              3094.7235              3121.8746
 Red. masses --      1.0853                 1.0803                 1.1002
 Frc consts  --      6.0438                 6.0957                 6.3173
 IR Inten    --     27.6071                32.2607                22.7513

                     31                     32                     33
                      A                      A                      A
 Frequencies --   3152.3075              3573.2702              3631.0477
 Red. masses --      1.1021                 1.0763                 1.0674
 Frc consts  --      6.4522                 8.0968                 8.2916
 IR Inten    --     15.7602                 2.3466                 3.3729

 - Thermochemistry -
 -------------------
 Temperature   298.150 Kelvin.  Pressure   1.00000 Atm.
 Atom     1 has atomic number  6 and mass  12.00000

 Molecular mass:    76.06366 amu.
 Principal axes and moments of inertia in atomic units:
                           1         2         3
     Eigenvalues --   241.52848 437.68656 546.18068
           X            0.99889  -0.04686   0.00416
           Y            0.04687   0.99889  -0.00363
           Z           -0.00399   0.00382   0.99998
 This molecule is an asymmetric top.
 Rotational symmetry number  1.
 Rotational temperatures (Kelvin)      0.35861     0.19789     0.15858
 Rotational constants (GHZ):           7.47217     4.12336     3.30429
 Zero-point vibrational energy     295587.9 (Joules/Mol)
                                   70.64721 (Kcal/Mol)
 Warning -- explicit consideration of   8 degrees of freedom as
           vibrations may cause significant error
 Vibrational temperatures:    155.19   332.18   414.66   431.30   480.27
          (Kelvin)            629.21   716.03   753.79   900.68  1142.09
                             1348.24  1528.91  1601.42  1631.55  1655.89
                             1714.58  1786.86  2004.29  2077.65  2106.87
                             2136.79  2149.82  2168.03  2183.83  2203.64
                             4276.64  4303.18  4423.29  4452.61  4491.68
                             4535.46  5141.13  5224.26

 Zero-point correction=                           0.112583 (Hartree/Particle)
 Thermal correction to Energy=                    0.119035
 Thermal correction to Enthalpy=                  0.119980
 Thermal correction to Gibbs Free Energy=         0.083373
 Sum of electronic and zero-point Energies=           -265.547145
 Sum of electronic and thermal Energies=              -265.540693
 Sum of electronic and thermal Enthalpies=            -265.539749
 Sum of electronic and thermal Free Energies=         -265.576355

                     E (Thermal)             CV                S
                      KCal/Mol        Cal/Mol-Kelvin    Cal/Mol-Kelvin
 Total                   74.696             22.721             77.044
 Electronic               0.000              0.000              0.000
 Translational            0.889              2.981             38.903
 Rotational               0.889              2.981             25.560
 Vibrational             72.918             16.759             12.582
 Vibration     1          0.606              1.943              3.307
 Vibration     2          0.653              1.794              1.872
 Vibration     3          0.685              1.696              1.484
 Vibration     4          0.692              1.674              1.418
 Vibration     5          0.715              1.608              1.242
 Vibration     6          0.798              1.389              0.835
 Vibration     7          0.853              1.255              0.664
 Vibration     8          0.879              1.197              0.601

 Normal termination of Gaussian 09 at Thu Sep  8 14:51:02 2022.
