 Gaussian 09, Revision E.01,
 Gaussian 09:  ES64L-G09RevE.01 30-Nov-2015

 -------------------------
 #P OPT Freq B3LYP/6-31G**
 -------------------------

 --------
 Frag_261
 --------
 Symbolic Z-matrix:
 Charge =  0 Multiplicity = 1

 SCF Done:  E(RB3LYP) =  -188.049387820     A.U. after   16 cycles
 SCF Done:  E(RB3LYP) =  -188.061706465     A.U. after   13 cycles
 SCF Done:  E(RB3LYP) =  -188.061929055     A.U. after   13 cycles
 SCF Done:  E(RB3LYP) =  -188.062111133     A.U. after   12 cycles
 SCF Done:  E(RB3LYP) =  -188.062284277     A.U. after   12 cycles
 SCF Done:  E(RB3LYP) =  -188.062286518     A.U. after    8 cycles
 Optimization completed.
    -- Stationary point found.
 Normal termination of Gaussian 09 at Sat Aug 21 01:37:16 2021.

 ----------------------------------------------------------------------
 #P Geom=AllCheck Guess=TCheck SCRF=Check GenChk RB3LYP/6-31G(d,p) Freq
 ----------------------------------------------------------------------

 Structure from the checkpoint file:  "/public/home/users/caep010/.cache/gau_scr/Gau-209951.chk"
 --------
 Frag_261
 --------
 Charge =  0 Multiplicity = 1

                         Standard orientation:
 ---------------------------------------------------------------------
 Center     Atomic      Atomic             Coordinates (Angstroms)
 Number     Number       Type             X           Y           Z
 ---------------------------------------------------------------------
      1          6           0        1.614328   -0.331954    0.000002
      2          6           0        0.418701    0.580881   -0.000001
      3          7           0       -0.786171    0.111081   -0.000013
      4          7           0       -1.854297   -0.315830    0.000008
      5          1           0        2.242210   -0.170854    0.884793
      6          1           0        1.301466   -1.379241   -0.000015
      7          1           0        2.242229   -0.170831   -0.884772
      8          1           0        0.499194    1.660616    0.000023
 ---------------------------------------------------------------------

 SCF Done:  E(RB3LYP) =  -188.062286518     A.U. after    1 cycles

 The electronic state is 1-A.
 Alpha  occ. eigenvalues --  -14.46807 -14.39512 -10.22384 -10.20231  -1.09191
 Alpha  occ. eigenvalues --   -0.85034  -0.71484  -0.54266  -0.48399  -0.47181
 Alpha  occ. eigenvalues --   -0.43595  -0.41252  -0.40094  -0.37637  -0.20497
 Alpha virt. eigenvalues --   -0.04035   0.03669   0.11627   0.13421   0.14538
 Alpha virt. eigenvalues --    0.16482   0.25831   0.28484   0.33655   0.52766
 Alpha virt. eigenvalues --    0.53593   0.53774   0.56085   0.59949   0.65355

 Mulliken charges:
               1
     1  C   -0.340234
     2  C   -0.044726
     3  N    0.124963
     4  N   -0.249733
     5  H    0.126217
     6  H    0.124648
     7  H    0.126217
     8  H    0.132649
 Sum of Mulliken charges =  -0.00000

 Dipole moment (field-independent basis, Debye):
    X=              2.0684    Y=              0.5878    Z=              0.0000  Tot=              2.1503
 Quadrupole moment (field-independent basis, Debye-Ang):
   XX=            -26.7265   YY=            -22.0158   ZZ=            -24.7253
   XY=             -1.2618   XZ=              0.0000   YZ=              0.0001

  Exact polarizability:  56.583   7.536  28.190  -0.000   0.000  20.771
 Approx polarizability: 108.076  25.754  43.279  -0.000  -0.000  28.131

                      1                      2                      3
                      A                      A                      A
 Frequencies --     86.7128               245.2362               454.3016
 Red. masses --      1.1668                 4.2930                 1.2503
 Frc consts  --      0.0052                 0.1521                 0.1520
 IR Inten    --      0.0031                 2.4923                55.4316

                      4                      5                      6
                      A                      A                      A
 Frequencies --    545.1594               590.8912               916.2644
 Red. masses --     10.0462                 4.2909                 2.1514
 Frc consts  --      1.7591                 0.8827                 1.0642
 IR Inten    --      3.5156                 4.1373                 7.0624

                      7                      8                      9
                      A                      A                      A
 Frequencies --   1049.6210              1114.0424              1228.7935
 Red. masses --      1.2911                 2.0991                 1.5799
 Frc consts  --      0.8381                 1.5349                 1.4055
 IR Inten    --      0.1233                 5.2171                 2.0734

                     10                     11                     12
                      A                      A                      A
 Frequencies --   1427.7627              1445.2406              1489.4578
 Red. masses --      1.2107                 2.3510                 1.0435
 Frc consts  --      1.4542                 2.8932                 1.3639
 IR Inten    --     13.1080                 4.8003                 5.4389

                     13                     14                     15
                      A                      A                      A
 Frequencies --   1523.9476              2195.2310              3028.5991
 Red. masses --      1.1194                13.2561                 1.0373
 Frc consts  --      1.5317                37.6379                 5.6058
 IR Inten    --      8.7655               396.3408                43.7421

                     16                     17                     18
                      A                      A                      A
 Frequencies --   3078.0776              3130.9248              3227.4095
 Red. masses --      1.1030                 1.0993                 1.0867
 Frc consts  --      6.1574                 6.3492                 6.6690
 IR Inten    --     25.9660                13.2361                 4.4877

 - Thermochemistry -
 -------------------
 Temperature   298.150 Kelvin.  Pressure   1.00000 Atm.
 Atom     1 has atomic number  6 and mass  12.00000

 Molecular mass:    56.03745 amu.
 Principal axes and moments of inertia in atomic units:
                           1         2         3
     Eigenvalues --    47.28417 368.48738 404.50175
           X            0.99982  -0.01920   0.00000
           Y            0.01920   0.99982   0.00000
           Z           -0.00000  -0.00000   1.00000
 This molecule is an asymmetric top.
 Rotational symmetry number  1.
 Rotational temperatures (Kelvin)      1.83177     0.23505     0.21412
 Rotational constants (GHZ):          38.16798     4.89770     4.46164
 Zero-point vibrational energy     160166.1 (Joules/Mol)
                                   38.28061 (Kcal/Mol)
 Warning -- explicit consideration of   5 degrees of freedom as
           vibrations may cause significant error
 Vibrational temperatures:    124.76   352.84   653.64   784.36   850.16
          (Kelvin)           1318.30  1510.17  1602.86  1767.96  2054.23
                             2079.38  2142.99  2192.62  3158.44  4357.47
                             4428.66  4504.70  4643.52

 Zero-point correction=                           0.061004 (Hartree/Particle)
 Thermal correction to Energy=                    0.065850
 Thermal correction to Enthalpy=                  0.066795
 Thermal correction to Gibbs Free Energy=         0.033954
 Sum of electronic and zero-point Energies=           -188.001282
 Sum of electronic and thermal Energies=              -187.996436
 Sum of electronic and thermal Enthalpies=            -187.995492
 Sum of electronic and thermal Free Energies=         -188.028333

                     E (Thermal)             CV                S
                      KCal/Mol        Cal/Mol-Kelvin    Cal/Mol-Kelvin
 Total                   41.322             14.842             69.120
 Electronic               0.000              0.000              0.000
 Translational            0.889              2.981             37.992
 Rotational               0.889              2.981             23.470
 Vibrational             39.544              8.881              7.658
 Vibration     1          0.601              1.958              3.733
 Vibration     2          0.660              1.771              1.765
 Vibration     3          0.813              1.351              0.783
 Vibration     4          0.900              1.150              0.554
 Vibration     5          0.948              1.051              0.466

 Optimization completed.
    -- Stationary point found.
 Normal termination of Gaussian 09 at Sat Aug 21 01:37:22 2021.
