 Gaussian 09, Revision E.01,
 Gaussian 09:  ES64L-G09RevE.01 30-Nov-2015

 ----------------------------
 #P OPT Freq B3LYP/6-31G(d,p)
 ----------------------------

 --------
 Frag_866
 --------
 Symbolic Z-matrix:
 Charge =  0 Multiplicity = 1

 SCF Done:  E(RB3LYP) =  -379.109140838     A.U. after   14 cycles
 SCF Done:  E(RB3LYP) =  -379.109223918     A.U. after   11 cycles
 SCF Done:  E(RB3LYP) =  -379.108899951     A.U. after   12 cycles
 SCF Done:  E(RB3LYP) =  -379.109252398     A.U. after    8 cycles
 SCF Done:  E(RB3LYP) =  -379.109260082     A.U. after    8 cycles
 SCF Done:  E(RB3LYP) =  -379.109260487     A.U. after    7 cycles
 SCF Done:  E(RB3LYP) =  -379.109260856     A.U. after    7 cycles
 Optimization completed.
    -- Stationary point found.
 Normal termination of Gaussian 09 at Thu Sep  8 15:12:57 2022.

 ----------------------------------------------------------------------
 #P Geom=AllCheck Guess=TCheck SCRF=Check GenChk RB3LYP/6-31G(d,p) Freq
 ----------------------------------------------------------------------

 Structure from the checkpoint file:  "B3LYP6-31Gdp.Frag_866.chk"
 --------
 Frag_866
 --------
 Charge =  0 Multiplicity = 1

                         Standard orientation:
 ---------------------------------------------------------------------
 Center     Atomic      Atomic             Coordinates (Angstroms)
 Number     Number       Type             X           Y           Z
 ---------------------------------------------------------------------
      1          6           0        1.383586    1.218383   -0.275505
      2          6           0        0.592286   -0.061818   -0.012397
      3          7           0        0.955444   -0.571832    1.327656
      4          7           0        0.879075   -1.037267   -1.054854
      5          6           0       -0.917155    0.236901   -0.056373
      6          8           0       -1.435560    1.329531   -0.033238
      7          8           0       -1.649261   -0.912163   -0.033721
      8          1           0        1.131851    1.991999    0.453670
      9          1           0        1.158146    1.598064   -1.272873
     10          1           0        2.452426    0.998924   -0.205529
     11          1           0        0.341688   -1.343570    1.582146
     12          1           0        0.834162    0.151779    2.034639
     13          1           0        0.299922   -1.863267   -0.925019
     14          1           0        1.848117   -1.331826   -0.949876
     15          1           0       -2.581673   -0.638152   -0.025446
 ---------------------------------------------------------------------

 SCF Done:  E(RB3LYP) =  -379.109260856     A.U. after    1 cycles

 The electronic state is 1-A.
 Alpha  occ. eigenvalues --  -19.20244 -19.14401 -14.32589 -14.31764 -10.31957
 Alpha  occ. eigenvalues --  -10.26111 -10.17488  -1.10949  -1.01896  -0.92965
 Alpha  occ. eigenvalues --   -0.84469  -0.73141  -0.67140  -0.57434  -0.51628
 Alpha  occ. eigenvalues --   -0.49985  -0.48713  -0.47315  -0.45733  -0.42743
 Alpha  occ. eigenvalues --   -0.41053  -0.37674  -0.37228  -0.36537  -0.32445
 Alpha  occ. eigenvalues --   -0.29626  -0.25271  -0.24479
 Alpha virt. eigenvalues --    0.00566   0.05908   0.09066   0.11821   0.13935
 Alpha virt. eigenvalues --    0.14572   0.16008   0.17995   0.20060   0.22341
 Alpha virt. eigenvalues --    0.23339   0.24746   0.27622   0.32457   0.36204

 Mulliken charges:
               1
     1  C   -0.283819
     2  C    0.159173
     3  N   -0.578906
     4  N   -0.574679
     5  C    0.604461
     6  O   -0.469878
     7  O   -0.505720
     8  H    0.112039
     9  H    0.129506
    10  H    0.107386
    11  H    0.239869
    12  H    0.241101
    13  H    0.249348
    14  H    0.245748
    15  H    0.324370
 Sum of Mulliken charges =  -0.00000

 Dipole moment (field-independent basis, Debye):
    X=             -0.4542    Y=             -1.7039    Z=              1.3370  Tot=              2.2129
 Quadrupole moment (field-independent basis, Debye-Ang):
   XX=            -38.3623   YY=            -42.5715   ZZ=            -42.0580
   XY=              4.0989   XZ=             -1.3178   YZ=              0.5250

  Exact polarizability:  55.049   0.571  54.414  -0.007   0.809  44.498
 Approx polarizability:  72.842  -2.620  83.605   1.400   1.456  63.425

                      1                      2                      3
                      A                      A                      A
 Frequencies --     55.4183               216.1384               240.0724
 Red. masses --      7.2841                 1.1709                 2.5651
 Frc consts  --      0.0132                 0.0322                 0.0871
 IR Inten    --      0.7157                 2.8865                 0.7449

                      4                      5                      6
                      A                      A                      A
 Frequencies --    258.8426               320.3255               332.4735
 Red. masses --      3.3499                 1.1353                 1.1368
 Frc consts  --      0.1322                 0.0686                 0.0740
 IR Inten    --      3.3253                47.7495                28.5565

                      7                      8                      9
                      A                      A                      A
 Frequencies --    368.7830               394.8025               424.7304
 Red. masses --      3.8858                 2.7223                 2.4713
 Frc consts  --      0.3114                 0.2500                 0.2627
 IR Inten    --      5.0401                 9.2808                23.1669

                     10                     11                     12
                      A                      A                      A
 Frequencies --    543.5986               589.1701               604.4553
 Red. masses --      3.7221                 2.9252                 1.2228
 Frc consts  --      0.6480                 0.5982                 0.2632
 IR Inten    --     33.2080                25.6039                96.2950

                     13                     14                     15
                      A                      A                      A
 Frequencies --    737.2007               781.9333               867.8817
 Red. masses --      3.7311                 5.2732                 1.9525
 Frc consts  --      1.1947                 1.8996                 0.8665
 IR Inten    --     31.0981                50.3751                91.4264

                     16                     17                     18
                      A                      A                      A
 Frequencies --    880.0160               921.8301               991.9458
 Red. masses --      1.7578                 1.6177                 1.5279
 Frc consts  --      0.8021                 0.8099                 0.8858
 IR Inten    --    140.4705                83.8742                26.8270

                     19                     20                     21
                      A                      A                      A
 Frequencies --   1028.4137              1128.4980              1152.2558
 Red. masses --      1.6038                 1.4531                 2.5105
 Frc consts  --      0.9994                 1.0903                 1.9639
 IR Inten    --     17.8798                17.6744               244.3593

                     22                     23                     24
                      A                      A                      A
 Frequencies --   1173.5452              1294.8059              1357.4311
 Red. masses --      2.5638                 1.7247                 2.1740
 Frc consts  --      2.0803                 1.7036                 2.3602
 IR Inten    --     55.0179                25.2736                22.4596

                     25                     26                     27
                      A                      A                      A
 Frequencies --   1403.0184              1431.4930              1498.6178
 Red. masses --      1.7932                 1.6014                 1.0499
 Frc consts  --      2.0798                 1.9334                 1.3893
 IR Inten    --     13.7199                 8.6182                 3.0870

                     28                     29                     30
                      A                      A                      A
 Frequencies --   1504.7850              1659.3733              1666.3568
 Red. masses --      1.0591                 1.0984                 1.1033
 Frc consts  --      1.4130                 1.7820                 1.8051
 IR Inten    --      1.8366                29.4756                36.1678

                     31                     32                     33
                      A                      A                      A
 Frequencies --   1847.0777              3068.2078              3143.7397
 Red. masses --     10.3220                 1.0359                 1.1033
 Frc consts  --     20.7483                 5.7457                 6.4243
 IR Inten    --    240.4908                11.2807                16.6682

                     34                     35                     36
                      A                      A                      A
 Frequencies --   3164.6392              3475.9246              3491.7100
 Red. masses --      1.1028                 1.0489                 1.0490
 Frc consts  --      6.5074                 7.4668                 7.5356
 IR Inten    --     11.2342                 0.3766                 0.2300

                     37                     38                     39
                      A                      A                      A
 Frequencies --   3569.1647              3580.8912              3755.1422
 Red. masses --      1.0933                 1.0925                 1.0644
 Frc consts  --      8.2057                 8.2540                 8.8431
 IR Inten    --      0.3755                 1.7101                55.0708

 - Thermochemistry -
 -------------------
 Temperature   298.150 Kelvin.  Pressure   1.00000 Atm.
 Atom     1 has atomic number  6 and mass  12.00000

 Molecular mass:   104.05858 amu.
 Principal axes and moments of inertia in atomic units:
                           1         2         3
     Eigenvalues --   521.70432 745.65424 898.94555
           X            0.99700   0.07656  -0.01114
           Y           -0.07661   0.99705  -0.00471
           Z            0.01074   0.00555   0.99993
 This molecule is an asymmetric top.
 Rotational symmetry number  1.
 Warning -- assumption of classical behavior for rotation
           may cause significant error
 Rotational temperatures (Kelvin)      0.16602     0.11616     0.09635
 Rotational constants (GHZ):           3.45932     2.42035     2.00762
 Zero-point vibrational energy     328522.7 (Joules/Mol)
                                   78.51881 (Kcal/Mol)
 Warning -- explicit consideration of  12 degrees of freedom as
           vibrations may cause significant error
 Vibrational temperatures:     79.73   310.97   345.41   372.42   460.88
          (Kelvin)            478.35   530.60   568.03   611.09   782.12
                              847.68   869.68  1060.67  1125.03  1248.69
                             1266.15  1326.31  1427.19  1479.66  1623.65
                             1657.84  1688.47  1862.93  1953.04  2018.63
                             2059.60  2156.17  2165.05  2387.47  2397.51
                             2657.53  4414.46  4523.13  4553.20  5001.07
                             5023.79  5135.23  5152.10  5402.81

 Zero-point correction=                           0.125128 (Hartree/Particle)
 Thermal correction to Energy=                    0.133063
 Thermal correction to Enthalpy=                  0.134007
 Thermal correction to Gibbs Free Energy=         0.093332
 Sum of electronic and zero-point Energies=           -378.984133
 Sum of electronic and thermal Energies=              -378.976198
 Sum of electronic and thermal Enthalpies=            -378.975254
 Sum of electronic and thermal Free Energies=         -379.015929

                     E (Thermal)             CV                S
                      KCal/Mol        Cal/Mol-Kelvin    Cal/Mol-Kelvin
 Total                   83.498             29.353             85.609
 Electronic               0.000              0.000              0.000
 Translational            0.889              2.981             39.837
 Rotational               0.889              2.981             27.350
 Vibrational             81.721             23.392             18.423
 Vibration     1          0.596              1.975              4.614
 Vibration     2          0.645              1.816              1.991
 Vibration     3          0.657              1.779              1.802
 Vibration     4          0.668              1.748              1.670
 Vibration     5          0.706              1.635              1.308
 Vibration     6          0.714              1.611              1.248
 Vibration     7          0.741              1.536              1.085
 Vibration     8          0.762              1.481              0.982
 Vibration     9          0.787              1.416              0.876
 Vibration    10          0.899              1.154              0.558
 Vibration    11          0.946              1.055              0.469
 Vibration    12          0.963              1.022              0.442

 Optimization completed.
    -- Stationary point found.
 Normal termination of Gaussian 09 at Thu Sep  8 15:13:10 2022.
