 Gaussian 09, Revision E.01,
 Gaussian 09:  ES64L-G09RevE.01 30-Nov-2015

 ----------------------------
 #P OPT Freq B3LYP/6-31G(d,p)
 ----------------------------

 --------
 Frag_631
 --------
 Symbolic Z-matrix:
 Charge =  0 Multiplicity = 1

 SCF Done:  E(RB3LYP) =  -403.584915213     A.U. after   12 cycles
 SCF Done:  E(RB3LYP) =  -403.584976547     A.U. after   10 cycles
 SCF Done:  E(RB3LYP) =  -403.584982143     A.U. after    8 cycles
 SCF Done:  E(RB3LYP) =  -403.584984819     A.U. after    8 cycles
 SCF Done:  E(RB3LYP) =  -403.584986227     A.U. after    7 cycles
 SCF Done:  E(RB3LYP) =  -403.584986843     A.U. after    7 cycles
 SCF Done:  E(RB3LYP) =  -403.584987076     A.U. after    7 cycles
 SCF Done:  E(RB3LYP) =  -403.584987136     A.U. after    7 cycles
 SCF Done:  E(RB3LYP) =  -403.584987205     A.U. after    7 cycles
 SCF Done:  E(RB3LYP) =  -403.584987393     A.U. after    7 cycles
 SCF Done:  E(RB3LYP) =  -403.584987709     A.U. after    7 cycles
 SCF Done:  E(RB3LYP) =  -403.584988059     A.U. after    7 cycles
 SCF Done:  E(RB3LYP) =  -403.584988129     A.U. after    7 cycles
 Optimization completed.
    -- Stationary point found.
 Normal termination of Gaussian 09 at Thu Sep  8 15:03:05 2022.

 ----------------------------------------------------------------------
 #P Geom=AllCheck Guess=TCheck SCRF=Check GenChk RB3LYP/6-31G(d,p) Freq
 ----------------------------------------------------------------------

 Structure from the checkpoint file:  "B3LYP6-31Gdp.Frag_631.chk"
 --------
 Frag_631
 --------
 Charge =  0 Multiplicity = 1

                         Standard orientation:
 ---------------------------------------------------------------------
 Center     Atomic      Atomic             Coordinates (Angstroms)
 Number     Number       Type             X           Y           Z
 ---------------------------------------------------------------------
      1          6           0       -1.344105   -0.500889   -1.336275
      2          6           0       -0.778503   -0.009644    0.012261
      3          6           0       -1.270883   -0.923758    1.150311
      4          6           0       -1.268275    1.428901    0.266336
      5          6           0        0.784447   -0.001360   -0.027152
      6          7           0        1.323420   -1.342812   -0.178947
      7          8           0        1.341469    0.531201    1.166563
      8          8           0        1.197561    0.881843   -1.056766
      9          1           0       -2.433218   -0.387557   -1.346634
     10          1           0       -0.933917    0.077551   -2.168156
     11          1           0       -1.137582   -1.562781   -1.515643
     12          1           0       -2.365457   -0.924008    1.184315
     13          1           0       -0.931505   -1.954665    1.019365
     14          1           0       -0.912326   -0.568290    2.121928
     15          1           0       -0.848106    1.825097    1.194379
     16          1           0       -2.360112    1.442969    0.349816
     17          1           0       -0.975500    2.091843   -0.551046
     18          1           0        0.879875   -1.811493   -0.963833
     19          1           0        2.309438   -1.254900   -0.418572
     20          1           0        1.460901   -0.222904    1.759950
     21          1           0        1.935239    1.384972   -0.684501
 ---------------------------------------------------------------------

 SCF Done:  E(RB3LYP) =  -403.584988129     A.U. after    1 cycles

 The electronic state is 1-A.
 Alpha  occ. eigenvalues --  -19.15206 -19.14150 -14.32080 -10.30725 -10.19285
 Alpha  occ. eigenvalues --  -10.17005 -10.16687 -10.15866  -1.06891  -0.98811
 Alpha  occ. eigenvalues --   -0.87592  -0.80089  -0.67939  -0.67307  -0.64287
 Alpha  occ. eigenvalues --   -0.55020  -0.52255  -0.50774  -0.49094  -0.45008
 Alpha  occ. eigenvalues --   -0.42232  -0.41704  -0.39044  -0.37701  -0.37284
 Alpha  occ. eigenvalues --   -0.36508  -0.35144  -0.34057  -0.31887  -0.31740
 Alpha  occ. eigenvalues --   -0.31217  -0.27506  -0.24884
 Alpha virt. eigenvalues --    0.06546   0.10444   0.10910   0.12111   0.13769
 Alpha virt. eigenvalues --    0.14663   0.16226   0.17330   0.17942   0.18480
 Alpha virt. eigenvalues --    0.20039   0.20544   0.22532   0.23146   0.24261

 Mulliken charges:
               1
     1  C   -0.319748
     2  C    0.031199
     3  C   -0.308080
     4  C   -0.306645
     5  C    0.597018
     6  N   -0.606762
     7  O   -0.569290
     8  O   -0.553538
     9  H    0.099870
    10  H    0.126389
    11  H    0.084830
    12  H    0.096469
    13  H    0.108033
    14  H    0.093528
    15  H    0.111422
    16  H    0.087339
    17  H    0.112759
    18  H    0.248912
    19  H    0.237153
    20  H    0.318604
    21  H    0.310536
 Sum of Mulliken charges =  -0.00000

 Dipole moment (field-independent basis, Debye):
    X=              0.8228    Y=             -0.9836    Z=             -0.0047  Tot=              1.2824
 Quadrupole moment (field-independent basis, Debye-Ang):
   XX=            -45.7623   YY=            -51.1817   ZZ=            -50.7162
   XY=             -0.2868   XZ=             -0.2037   YZ=              1.0322

  Exact polarizability:  70.508  -0.061  66.385   0.580   0.423  64.731
 Approx polarizability:  93.323   1.772  92.928   2.368   0.468  91.731

                      1                      2                      3
                      A                      A                      A
 Frequencies --     76.4682               108.7528               216.0952
 Red. masses --      2.6110                 1.2309                 1.1054
 Frc consts  --      0.0090                 0.0086                 0.0304
 IR Inten    --      3.3098                33.0731                 0.3785

                      4                      5                      6
                      A                      A                      A
 Frequencies --    242.9690               246.7157               264.4648
 Red. masses --      1.4491                 1.1794                 1.3370
 Frc consts  --      0.0504                 0.0423                 0.0551
 IR Inten    --      9.4678                48.0177                 3.8712

                      7                      8                      9
                      A                      A                      A
 Frequencies --    275.2217               286.2547               333.8105
 Red. masses --      1.7612                 1.7309                 2.6985
 Frc consts  --      0.0786                 0.0836                 0.1772
 IR Inten    --      4.7192                12.2139                14.8568

                     10                     11                     12
                      A                      A                      A
 Frequencies --    358.4820               361.4204               399.5675
 Red. masses --      2.5591                 2.3139                 1.6143
 Frc consts  --      0.1938                 0.1781                 0.1518
 IR Inten    --      0.3957                 2.5302                43.8065

                     13                     14                     15
                      A                      A                      A
 Frequencies --    426.9466               472.4312               540.4011
 Red. masses --      2.6170                 1.7660                 2.8116
 Frc consts  --      0.2811                 0.2322                 0.4838
 IR Inten    --      6.2114                63.0286                 9.6509

                     16                     17                     18
                      A                      A                      A
 Frequencies --    543.2819               562.2639               706.8476
 Red. masses --      3.2849                 3.7956                 3.5042
 Frc consts  --      0.5712                 0.7070                 1.0316
 IR Inten    --     17.1680                19.2846                 9.4837

                     19                     20                     21
                      A                      A                      A
 Frequencies --    846.8161               892.4019               945.1171
 Red. masses --      2.5518                 1.6893                 1.6250
 Frc consts  --      1.0782                 0.7926                 0.8552
 IR Inten    --      0.8910               126.2865                 0.9192

                     22                     23                     24
                      A                      A                      A
 Frequencies --    947.3989               963.7393               969.8099
 Red. masses --      1.6797                 2.3339                 1.2755
 Frc consts  --      0.8883                 1.2772                 0.7068
 IR Inten    --      3.2879                79.4845                 7.8832

                     25                     26                     27
                      A                      A                      A
 Frequencies --   1013.7434              1043.1508              1066.1217
 Red. masses --      2.2996                 1.4033                 1.6432
 Frc consts  --      1.3924                 0.8997                 1.1004
 IR Inten    --    109.4204                 4.6411                65.6849

                     28                     29                     30
                      A                      A                      A
 Frequencies --   1154.4798              1208.7950              1250.5902
 Red. masses --      1.9259                 1.6267                 2.5006
 Frc consts  --      1.5124                 1.4004                 2.3042
 IR Inten    --     34.8089               114.2258                 9.2578

                     31                     32                     33
                      A                      A                      A
 Frequencies --   1261.3004              1284.4572              1348.1134
 Red. masses --      2.4974                 2.5954                 1.6844
 Frc consts  --      2.3409                 2.5229                 1.8037
 IR Inten    --      5.0457                24.6184               117.7318

                     34                     35                     36
                      A                      A                      A
 Frequencies --   1403.8905              1409.3151              1416.5636
 Red. masses --      1.3361                 1.2571                 1.5201
 Frc consts  --      1.5515                 1.4711                 1.7972
 IR Inten    --     18.6529                 9.5411                18.8017

                     37                     38                     39
                      A                      A                      A
 Frequencies --   1449.6716              1492.6820              1505.7600
 Red. masses --      1.3767                 1.0489                 1.0478
 Frc consts  --      1.7046                 1.3770                 1.3998
 IR Inten    --     32.0481                 0.1536                 0.0524

                     40                     41                     42
                      A                      A                      A
 Frequencies --   1509.6540              1516.9862              1523.7469
 Red. masses --      1.0476                 1.0509                 1.0531
 Frc consts  --      1.4066                 1.4248                 1.4406
 IR Inten    --      0.5432                 3.5398                 3.0398

                     43                     44                     45
                      A                      A                      A
 Frequencies --   1543.3097              1665.9947              3038.3809
 Red. masses --      1.0701                 1.1034                 1.0376
 Frc consts  --      1.5017                 1.8044                 5.6435
 IR Inten    --     16.5861                54.2140                30.1994

                     46                     47                     48
                      A                      A                      A
 Frequencies --   3045.0900              3054.3951              3098.6222
 Red. masses --      1.0361                 1.0378                 1.0995
 Frc consts  --      5.6605                 5.7047                 6.2196
 IR Inten    --     22.8721                21.9239                31.1584

                     49                     50                     51
                      A                      A                      A
 Frequencies --   3110.2988              3123.9454              3130.2387
 Red. masses --      1.1018                 1.0996                 1.1019
 Frc consts  --      6.2797                 6.3225                 6.3612
 IR Inten    --     23.8165                27.9842                28.1697

                     52                     53                     54
                      A                      A                      A
 Frequencies --   3134.6242              3144.3561              3498.8295
 Red. masses --      1.1013                 1.1024                 1.0516
 Frc consts  --      6.3759                 6.4219                 7.5851
 IR Inten    --     18.3961                21.7595                 0.3614

                     55                     56                     57
                      A                      A                      A
 Frequencies --   3588.4682              3808.7652              3821.2643
 Red. masses --      1.0897                 1.0658                 1.0650
 Frc consts  --      8.2675                 9.1091                 9.1627
 IR Inten    --      1.8188                41.6294                35.8473

 - Thermochemistry -
 -------------------
 Temperature   298.150 Kelvin.  Pressure   1.00000 Atm.
 Atom     1 has atomic number  6 and mass  12.00000

 Molecular mass:   119.09463 amu.
 Principal axes and moments of inertia in atomic units:
                           1         2         3
     Eigenvalues --   731.992321022.575391036.89254
           X            0.99973  -0.02044  -0.01089
           Y            0.02239   0.97313   0.22916
           Z            0.00591  -0.22934   0.97333
 This molecule is an asymmetric top.
 Rotational symmetry number  1.
 Warning -- assumption of classical behavior for rotation
           may cause significant error
 Rotational temperatures (Kelvin)      0.11833     0.08470     0.08353
 Rotational constants (GHZ):           2.46552     1.76490     1.74053
 Zero-point vibrational energy     488395.1 (Joules/Mol)
                                  116.72923 (Kcal/Mol)
 Warning -- explicit consideration of  17 degrees of freedom as
           vibrations may cause significant error
 Vibrational temperatures:    110.02   156.47   310.91   349.58   354.97
          (Kelvin)            380.51   395.98   411.86   480.28   515.78
                              520.00   574.89   614.28   679.72   777.52
                              781.66   808.97  1016.99  1218.38  1283.97
                             1359.81  1363.09  1386.60  1395.34  1458.55
                             1500.86  1533.91  1661.04  1739.18  1799.32
                             1814.73  1848.05  1939.63  2019.88  2027.69
                             2038.12  2085.75  2147.63  2166.45  2172.05
                             2182.60  2192.33  2220.48  2396.99  4371.55
                             4381.20  4394.59  4458.22  4475.02  4494.66
                             4503.71  4510.02  4524.02  5034.03  5163.00
                             5479.96  5497.94

 Zero-point correction=                           0.186020 (Hartree/Particle)
 Thermal correction to Energy=                    0.196364
 Thermal correction to Enthalpy=                  0.197308
 Thermal correction to Gibbs Free Energy=         0.152073
 Sum of electronic and zero-point Energies=           -403.398968
 Sum of electronic and thermal Energies=              -403.388624
 Sum of electronic and thermal Enthalpies=            -403.387680
 Sum of electronic and thermal Free Energies=         -403.432915

                     E (Thermal)             CV                S
                      KCal/Mol        Cal/Mol-Kelvin    Cal/Mol-Kelvin
 Total                  123.220             39.267             95.206
 Electronic               0.000              0.000              0.000
 Translational            0.889              2.981             40.239
 Rotational               0.889              2.981             28.142
 Vibrational            121.443             33.306             26.825
 Vibration     1          0.599              1.965              3.980
 Vibration     2          0.606              1.942              3.291
 Vibration     3          0.645              1.817              1.992
 Vibration     4          0.659              1.774              1.781
 Vibration     5          0.661              1.768              1.754
 Vibration     6          0.671              1.738              1.632
 Vibration     7          0.677              1.719              1.563
 Vibration     8          0.684              1.699              1.496
 Vibration     9          0.715              1.608              1.242
 Vibration    10          0.733              1.558              1.129
 Vibration    11          0.736              1.552              1.116
 Vibration    12          0.766              1.471              0.964
 Vibration    13          0.789              1.412              0.869
 Vibration    14          0.829              1.311              0.731
 Vibration    15          0.895              1.161              0.564
 Vibration    16          0.898              1.154              0.558
 Vibration    17          0.918              1.113              0.519

 Optimization completed.
    -- Stationary point found.
 Normal termination of Gaussian 09 at Thu Sep  8 15:03:29 2022.
