 Gaussian 09, Revision E.01,
 Gaussian 09:  ES64L-G09RevE.01 30-Nov-2015

 -------------------------
 #P OPT Freq B3LYP/6-31G**
 -------------------------

 --------
 Frag_154
 --------
 Symbolic Z-matrix:
 Charge =  0 Multiplicity = 1

 SCF Done:  E(RB3LYP) =  -323.444336385     A.U. after   15 cycles
 SCF Done:  E(RB3LYP) =  -323.453505454     A.U. after   13 cycles
 SCF Done:  E(RB3LYP) =  -323.454947282     A.U. after   13 cycles
 SCF Done:  E(RB3LYP) =  -323.455022586     A.U. after    9 cycles
 SCF Done:  E(RB3LYP) =  -323.455024900     A.U. after    8 cycles
 Optimization completed.
    -- Stationary point found.
 Normal termination of Gaussian 09 at Sat Aug 21 01:39:36 2021.

 ----------------------------------------------------------------------
 #P Geom=AllCheck Guess=TCheck SCRF=Check GenChk RB3LYP/6-31G(d,p) Freq
 ----------------------------------------------------------------------

 Structure from the checkpoint file:  "/public/home/users/caep010/.cache/gau_scr/Gau-219024.chk"
 --------
 Frag_154
 --------
 Charge =  0 Multiplicity = 1

                         Standard orientation:
 ---------------------------------------------------------------------
 Center     Atomic      Atomic             Coordinates (Angstroms)
 Number     Number       Type             X           Y           Z
 ---------------------------------------------------------------------
      1          8           0        2.261427   -0.000000    0.000011
      2          7           0        0.987274    0.000000   -0.000020
      3          6           0        0.283541    1.180653   -0.000002
      4          6           0       -1.099138    1.194381    0.000004
      5          6           0       -1.821858    0.000000   -0.000001
      6          6           0       -1.099138   -1.194382    0.000004
      7          6           0        0.283541   -1.180653   -0.000002
      8          1           0        0.913234    2.059734    0.000004
      9          1           0       -1.602474    2.155618    0.000009
     10          1           0       -2.905541    0.000000    0.000001
     11          1           0       -1.602475   -2.155618    0.000009
     12          1           0        0.913234   -2.059734    0.000005
 ---------------------------------------------------------------------

 SCF Done:  E(RB3LYP) =  -323.455024900     A.U. after    1 cycles

 The electronic state is 1-A.
 Alpha  occ. eigenvalues --  -19.11507 -14.48240 -10.23666 -10.23666 -10.21955
 Alpha  occ. eigenvalues --  -10.21953 -10.21209  -1.10444  -0.89887  -0.79398
 Alpha  occ. eigenvalues --   -0.78937  -0.66758  -0.63979  -0.53793  -0.51299
 Alpha  occ. eigenvalues --   -0.49093  -0.46817  -0.45150  -0.45146  -0.38980
 Alpha  occ. eigenvalues --   -0.38717  -0.34494  -0.28347  -0.24386  -0.21305
 Alpha virt. eigenvalues --   -0.03806  -0.02674   0.07776   0.11962   0.12629
 Alpha virt. eigenvalues --    0.14131   0.16436   0.17282   0.19574   0.25361
 Alpha virt. eigenvalues --    0.26150   0.29514   0.32821   0.42683   0.45023

 Mulliken charges:
               1
     1  O   -0.515408
     2  N   -0.020865
     3  C    0.125642
     4  C   -0.125035
     5  C   -0.064625
     6  C   -0.125035
     7  C    0.125642
     8  H    0.137269
     9  H    0.110891
    10  H    0.103362
    11  H    0.110891
    12  H    0.137269
 Sum of Mulliken charges =  -0.00000

 Dipole moment (field-independent basis, Debye):
    X=             -3.9119    Y=              0.0000    Z=             -0.0000  Tot=              3.9119
 Quadrupole moment (field-independent basis, Debye-Ang):
   XX=            -45.2785   YY=            -32.7903   ZZ=            -41.9943
   XY=              0.0000   XZ=             -0.0001   YZ=             -0.0000

  Exact polarizability:  88.062  -0.000  68.364   0.000  -0.000  22.625
 Approx polarizability: 186.320  -0.000 113.011   0.000   0.000  34.217

                      1                      2                      3
                      A                      A                      A
 Frequencies --    217.8620               428.2092               483.8851
 Red. masses --      5.2224                 3.0839                 6.3450
 Frc consts  --      0.1460                 0.3332                 0.8753
 IR Inten    --      3.7039                 0.0000                 7.2218

                      4                      5                      6
                      A                      A                      A
 Frequencies --    523.1366               552.5949               649.9721
 Red. masses --      2.8918                 7.9698                 6.4458
 Frc consts  --      0.4663                 1.4339                 1.6044
 IR Inten    --      5.2311                 5.1962                 0.4785

                      7                      8                      9
                      A                      A                      A
 Frequencies --    690.8319               773.5989               830.4986
 Red. masses --      2.1296                 1.6936                 1.2537
 Frc consts  --      0.5988                 0.5971                 0.5095
 IR Inten    --     16.7149                55.1338                 0.0000

                     10                     11                     12
                      A                      A                      A
 Frequencies --    861.4007               890.6837               958.9648
 Red. masses --      5.5421                 1.4791                 1.3233
 Frc consts  --      2.4229                 0.6913                 0.7170
 IR Inten    --      9.3737                11.1891                 0.0000

                     13                     14                     15
                      A                      A                      A
 Frequencies --    978.9658              1030.1860              1063.3126
 Red. masses --      1.2369                 6.2640                 2.0028
 Frc consts  --      0.6984                 3.9168                 1.3342
 IR Inten    --      0.0252                28.1873                 0.1078

                     16                     17                     18
                      A                      A                      A
 Frequencies --   1094.1090              1173.3751              1196.6889
 Red. masses --      1.5744                 1.0863                 1.1327
 Frc consts  --      1.1104                 0.8812                 0.9557
 IR Inten    --      3.8734                 0.8573                18.9017

                     19                     20                     21
                      A                      A                      A
 Frequencies --   1274.1292              1355.7733              1371.5365
 Red. masses --      5.8745                 1.2846                 5.1528
 Frc consts  --      5.6189                 1.3912                 5.7110
 IR Inten    --      4.7189                 0.0402               116.9830

                     22                     23                     24
                      A                      A                      A
 Frequencies --   1509.9870              1519.6479              1592.6253
 Red. masses --      2.3979                 2.6960                 5.6979
 Frc consts  --      3.2213                 3.6683                 8.5152
 IR Inten    --    117.7887                 2.5918                 6.3236

                     25                     26                     27
                      A                      A                      A
 Frequencies --   1676.0255              3204.9249              3210.4971
 Red. masses --      5.4993                 1.0871                 1.0913
 Frc consts  --      9.1015                 6.5790                 6.6274
 IR Inten    --     35.5455                 0.3804                 8.7652

                     28                     29                     30
                      A                      A                      A
 Frequencies --   3228.8664              3261.4121              3262.7591
 Red. masses --      1.0965                 1.0937                 1.0953
 Frc consts  --      6.7352                 6.8542                 6.8697
 IR Inten    --      5.3137                 0.0212                 0.0212

 - Thermochemistry -
 -------------------
 Temperature   298.150 Kelvin.  Pressure   1.00000 Atm.
 Atom     1 has atomic number  8 and mass  15.99491

 Molecular mass:    95.03711 amu.
 Principal axes and moments of inertia in atomic units:
                           1         2         3
     Eigenvalues --   305.71611 647.71149 953.42760
           X            1.00000  -0.00000  -0.00000
           Y            0.00000   1.00000  -0.00000
           Z            0.00000   0.00000   1.00000
 This molecule is an asymmetric top.
 Rotational symmetry number  1.
 Rotational temperatures (Kelvin)      0.28331     0.13372     0.09084
 Rotational constants (GHZ):           5.90332     2.78634     1.89290
 Zero-point vibrational energy     244435.7 (Joules/Mol)
                                   58.42154 (Kcal/Mol)
 Warning -- explicit consideration of   5 degrees of freedom as
           vibrations may cause significant error
 Vibrational temperatures:    313.45   616.10   696.20   752.68   795.06
          (Kelvin)            935.16   993.95  1113.03  1194.90  1239.36
                             1281.49  1379.73  1408.51  1482.21  1529.87
                             1574.18  1688.22  1721.77  1833.19  1950.65
                             1973.33  2172.53  2186.43  2291.43  2411.42
                             4611.17  4619.18  4645.61  4692.44  4694.38

 Zero-point correction=                           0.093101 (Hartree/Particle)
 Thermal correction to Energy=                    0.098157
 Thermal correction to Enthalpy=                  0.099102
 Thermal correction to Gibbs Free Energy=         0.064406
 Sum of electronic and zero-point Energies=           -323.361924
 Sum of electronic and thermal Energies=              -323.356868
 Sum of electronic and thermal Enthalpies=            -323.355923
 Sum of electronic and thermal Free Energies=         -323.390619

                     E (Thermal)             CV                S
                      KCal/Mol        Cal/Mol-Kelvin    Cal/Mol-Kelvin
 Total                   61.595             19.778             73.023
 Electronic               0.000              0.000              0.000
 Translational            0.889              2.981             39.566
 Rotational               0.889              2.981             26.737
 Vibrational             59.817             13.817              6.720
 Vibration     1          0.646              1.814              1.977
 Vibration     2          0.790              1.409              0.865
 Vibration     3          0.840              1.286              0.700
 Vibration     4          0.878              1.199              0.603
 Vibration     5          0.908              1.134              0.539

 Optimization completed.
    -- Stationary point found.
 Normal termination of Gaussian 09 at Sat Aug 21 01:39:46 2021.
