 Gaussian 09, Revision E.01,
 Gaussian 09:  ES64L-G09RevE.01 30-Nov-2015

 ----------------------------
 #P OPT Freq B3LYP/6-31G(d,p)
 ----------------------------

 --------
 Frag_884
 --------
 Symbolic Z-matrix:
 Charge =  0 Multiplicity = 1

 SCF Done:  E(RB3LYP) =  -320.294945518     A.U. after   14 cycles
 SCF Done:  E(RB3LYP) =  -320.295092967     A.U. after   12 cycles
 SCF Done:  E(RB3LYP) =  -320.295113437     A.U. after   11 cycles
 SCF Done:  E(RB3LYP) =  -320.295110382     A.U. after   10 cycles
 SCF Done:  E(RB3LYP) =  -320.295127594     A.U. after   10 cycles
 SCF Done:  E(RB3LYP) =  -320.295134865     A.U. after   10 cycles
 SCF Done:  E(RB3LYP) =  -320.295139408     A.U. after   10 cycles
 SCF Done:  E(RB3LYP) =  -320.295139881     A.U. after    8 cycles
 SCF Done:  E(RB3LYP) =  -320.295139950     A.U. after    8 cycles
 Optimization completed.
    -- Stationary point found.
 Normal termination of Gaussian 09 at Thu Sep  8 15:20:33 2022.

 ----------------------------------------------------------------------
 #P Geom=AllCheck Guess=TCheck SCRF=Check GenChk RB3LYP/6-31G(d,p) Freq
 ----------------------------------------------------------------------

 Structure from the checkpoint file:  "B3LYP6-31Gdp.Frag_884.chk"
 --------
 Frag_884
 --------
 Charge =  0 Multiplicity = 1

                         Standard orientation:
 ---------------------------------------------------------------------
 Center     Atomic      Atomic             Coordinates (Angstroms)
 Number     Number       Type             X           Y           Z
 ---------------------------------------------------------------------
      1          7           0       -1.840900   -0.177698   -0.063282
      2          8           0       -0.515498   -0.756647   -0.032824
      3          6           0        0.495524    0.158550    0.005851
      4          8           0        0.357699    1.354105    0.010562
      5          8           0        1.674713   -0.474168    0.013355
      6          1           0       -1.684717    0.763959   -0.438511
      7          1           0       -2.053873   -0.026262    0.926441
      8          1           0        1.516433   -1.431435   -0.008810
 ---------------------------------------------------------------------

 SCF Done:  E(RB3LYP) =  -320.295139950     A.U. after    1 cycles

 The electronic state is 1-A.
 Alpha  occ. eigenvalues --  -19.23529 -19.21948 -19.15359 -14.39969 -10.37704
 Alpha  occ. eigenvalues --   -1.16606  -1.08147  -1.04327  -0.85059  -0.64478
 Alpha  occ. eigenvalues --   -0.60181  -0.53725  -0.49339  -0.47080  -0.43328
 Alpha  occ. eigenvalues --   -0.41401  -0.35799  -0.33361  -0.31101  -0.28659
 Alpha virt. eigenvalues --    0.02690   0.04248   0.06844   0.09367   0.14670
 Alpha virt. eigenvalues --    0.20376   0.31922   0.37883   0.51183   0.53436
 Alpha virt. eigenvalues --    0.54357   0.62187   0.66567   0.68184   0.69610

 Mulliken charges:
               1
     1  N   -0.325483
     2  O   -0.411310
     3  C    0.782678
     4  O   -0.463728
     5  O   -0.476014
     6  H    0.278446
     7  H    0.272698
     8  H    0.342713
 Sum of Mulliken charges =  -0.00000

 Dipole moment (field-independent basis, Debye):
    X=             -0.5372    Y=             -1.6159    Z=              0.9169  Tot=              1.9340
 Quadrupole moment (field-independent basis, Debye-Ang):
   XX=            -28.6559   YY=            -28.8114   ZZ=            -26.3934
   XY=             -6.6733   XZ=             -2.5210   YZ=             -0.8000

  Exact polarizability:  34.495  -3.022  29.403  -0.987  -0.501  17.446
 Approx polarizability:  45.797  -4.543  49.618  -0.732  -0.614  24.069

                      1                      2                      3
                      A                      A                      A
 Frequencies --     83.1004               182.3308               328.1969
 Red. masses --      1.0996                 5.0131                 5.0082
 Frc consts  --      0.0045                 0.0982                 0.3178
 IR Inten    --     70.0523                10.2833                34.1700

                      4                      5                      6
                      A                      A                      A
 Frequencies --    514.8134               518.9299               689.8889
 Red. masses --      1.3428                 2.9591                 9.4152
 Frc consts  --      0.2097                 0.4695                 2.6402
 IR Inten    --    101.3517                28.0141                 5.2229

                      7                      8                      9
                      A                      A                      A
 Frequencies --    760.6102               897.5720              1017.6133
 Red. masses --     11.7486                 6.4357                 9.2252
 Frc consts  --      4.0046                 3.0548                 5.6285
 IR Inten    --     20.2578                34.5727                19.8100

                     10                     11                     12
                      A                      A                      A
 Frequencies --   1202.8560              1260.4613              1359.6058
 Red. masses --      1.8128                 1.3623                 2.2799
 Frc consts  --      1.5454                 1.2752                 2.4831
 IR Inten    --     17.0899                71.3040               566.8579

                     13                     14                     15
                      A                      A                      A
 Frequencies --   1381.6555              1669.4035              1899.9844
 Red. masses --      1.2596                 1.0692                 9.7132
 Frc consts  --      1.4167                 1.7557                20.6593
 IR Inten    --     80.2857                46.9976               314.7268

                     16                     17                     18
                      A                      A                      A
 Frequencies --   3400.8929              3494.3453              3778.2507
 Red. masses --      1.0479                 1.0940                 1.0651
 Frc consts  --      7.1411                 7.8704                 8.9582
 IR Inten    --      7.9354                 5.2230                76.1574

 - Thermochemistry -
 -------------------
 Temperature   298.150 Kelvin.  Pressure   1.00000 Atm.
 Atom     1 has atomic number  7 and mass  14.00307

 Molecular mass:    77.01129 amu.
 Principal axes and moments of inertia in atomic units:
                           1         2         3
     Eigenvalues --   165.77912 400.78205 558.56637
           X            0.99863  -0.05122  -0.01055
           Y            0.05115   0.99867  -0.00705
           Z            0.01089   0.00650   0.99992
 This molecule is an asymmetric top.
 Rotational symmetry number  1.
 Rotational temperatures (Kelvin)      0.52247     0.21611     0.15506
 Rotational constants (GHZ):          10.88642     4.50305     3.23102
 Zero-point vibrational energy     146186.7 (Joules/Mol)
                                   34.93946 (Kcal/Mol)
 Warning -- explicit consideration of   5 degrees of freedom as
           vibrations may cause significant error
 Vibrational temperatures:    119.56   262.33   472.20   740.70   746.62
          (Kelvin)            992.60  1094.35  1291.40  1464.12  1730.64
                             1813.52  1956.17  1987.89  2401.90  2733.65
                             4893.12  5027.58  5436.05

 Zero-point correction=                           0.055680 (Hartree/Particle)
 Thermal correction to Energy=                    0.061025
 Thermal correction to Enthalpy=                  0.061969
 Thermal correction to Gibbs Free Energy=         0.027002
 Sum of electronic and zero-point Energies=           -320.239460
 Sum of electronic and thermal Energies=              -320.234115
 Sum of electronic and thermal Enthalpies=            -320.233171
 Sum of electronic and thermal Free Energies=         -320.268138

                     E (Thermal)             CV                S
                      KCal/Mol        Cal/Mol-Kelvin    Cal/Mol-Kelvin
 Total                   38.293             16.923             73.594
 Electronic               0.000              0.000              0.000
 Translational            0.889              2.981             38.939
 Rotational               0.889              2.981             25.121
 Vibrational             36.516             10.961              9.534
 Vibration     1          0.600              1.961              3.816
 Vibration     2          0.630              1.864              2.304
 Vibration     3          0.711              1.619              1.269
 Vibration     4          0.870              1.217              0.622
 Vibration     5          0.874              1.208              0.612

 Optimization completed.
    -- Stationary point found.
 Normal termination of Gaussian 09 at Thu Sep  8 15:20:39 2022.
