 Gaussian 09, Revision E.01,
 Gaussian 09:  ES64L-G09RevE.01 30-Nov-2015

 --------------------------------
 #P OPT=calcfc Freq B3LYP/6-31G**
 --------------------------------

 --------
 Frag_408
 --------
 Symbolic Z-matrix:
 Charge =  0 Multiplicity = 1

 SCF Done:  E(RB3LYP) =  -232.442962942     A.U. after   13 cycles
 SCF Done:  E(RB3LYP) =  -232.456844208     A.U. after   12 cycles
 SCF Done:  E(RB3LYP) =  -232.459079454     A.U. after   13 cycles
 SCF Done:  E(RB3LYP) =  -232.460083483     A.U. after   13 cycles
 SCF Done:  E(RB3LYP) =  -232.448608739     A.U. after   12 cycles
 SCF Done:  E(RB3LYP) =  -232.460141782     A.U. after    8 cycles
 SCF Done:  E(RB3LYP) =  -232.460351137     A.U. after   11 cycles
 SCF Done:  E(RB3LYP) =  -232.460469174     A.U. after   11 cycles
 SCF Done:  E(RB3LYP) =  -232.460545592     A.U. after   10 cycles
 SCF Done:  E(RB3LYP) =  -232.460611684     A.U. after   10 cycles
 SCF Done:  E(RB3LYP) =  -232.460631971     A.U. after   10 cycles
 SCF Done:  E(RB3LYP) =  -232.460644407     A.U. after   10 cycles
 SCF Done:  E(RB3LYP) =  -232.460650792     A.U. after   10 cycles
 SCF Done:  E(RB3LYP) =  -232.460651418     A.U. after    9 cycles
 SCF Done:  E(RB3LYP) =  -232.460651731     A.U. after    7 cycles
 SCF Done:  E(RB3LYP) =  -232.460651873     A.U. after    7 cycles
 SCF Done:  E(RB3LYP) =  -232.460651880     A.U. after    6 cycles
 Optimization completed.
    -- Stationary point found.
 Normal termination of Gaussian 09 at Fri Sep 10 21:06:23 2021.

 ----------------------------------------------------------------------
 #P Geom=AllCheck Guess=TCheck SCRF=Check GenChk RB3LYP/6-31G(d,p) Freq
 ----------------------------------------------------------------------

 Structure from the checkpoint file:  "/public/home/users/caep010/.cache/gau_scr/Gau-31575.chk"
 --------
 Frag_408
 --------
 Charge =  0 Multiplicity = 1

                         Standard orientation:
 ---------------------------------------------------------------------
 Center     Atomic      Atomic             Coordinates (Angstroms)
 Number     Number       Type             X           Y           Z
 ---------------------------------------------------------------------
      1          6           0       -2.076638   -0.121151   -0.000007
      2          6           0       -0.685497   -0.691323    0.000010
      3          6           0        0.466632   -0.003490    0.000003
      4          6           0        1.829838   -0.627082   -0.000006
      5          8           0        0.568754    1.365979   -0.000011
      6          1           0       -2.644450   -0.444652    0.881470
      7          1           0       -2.644791   -0.445727   -0.880863
      8          1           0       -2.100409    0.975855   -0.000708
      9          1           0       -0.606533   -1.774285    0.000063
     10          1           0        1.764226   -1.716592    0.000013
     11          1           0        2.397375   -0.306328    0.880994
     12          1           0        2.397377   -0.306368   -0.881021
     13          1           0       -0.318846    1.748537    0.000135
 ---------------------------------------------------------------------

 SCF Done:  E(RB3LYP) =  -232.460651880     A.U. after    1 cycles

 The electronic state is 1-A.
 Alpha  occ. eigenvalues --  -19.16574 -10.23539 -10.18697 -10.17875 -10.16679
 Alpha  occ. eigenvalues --   -1.04455  -0.77989  -0.73235  -0.64371  -0.57480
 Alpha  occ. eigenvalues --   -0.48847  -0.44547  -0.42726  -0.40385  -0.39380
 Alpha  occ. eigenvalues --   -0.38114  -0.35431  -0.34907  -0.34736  -0.20844
 Alpha virt. eigenvalues --    0.05117   0.06457   0.11766   0.13250   0.15221
 Alpha virt. eigenvalues --    0.17591   0.18848   0.19856   0.20943   0.22172
 Alpha virt. eigenvalues --    0.25051   0.33259   0.46057   0.52100   0.53324

 Mulliken charges:
               1
     1  C   -0.354864
     2  C   -0.136843
     3  C    0.319079
     4  C   -0.352326
     5  O   -0.541272
     6  H    0.121264
     7  H    0.121259
     8  H    0.076702
     9  H    0.074664
    10  H    0.111390
    11  H    0.124404
    12  H    0.124406
    13  H    0.312137
 Sum of Mulliken charges =  -0.00000

 Dipole moment (field-independent basis, Debye):
    X=             -0.9704    Y=             -0.1895    Z=              0.0003  Tot=              0.9887
 Quadrupole moment (field-independent basis, Debye-Ang):
   XX=            -29.8066   YY=            -30.2368   ZZ=            -32.6160
   XY=             -2.8639   XZ=             -0.0001   YZ=              0.0005

  Exact polarizability:  63.962   3.853  46.522  -0.001   0.000  31.256
 Approx polarizability:  85.229  13.272  69.283  -0.001  -0.000  43.216

                      1                      2                      3
                      A                      A                      A
 Frequencies --     52.3108               176.7235               227.9539
 Red. masses --      1.0437                 1.2079                 1.7903
 Frc consts  --      0.0017                 0.0222                 0.0548
 IR Inten    --      1.1071                 1.0933                 0.6686

                      4                      5                      6
                      A                      A                      A
 Frequencies --    272.7214               393.8048               409.8737
 Red. masses --      2.9224                 1.1168                 2.8770
 Frc consts  --      0.1281                 0.1020                 0.2848
 IR Inten    --      1.2028               102.1069                 5.3187

                      7                      8                      9
                      A                      A                      A
 Frequencies --    565.0982               566.9438               789.6252
 Red. masses --      3.6032                 2.9641                 1.1157
 Frc consts  --      0.6779                 0.5613                 0.4099
 IR Inten    --     10.4545                10.5142                10.9598

                     10                     11                     12
                      A                      A                      A
 Frequencies --    824.4177               989.6217              1048.8982
 Red. masses --      2.5591                 1.8982                 1.4694
 Frc consts  --      1.0248                 1.0953                 0.9525
 IR Inten    --      0.2699                24.5636                 1.0464

                     13                     14                     15
                      A                      A                      A
 Frequencies --   1050.0030              1080.5070              1080.9544
 Red. masses --      1.3710                 1.4730                 2.8026
 Frc consts  --      0.8906                 1.0132                 1.9294
 IR Inten    --      5.3722                 2.5410                43.1864

                     16                     17                     18
                      A                      A                      A
 Frequencies --   1194.3895              1332.2592              1382.2849
 Red. masses --      1.6946                 1.4363                 1.6682
 Frc consts  --      1.4243                 1.5020                 1.8780
 IR Inten    --    104.3269                40.2775                46.9106

                     19                     20                     21
                      A                      A                      A
 Frequencies --   1428.1108              1446.4890              1483.6718
 Red. masses --      1.3058                 1.4100                 1.0439
 Frc consts  --      1.5691                 1.7381                 1.3540
 IR Inten    --      6.1564                 4.9178                 6.3248

                     22                     23                     24
                      A                      A                      A
 Frequencies --   1486.8463              1504.1713              1519.1733
 Red. masses --      1.0421                 1.0654                 1.0655
 Frc consts  --      1.3573                 1.4202                 1.4488
 IR Inten    --      4.4227                 0.9430                 4.6914

                     25                     26                     27
                      A                      A                      A
 Frequencies --   1768.0489              3019.1040              3043.6789
 Red. masses --      6.4084                 1.0362                 1.0378
 Frc consts  --     11.8029                 5.5649                 5.6643
 IR Inten    --     90.9009                40.5776                25.1777

                     28                     29                     30
                      A                      A                      A
 Frequencies --   3074.4110              3077.5669              3097.7038
 Red. masses --      1.1014                 1.0996                 1.1006
 Frc consts  --      6.1336                 6.1361                 6.2226
 IR Inten    --     27.6000                42.3327                18.9550

                     31                     32                     33
                      A                      A                      A
 Frequencies --   3149.0048              3189.9628              3812.1522
 Red. masses --      1.1009                 1.0891                 1.0649
 Frc consts  --      6.4319                 6.5294                 9.1182
 IR Inten    --     15.0152                15.8403                12.8803

 - Thermochemistry -
 -------------------
 Temperature   298.150 Kelvin.  Pressure   1.00000 Atm.
 Atom     1 has atomic number  6 and mass  12.00000

 Molecular mass:    72.05751 amu.
 Principal axes and moments of inertia in atomic units:
                           1         2         3
     Eigenvalues --   193.41140 508.25881 679.31850
           X            0.99917  -0.04072   0.00000
           Y            0.04072   0.99917   0.00000
           Z           -0.00000  -0.00000   1.00000
 This molecule is an asymmetric top.
 Rotational symmetry number  1.
 Rotational temperatures (Kelvin)      0.44782     0.17041     0.12750
 Rotational constants (GHZ):           9.33110     3.55083     2.65669
 Zero-point vibrational energy     296306.0 (Joules/Mol)
                                   70.81882 (Kcal/Mol)
 Warning -- explicit consideration of   8 degrees of freedom as
           vibrations may cause significant error
 Vibrational temperatures:     75.26   254.27   327.97   392.38   566.60
          (Kelvin)            589.72   813.05   815.70  1136.09  1186.15
                             1423.84  1509.13  1510.72  1554.61  1555.25
                             1718.46  1916.82  1988.80  2054.73  2081.17
                             2134.67  2139.24  2164.16  2185.75  2543.82
                             4343.81  4379.17  4423.39  4427.93  4456.90
                             4530.71  4589.64  5484.83

 Zero-point correction=                           0.112857 (Hartree/Particle)
 Thermal correction to Energy=                    0.119441
 Thermal correction to Enthalpy=                  0.120385
 Thermal correction to Gibbs Free Energy=         0.082895
 Sum of electronic and zero-point Energies=           -232.347795
 Sum of electronic and thermal Energies=              -232.341211
 Sum of electronic and thermal Enthalpies=            -232.340267
 Sum of electronic and thermal Free Energies=         -232.377757

                     E (Thermal)             CV                S
                      KCal/Mol        Cal/Mol-Kelvin    Cal/Mol-Kelvin
 Total                   74.950             22.359             78.905
 Electronic               0.000              0.000              0.000
 Translational            0.889              2.981             38.741
 Rotational               0.889              2.981             25.705
 Vibrational             73.173             16.397             14.459
 Vibration     1          0.596              1.977              4.728
 Vibration     2          0.628              1.871              2.363
 Vibration     3          0.651              1.798              1.895
 Vibration     4          0.676              1.724              1.579
 Vibration     5          0.761              1.483              0.986
 Vibration     6          0.774              1.449              0.927
 Vibration     7          0.921              1.107              0.514
 Vibration     8          0.923              1.103              0.510

 Optimization completed.
    -- Stationary point found.
 Normal termination of Gaussian 09 at Fri Sep 10 21:06:33 2021.
