 Gaussian 09, Revision E.01,
 Gaussian 09:  ES64L-G09RevE.01 30-Nov-2015

 -------------------------
 #P OPT Freq B3LYP/6-31G**
 -------------------------

 --------
 Frag_282
 --------
 Symbolic Z-matrix:
 Charge =  0 Multiplicity = 1

 SCF Done:  E(RB3LYP) =  -253.130106299     A.U. after   12 cycles
 SCF Done:  E(RB3LYP) =  -253.134405406     A.U. after   11 cycles
 SCF Done:  E(RB3LYP) =  -253.134642484     A.U. after   10 cycles
 SCF Done:  E(RB3LYP) =  -253.134668727     A.U. after   10 cycles
 SCF Done:  E(RB3LYP) =  -253.134708693     A.U. after    9 cycles
 SCF Done:  E(RB3LYP) =  -253.134711356     A.U. after    7 cycles
 SCF Done:  E(RB3LYP) =  -253.134712049     A.U. after    7 cycles
 SCF Done:  E(RB3LYP) =  -253.134712287     A.U. after    6 cycles
 Optimization completed.
    -- Stationary point found.
 Normal termination of Gaussian 09 at Sat Aug 21 01:38:56 2021.

 ----------------------------------------------------------------------
 #P Geom=AllCheck Guess=TCheck SCRF=Check GenChk RB3LYP/6-31G(d,p) Freq
 ----------------------------------------------------------------------

 Structure from the checkpoint file:  "/public/home/users/caep010/.cache/gau_scr/Gau-34843.chk"
 --------
 Frag_282
 --------
 Charge =  0 Multiplicity = 1

                         Standard orientation:
 ---------------------------------------------------------------------
 Center     Atomic      Atomic             Coordinates (Angstroms)
 Number     Number       Type             X           Y           Z
 ---------------------------------------------------------------------
      1          6           0       -1.435025    1.315296    0.008038
      2          6           0       -0.703872    0.003484   -0.316288
      3          6           0       -1.558363   -1.201181    0.105439
      4          6           0        0.708761   -0.063373    0.314177
      5          6           0        1.577155    1.164913   -0.009714
      6          7           0        1.349849   -1.330777   -0.081364
      7          1           0       -2.450109    1.297949   -0.402245
      8          1           0       -1.523054    1.456923    1.092514
      9          1           0       -0.929513    2.192688   -0.404911
     10          1           0       -0.565978   -0.042393   -1.409459
     11          1           0       -1.767855   -1.166015    1.182002
     12          1           0       -2.520581   -1.198909   -0.418176
     13          1           0       -1.042179   -2.139650   -0.103128
     14          1           0        0.578645   -0.111521    1.405802
     15          1           0        2.585933    1.033766    0.397687
     16          1           0        1.671623    1.299669   -1.095012
     17          1           0        1.173557    2.091452    0.409715
     18          1           0        2.251266   -1.414043    0.384454
     19          1           0        1.557370   -1.299313   -1.079603
 ---------------------------------------------------------------------

 SCF Done:  E(RB3LYP) =  -253.134712287     A.U. after    1 cycles

 The electronic state is 1-A.
 Alpha  occ. eigenvalues --  -14.30642 -10.20697 -10.18155 -10.17171 -10.16872
 Alpha  occ. eigenvalues --  -10.15764  -0.88011  -0.78031  -0.71465  -0.67031
 Alpha  occ. eigenvalues --   -0.61572  -0.55359  -0.47694  -0.45232  -0.42983
 Alpha  occ. eigenvalues --   -0.42130  -0.40717  -0.38280  -0.37413  -0.36676
 Alpha  occ. eigenvalues --   -0.34666  -0.32319  -0.31879  -0.30670  -0.22954
 Alpha virt. eigenvalues --    0.07847   0.10808   0.11837   0.13480   0.15262
 Alpha virt. eigenvalues --    0.16223   0.16659   0.17620   0.18483   0.18776
 Alpha virt. eigenvalues --    0.19949   0.20303   0.21452   0.24006   0.25379

 Mulliken charges:
               1
     1  C   -0.314757
     2  C   -0.041020
     3  C   -0.304435
     4  C    0.063685
     5  C   -0.320094
     6  N   -0.590777
     7  H    0.098595
     8  H    0.098368
     9  H    0.099416
    10  H    0.071798
    11  H    0.091077
    12  H    0.087506
    13  H    0.126778
    14  H    0.086756
    15  H    0.089834
    16  H    0.094090
    17  H    0.103730
    18  H    0.231600
    19  H    0.227850
 Sum of Mulliken charges =  -0.00000

 Dipole moment (field-independent basis, Debye):
    X=              0.9820    Y=              0.8682    Z=             -0.3378  Tot=              1.3536
 Quadrupole moment (field-independent basis, Debye-Ang):
   XX=            -37.7867   YY=            -43.9072   ZZ=            -39.0748
   XY=             -0.9727   XZ=             -0.1449   YZ=              0.7527

  Exact polarizability:  67.694  -0.645  62.497   0.362   0.614  56.057
 Approx polarizability:  84.146  -2.157  81.794   0.680   1.216  84.783

                      1                      2                      3
                      A                      A                      A
 Frequencies --     79.6455               215.1159               223.5069
 Red. masses --      2.6258                 1.1616                 1.1216
 Frc consts  --      0.0098                 0.0317                 0.0330
 IR Inten    --      0.3785                 0.6421                 0.7796

                      4                      5                      6
                      A                      A                      A
 Frequencies --    232.4972               254.3844               296.3842
 Red. masses --      1.2465                 1.0830                 1.6922
 Frc consts  --      0.0397                 0.0413                 0.0876
 IR Inten    --      1.3971                36.7142                 4.1669

                      7                      8                      9
                      A                      A                      A
 Frequencies --    367.7021               371.0950               409.8932
 Red. masses --      2.0200                 2.0234                 2.1975
 Frc consts  --      0.1609                 0.1642                 0.2175
 IR Inten    --      2.0873                 2.9037                 1.6999

                     10                     11                     12
                      A                      A                      A
 Frequencies --    454.6595               512.6205               771.9536
 Red. masses --      3.0588                 2.3490                 2.0838
 Frc consts  --      0.3725                 0.3637                 0.7316
 IR Inten    --      9.9532                 1.5260                 0.5395

                     13                     14                     15
                      A                      A                      A
 Frequencies --    874.3093               905.8072               934.7952
 Red. masses --      2.2233                 1.5259                 1.2145
 Frc consts  --      1.0013                 0.7376                 0.6253
 IR Inten    --     87.0395                57.9686                 0.8425

                     16                     17                     18
                      A                      A                      A
 Frequencies --    951.6386               970.1681               990.5124
 Red. masses --      1.5090                 1.4588                 1.2440
 Frc consts  --      0.8051                 0.8090                 0.7191
 IR Inten    --      6.0758                 0.3312                 4.0572

                     19                     20                     21
                      A                      A                      A
 Frequencies --   1065.6086              1077.2907              1153.2896
 Red. masses --      2.5787                 1.3654                 2.0718
 Frc consts  --      1.7252                 0.9336                 1.6236
 IR Inten    --     13.9174                 5.8682                13.9608

                     22                     23                     24
                      A                      A                      A
 Frequencies --   1184.4747              1201.5416              1255.8920
 Red. masses --      2.0812                 1.6851                 1.7299
 Frc consts  --      1.7203                 1.4333                 1.6076
 IR Inten    --      9.2493                 0.2111                 2.5554

                     25                     26                     27
                      A                      A                      A
 Frequencies --   1336.9787              1356.5796              1380.9203
 Red. masses --      1.3421                 1.4222                 1.2915
 Frc consts  --      1.4134                 1.5421                 1.4511
 IR Inten    --      8.1266                 1.0552                 5.3255

                     28                     29                     30
                      A                      A                      A
 Frequencies --   1407.9032              1414.1071              1418.5705
 Red. masses --      1.3374                 1.2850                 1.2599
 Frc consts  --      1.5620                 1.5140                 1.4938
 IR Inten    --      2.8825                 3.6782                 6.1841

                     31                     32                     33
                      A                      A                      A
 Frequencies --   1434.7433              1501.6677              1501.9378
 Red. masses --      1.2327                 1.0486                 1.0532
 Frc consts  --      1.4951                 1.3932                 1.3997
 IR Inten    --      6.0434                 1.3435                 2.1943

                     34                     35                     36
                      A                      A                      A
 Frequencies --   1508.6168              1512.5782              1522.4227
 Red. masses --      1.0529                 1.0505                 1.0500
 Frc consts  --      1.4119                 1.4161                 1.4339
 IR Inten    --      0.7928                12.7085                 1.7122

                     37                     38                     39
                      A                      A                      A
 Frequencies --   1533.6055              1662.8749              2982.0222
 Red. masses --      1.0536                 1.0911                 1.0818
 Frc consts  --      1.4600                 1.7775                 5.6677
 IR Inten    --      5.1051                23.7563                16.1589

                     40                     41                     42
                      A                      A                      A
 Frequencies --   3013.8639              3028.8834              3034.1455
 Red. masses --      1.0839                 1.0382                 1.0394
 Frc consts  --      5.8008                 5.6119                 5.6375
 IR Inten    --     27.2414                29.1317                22.0360

                     43                     44                     45
                      A                      A                      A
 Frequencies --   3039.7840              3095.3180              3095.8559
 Red. masses --      1.0402                 1.1013                 1.1006
 Frc consts  --      5.6629                 6.2166                 6.2148
 IR Inten    --     39.5813                18.4176                23.0475

                     46                     47                     48
                      A                      A                      A
 Frequencies --   3103.6860              3111.9812              3124.2077
 Red. masses --      1.0995                 1.1012                 1.0998
 Frc consts  --      6.2402                 6.2831                 6.3246
 IR Inten    --     76.4221                42.6505                32.5980

                     49                     50                     51
                      A                      A                      A
 Frequencies --   3150.2389              3465.0206              3552.0769
 Red. masses --      1.0986                 1.0500                 1.0911
 Frc consts  --      6.4234                 7.4276                 8.1111
 IR Inten    --     14.5247                 2.5690                 0.9115

 - Thermochemistry -
 -------------------
 Temperature   298.150 Kelvin.  Pressure   1.00000 Atm.
 Atom     1 has atomic number  6 and mass  12.00000

 Molecular mass:    87.10480 amu.
 Principal axes and moments of inertia in atomic units:
                           1         2         3
     Eigenvalues --   423.94863 617.44420 951.47531
           X            0.99937   0.03505  -0.00506
           Y           -0.03504   0.99939   0.00129
           Z            0.00510  -0.00111   0.99999
 This molecule is an asymmetric top.
 Rotational symmetry number  1.
 Rotational temperatures (Kelvin)      0.20430     0.14028     0.09103
 Rotational constants (GHZ):           4.25698     2.92292     1.89678
 Zero-point vibrational energy     466815.0 (Joules/Mol)
                                  111.57147 (Kcal/Mol)
 Warning -- explicit consideration of  11 degrees of freedom as
           vibrations may cause significant error
 Vibrational temperatures:    114.59   309.50   321.58   334.51   366.00
          (Kelvin)            426.43   529.04   533.92   589.74   654.15
                              737.55  1110.67  1257.93  1303.25  1344.96
                             1369.19  1395.85  1425.12  1533.17  1549.98
                             1659.32  1704.19  1728.75  1806.95  1923.61
                             1951.81  1986.83  2025.66  2034.58  2041.00
                             2064.27  2160.56  2160.95  2170.56  2176.26
                             2190.42  2206.51  2392.50  4290.46  4336.27
                             4357.88  4365.45  4373.57  4453.47  4454.24
                             4465.51  4477.44  4495.03  4532.49  4985.39
                             5110.64

 Zero-point correction=                           0.177800 (Hartree/Particle)
 Thermal correction to Energy=                    0.185920
 Thermal correction to Enthalpy=                  0.186865
 Thermal correction to Gibbs Free Energy=         0.146422
 Sum of electronic and zero-point Energies=           -252.956912
 Sum of electronic and thermal Energies=              -252.948792
 Sum of electronic and thermal Enthalpies=            -252.947848
 Sum of electronic and thermal Free Energies=         -252.988290

                     E (Thermal)             CV                S
                      KCal/Mol        Cal/Mol-Kelvin    Cal/Mol-Kelvin
 Total                  116.667             29.954             85.119
 Electronic               0.000              0.000              0.000
 Translational            0.889              2.981             39.307
 Rotational               0.889              2.981             27.012
 Vibrational            114.889             23.992             18.800
 Vibration     1          0.600              1.963              3.900
 Vibration     2          0.645              1.818              2.000
 Vibration     3          0.649              1.805              1.931
 Vibration     4          0.653              1.791              1.860
 Vibration     5          0.665              1.755              1.700
 Vibration     6          0.690              1.680              1.437
 Vibration     7          0.740              1.539              1.089
 Vibration     8          0.743              1.532              1.075
 Vibration     9          0.774              1.449              0.927
 Vibration    10          0.813              1.351              0.782
 Vibration    11          0.868              1.222              0.627

 Optimization completed.
    -- Stationary point found.
 Normal termination of Gaussian 09 at Sat Aug 21 01:39:13 2021.
