 Gaussian 09, Revision E.01,
 Gaussian 09:  ES64L-G09RevE.01 30-Nov-2015

 --------------------------------
 #P OPT=calcfc Freq B3LYP/6-31G**
 --------------------------------

 --------
 Frag_381
 --------
 Symbolic Z-matrix:
 Charge =  0 Multiplicity = 1

 SCF Done:  E(RB3LYP) =  -244.957007884     A.U. after   15 cycles
 SCF Done:  E(RB3LYP) =  -244.983117827     A.U. after   14 cycles
 SCF Done:  E(RB3LYP) =  -244.988569038     A.U. after   12 cycles
 SCF Done:  E(RB3LYP) =  -244.988578737     A.U. after   13 cycles
 SCF Done:  E(RB3LYP) =  -244.988920157     A.U. after   12 cycles
 SCF Done:  E(RB3LYP) =  -244.988924437     A.U. after    8 cycles
 Optimization completed.
    -- Stationary point found.
 Normal termination of Gaussian 09 at Fri Sep 10 17:45:34 2021.

 ----------------------------------------------------------------------
 #P Geom=AllCheck Guess=TCheck SCRF=Check GenChk RB3LYP/6-31G(d,p) Freq
 ----------------------------------------------------------------------

 Structure from the checkpoint file:  "/public/home/users/caep010/.cache/gau_scr/Gau-144803.chk"
 --------
 Frag_381
 --------
 Charge =  0 Multiplicity = 1

                         Standard orientation:
 ---------------------------------------------------------------------
 Center     Atomic      Atomic             Coordinates (Angstroms)
 Number     Number       Type             X           Y           Z
 ---------------------------------------------------------------------
      1          6           0       -1.308407   -0.304728   -0.000004
      2          7           0       -0.073506    0.103521   -0.000001
      3          8           0        0.396586    1.252295    0.000002
      4          8           0        0.882392   -0.947447    0.000009
      5          1           0       -2.072207    0.455815    0.000010
      6          1           0       -1.499595   -1.364915   -0.000010
      7          1           0        1.704962   -0.425961   -0.000056
 ---------------------------------------------------------------------

 SCF Done:  E(RB3LYP) =  -244.988924437     A.U. after    1 cycles

 The electronic state is 1-A.
 Alpha  occ. eigenvalues --  -19.21552 -19.15765 -14.54451 -10.23206  -1.18671
 Alpha  occ. eigenvalues --   -1.03574  -0.86692  -0.63546  -0.55628  -0.51791
 Alpha  occ. eigenvalues --   -0.50353  -0.45099  -0.43468  -0.33360  -0.28905
 Alpha  occ. eigenvalues --   -0.24175
 Alpha virt. eigenvalues --   -0.02197   0.06570   0.08757   0.12872   0.16127
 Alpha virt. eigenvalues --    0.24000   0.30224   0.53251   0.59005   0.59705
 Alpha virt. eigenvalues --    0.61181   0.71572   0.72312   0.73837   0.79335

 Mulliken charges:
               1
     1  C   -0.089284
     2  N    0.359034
     3  O   -0.478861
     4  O   -0.413126
     5  H    0.147295
     6  H    0.142159
     7  H    0.332784
 Sum of Mulliken charges =  -0.00000

 Dipole moment (field-independent basis, Debye):
    X=             -0.5266    Y=             -1.3333    Z=             -0.0001  Tot=              1.4335
 Quadrupole moment (field-independent basis, Debye-Ang):
   XX=            -16.8739   YY=            -26.2743   ZZ=            -23.7712
   XY=             -0.3718   XZ=             -0.0002   YZ=              0.0001

  Exact polarizability:  39.796   4.487  30.435  -0.000   0.000  11.526
 Approx polarizability:  66.865  16.704  56.614  -0.000   0.000  15.860

                      1                      2                      3
                      A                      A                      A
 Frequencies --    336.1572               494.7025               565.5412
 Red. masses --      1.1060                 2.7879                 5.1675
 Frc consts  --      0.0736                 0.4020                 0.9738
 IR Inten    --    117.6075                 2.6987                 7.9374

                      4                      5                      6
                      A                      A                      A
 Frequencies --    643.3776               688.0935               728.2489
 Red. masses --      1.9398                 1.3777                 1.6366
 Frc consts  --      0.4731                 0.3843                 0.5114
 IR Inten    --      0.2755                 7.5225                86.1408

                      7                      8                      9
                      A                      A                      A
 Frequencies --    825.3015              1109.7842              1311.1930
 Red. masses --      5.1013                 1.9877                 2.1464
 Frc consts  --      2.0472                 1.4424                 2.1741
 IR Inten    --    137.0724                30.9665               115.6477

                     10                     11                     12
                      A                      A                      A
 Frequencies --   1327.7395              1474.7824              1778.5318
 Red. masses --      1.5246                 1.3471                 5.0828
 Frc consts  --      1.5836                 1.7263                 9.4728
 IR Inten    --    103.8233                30.2916               223.8230

                     13                     14                     15
                      A                      A                      A
 Frequencies --   3230.1780              3366.0709              3735.6032
 Red. masses --      1.0501                 1.1283                 1.0657
 Frc consts  --      6.4558                 7.5320                 8.7619
 IR Inten    --      9.4457                 1.3464                85.9345

 - Thermochemistry -
 -------------------
 Temperature   298.150 Kelvin.  Pressure   1.00000 Atm.
 Atom     1 has atomic number  6 and mass  12.00000

 Molecular mass:    61.01638 amu.
 Principal axes and moments of inertia in atomic units:
                           1         2         3
     Eigenvalues --   153.09133 161.17522 314.26655
           X            0.98275   0.18493  -0.00000
           Y           -0.18493   0.98275   0.00000
           Z            0.00000  -0.00000   1.00000
 This molecule is an asymmetric top.
 Rotational symmetry number  1.
 Rotational temperatures (Kelvin)      0.56577     0.53739     0.27561
 Rotational constants (GHZ):          11.78866    11.19739     5.74271
 Zero-point vibrational energy     129288.2 (Joules/Mol)
                                   30.90063 (Kcal/Mol)
 Warning -- explicit consideration of   3 degrees of freedom as
           vibrations may cause significant error
 Vibrational temperatures:    483.65   711.77   813.69   925.68   990.01
          (Kelvin)           1047.79  1187.42  1596.73  1886.51  1910.32
                             2121.88  2558.91  4647.50  4843.02  5374.69

 Zero-point correction=                           0.049243 (Hartree/Particle)
 Thermal correction to Energy=                    0.053341
 Thermal correction to Enthalpy=                  0.054285
 Thermal correction to Gibbs Free Energy=         0.023156
 Sum of electronic and zero-point Energies=           -244.939681
 Sum of electronic and thermal Energies=              -244.935584
 Sum of electronic and thermal Enthalpies=            -244.934640
 Sum of electronic and thermal Free Energies=         -244.965768

                     E (Thermal)             CV                S
                      KCal/Mol        Cal/Mol-Kelvin    Cal/Mol-Kelvin
 Total                   33.472             13.771             65.516
 Electronic               0.000              0.000              0.000
 Translational            0.889              2.981             38.245
 Rotational               0.889              2.981             23.565
 Vibrational             31.694              7.809              3.705
 Vibration     1          0.717              1.603              1.230
 Vibration     2          0.850              1.262              0.672
 Vibration     3          0.921              1.106              0.513

 Optimization completed.
    -- Stationary point found.
 Normal termination of Gaussian 09 at Fri Sep 10 17:45:40 2021.
