 Gaussian 09, Revision E.01,
 Gaussian 09:  ES64L-G09RevE.01 30-Nov-2015

 --------------------------------
 #P OPT=calcfc Freq B3LYP/6-31G**
 --------------------------------

 --------
 Frag_330
 --------
 Symbolic Z-matrix:
 Charge =  0 Multiplicity = 1

 SCF Done:  E(RB3LYP) =  -269.160499837     A.U. after   12 cycles
 SCF Done:  E(RB3LYP) =  -269.166127064     A.U. after   11 cycles
 SCF Done:  E(RB3LYP) =  -269.166338817     A.U. after   10 cycles
 SCF Done:  E(RB3LYP) =  -269.166344991     A.U. after    8 cycles
 Optimization completed.
    -- Stationary point found.
 Normal termination of Gaussian 09 at Fri Sep 10 19:27:21 2021.

 ----------------------------------------------------------------------
 #P Geom=AllCheck Guess=TCheck SCRF=Check GenChk RB3LYP/6-31G(d,p) Freq
 ----------------------------------------------------------------------

 Structure from the checkpoint file:  "/public/home/users/caep010/.cache/gau_scr/Gau-209911.chk"
 --------
 Frag_330
 --------
 Charge =  0 Multiplicity = 1

                         Standard orientation:
 ---------------------------------------------------------------------
 Center     Atomic      Atomic             Coordinates (Angstroms)
 Number     Number       Type             X           Y           Z
 ---------------------------------------------------------------------
      1          6           0       -0.574809   -0.713374    1.340624
      2          6           0       -0.432903   -0.009278   -0.021268
      3          6           0       -0.514403    1.513911    0.160342
      4          7           0       -1.488794   -0.394210   -0.981047
      5          6           0        0.907295   -0.396498   -0.689029
      6          7           0        2.070298   -0.011481    0.119544
      7          1           0        0.265222   -0.471775    1.997269
      8          1           0       -1.507239   -0.417003    1.835377
      9          1           0       -0.594868   -1.802326    1.209918
     10          1           0       -0.409261    2.023727   -0.802627
     11          1           0       -1.482226    1.800786    0.588315
     12          1           0        0.261873    1.869996    0.844058
     13          1           0       -2.396222   -0.129067   -0.600733
     14          1           0       -1.514443   -1.410605   -1.059734
     15          1           0        0.902056    0.024810   -1.706947
     16          1           0        0.929356   -1.488616   -0.800956
     17          1           0        2.268826    0.977356   -0.009318
     18          1           0        2.895314   -0.506017   -0.208112
 ---------------------------------------------------------------------

 SCF Done:  E(RB3LYP) =  -269.166344991     A.U. after    1 cycles

 The electronic state is 1-A.
 Alpha  occ. eigenvalues --  -14.30966 -14.30307 -10.20980 -10.19754 -10.16696
 Alpha  occ. eigenvalues --  -10.15988  -0.89107  -0.86121  -0.74104  -0.67716
 Alpha  occ. eigenvalues --   -0.65727  -0.53702  -0.48732  -0.47293  -0.46210
 Alpha  occ. eigenvalues --   -0.41661  -0.41024  -0.39568  -0.37659  -0.35866
 Alpha  occ. eigenvalues --   -0.35375  -0.32768  -0.31617  -0.23290  -0.22755
 Alpha virt. eigenvalues --    0.07273   0.09222   0.12453   0.13830   0.14303
 Alpha virt. eigenvalues --    0.16442   0.17000   0.17707   0.19436   0.20097
 Alpha virt. eigenvalues --    0.21481   0.22430   0.23069   0.25113   0.26655

 Mulliken charges:
               1
     1  C   -0.298346
     2  C    0.146666
     3  C   -0.309660
     4  N   -0.590728
     5  C   -0.041009
     6  N   -0.605728
     7  H    0.124335
     8  H    0.082555
     9  H    0.081125
    10  H    0.107681
    11  H    0.092098
    12  H    0.105083
    13  H    0.228173
    14  H    0.226315
    15  H    0.090611
    16  H    0.083647
    17  H    0.238696
    18  H    0.238486
 Sum of Mulliken charges =   0.00000

 Dipole moment (field-independent basis, Debye):
    X=              0.3300    Y=             -0.2366    Z=             -0.1015  Tot=              0.4185
 Quadrupole moment (field-independent basis, Debye-Ang):
   XX=            -34.3950   YY=            -37.0663   ZZ=            -44.0733
   XY=              1.5955   XZ=             -4.0253   YZ=              1.3796

  Exact polarizability:  62.884  -0.192  57.747   0.015   1.384  53.255
 Approx polarizability:  81.996  -0.619  79.434   1.749   2.949  73.551

                      1                      2                      3
                      A                      A                      A
 Frequencies --    126.9666               215.5703               247.1034
 Red. masses --      2.3563                 1.0399                 1.6112
 Frc consts  --      0.0224                 0.0285                 0.0580
 IR Inten    --      5.5314                16.4153                 2.7754

                      4                      5                      6
                      A                      A                      A
 Frequencies --    257.0683               278.3353               296.5196
 Red. masses --      1.1066                 1.4911                 1.0304
 Frc consts  --      0.0431                 0.0681                 0.0534
 IR Inten    --     47.1911                28.8991                 1.3790

                      7                      8                      9
                      A                      A                      A
 Frequencies --    339.3928               363.3244               431.9107
 Red. masses --      2.1106                 2.3950                 2.5499
 Frc consts  --      0.1432                 0.1863                 0.2803
 IR Inten    --      2.3522                 0.9752                 7.3521

                     10                     11                     12
                      A                      A                      A
 Frequencies --    446.1809               524.8423               735.3973
 Red. masses --      2.2825                 2.9882                 3.1688
 Frc consts  --      0.2677                 0.4850                 1.0097
 IR Inten    --      7.7904                 3.1488                 5.7442

                     13                     14                     15
                      A                      A                      A
 Frequencies --    850.6023               882.6669               906.8312
 Red. masses --      1.3073                 1.8764                 1.4494
 Frc consts  --      0.5573                 0.8613                 0.7023
 IR Inten    --     62.2759               102.3035                90.4118

                     16                     17                     18
                      A                      A                      A
 Frequencies --    938.3187               963.0717               981.5112
 Red. masses --      1.6009                 1.4122                 1.7253
 Frc consts  --      0.8305                 0.7717                 0.9793
 IR Inten    --      8.9842                 2.5347                 3.8445

                     19                     20                     21
                      A                      A                      A
 Frequencies --   1030.1509              1083.7164              1110.9856
 Red. masses --      1.3474                 2.1824                 1.6053
 Frc consts  --      0.8425                 1.5101                 1.1674
 IR Inten    --     20.4869                13.1451                 1.7331

                     22                     23                     24
                      A                      A                      A
 Frequencies --   1158.0012              1225.9478              1281.5247
 Red. masses --      1.2198                 2.5530                 2.3128
 Frc consts  --      0.9637                 2.2608                 2.2379
 IR Inten    --      2.5850                18.6703                16.0311

                     25                     26                     27
                      A                      A                      A
 Frequencies --   1339.1983              1365.0479              1406.6745
 Red. masses --      1.2849                 1.7054                 1.3213
 Frc consts  --      1.3577                 1.8723                 1.5405
 IR Inten    --      3.7096                 1.2649                11.6142

                     28                     29                     30
                      A                      A                      A
 Frequencies --   1412.2236              1436.0968              1493.7989
 Red. masses --      1.3705                 1.3292                 1.0503
 Frc consts  --      1.6104                 1.6151                 1.3809
 IR Inten    --      3.7613                 6.7699                 0.3019

                     31                     32                     33
                      A                      A                      A
 Frequencies --   1506.2289              1509.0966              1526.7670
 Red. masses --      1.0586                 1.0616                 1.0699
 Frc consts  --      1.4151                 1.4244                 1.4694
 IR Inten    --      0.8984                 1.8064                 6.6420

                     34                     35                     36
                      A                      A                      A
 Frequencies --   1527.5079              1665.7572              1672.2605
 Red. masses --      1.0668                 1.0930                 1.0913
 Frc consts  --      1.4666                 1.7869                 1.7980
 IR Inten    --      3.9093                44.4288                 9.4539

                     37                     38                     39
                      A                      A                      A
 Frequencies --   2987.7081              3029.1441              3040.4982
 Red. masses --      1.0659                 1.0376                 1.0381
 Frc consts  --      5.6061                 5.6093                 5.6543
 IR Inten    --     63.2532                26.9569                23.7124

                     40                     41                     42
                      A                      A                      A
 Frequencies --   3050.5886              3093.0870              3105.4449
 Red. masses --      1.0952                 1.1021                 1.0998
 Frc consts  --      6.0051                 6.2122                 6.2492
 IR Inten    --     35.6112                39.1208                34.2049

                     43                     44                     45
                      A                      A                      A
 Frequencies --   3127.1238              3131.8060              3463.3339
 Red. masses --      1.1028                 1.0999                 1.0497
 Frc consts  --      6.3537                 6.3561                 7.4182
 IR Inten    --     11.9518                32.2614                 3.4430

                     46                     47                     48
                      A                      A                      A
 Frequencies --   3502.2280              3546.0609              3583.1055
 Red. masses --      1.0500                 1.0914                 1.0924
 Frc consts  --      7.5880                 8.0859                 8.2635
 IR Inten    --      0.8409                 1.5221                 0.0546

 - Thermochemistry -
 -------------------
 Temperature   298.150 Kelvin.  Pressure   1.00000 Atm.
 Atom     1 has atomic number  6 and mass  12.00000

 Molecular mass:    88.10005 amu.
 Principal axes and moments of inertia in atomic units:
                           1         2         3
     Eigenvalues --   409.20175 699.50113 702.72860
           X            0.99926   0.00209  -0.03834
           Y           -0.00487   0.99736  -0.07239
           Z            0.03809   0.07252   0.99664
 This molecule is an asymmetric top.
 Rotational symmetry number  1.
 Rotational temperatures (Kelvin)      0.21167     0.12382     0.12325
 Rotational constants (GHZ):           4.41039     2.58004     2.56819
 Zero-point vibrational energy     437813.7 (Joules/Mol)
                                  104.63997 (Kcal/Mol)
 Warning -- explicit consideration of  11 degrees of freedom as
           vibrations may cause significant error
 Vibrational temperatures:    182.68   310.16   355.53   369.86   400.46
          (Kelvin)            426.63   488.31   522.74   621.42   641.95
                              755.13  1058.07  1223.83  1269.96  1304.73
                             1350.03  1385.64  1412.17  1482.16  1559.22
                             1598.46  1666.10  1763.86  1843.83  1926.81
                             1964.00  2023.89  2031.87  2066.22  2149.24
                             2167.12  2171.25  2196.67  2197.74  2396.65
                             2406.01  4298.64  4358.26  4374.59  4389.11
                             4450.26  4468.04  4499.23  4505.96  4982.96
                             5038.92  5101.98  5155.28

 Zero-point correction=                           0.166754 (Hartree/Particle)
 Thermal correction to Energy=                    0.174721
 Thermal correction to Enthalpy=                  0.175665
 Thermal correction to Gibbs Free Energy=         0.135916
 Sum of electronic and zero-point Energies=           -268.999591
 Sum of electronic and thermal Energies=              -268.991624
 Sum of electronic and thermal Enthalpies=            -268.990680
 Sum of electronic and thermal Free Energies=         -269.030429

                     E (Thermal)             CV                S
                      KCal/Mol        Cal/Mol-Kelvin    Cal/Mol-Kelvin
 Total                  109.639             29.823             83.660
 Electronic               0.000              0.000              0.000
 Translational            0.889              2.981             39.340
 Rotational               0.889              2.981             26.800
 Vibrational            107.862             23.861             17.520
 Vibration     1          0.611              1.926              2.991
 Vibration     2          0.645              1.817              1.996
 Vibration     3          0.661              1.768              1.751
 Vibration     4          0.667              1.751              1.682
 Vibration     5          0.679              1.714              1.544
 Vibration     6          0.690              1.680              1.436
 Vibration     7          0.719              1.597              1.215
 Vibration     8          0.737              1.548              1.108
 Vibration     9          0.793              1.401              0.852
 Vibration    10          0.805              1.369              0.807
 Vibration    11          0.880              1.195              0.599

 Optimization completed.
    -- Stationary point found.
 Normal termination of Gaussian 09 at Fri Sep 10 19:27:36 2021.
