 Gaussian 09, Revision E.01,
 Gaussian 09:  ES64L-G09RevE.01 30-Nov-2015

 --------------------------------
 #P OPT=calcfc Freq B3LYP/6-31G**
 --------------------------------

 --------
 Frag_296
 --------
 Symbolic Z-matrix:
 Charge =  0 Multiplicity = 1

 SCF Done:  E(RB3LYP) =  -331.756072529     A.U. after   12 cycles
 SCF Done:  E(RB3LYP) =  -331.761059484     A.U. after   11 cycles
 SCF Done:  E(RB3LYP) =  -331.761460667     A.U. after   10 cycles
 SCF Done:  E(RB3LYP) =  -331.750339196     A.U. after   13 cycles
 SCF Done:  E(RB3LYP) =  -331.761709915     A.U. after   10 cycles
 SCF Done:  E(RB3LYP) =  -331.760787731     A.U. after   11 cycles
 SCF Done:  E(RB3LYP) =  -331.761970599     A.U. after   11 cycles
 SCF Done:  E(RB3LYP) =  -331.762172106     A.U. after   10 cycles
 SCF Done:  E(RB3LYP) =  -331.762201631     A.U. after    9 cycles
 SCF Done:  E(RB3LYP) =  -331.762208054     A.U. after    8 cycles
 SCF Done:  E(RB3LYP) =  -331.762208598     A.U. after    7 cycles
 SCF Done:  E(RB3LYP) =  -331.762208643     A.U. after    6 cycles
 Optimization completed.
    -- Stationary point found.
 Normal termination of Gaussian 09 at Fri Sep 10 21:20:23 2021.

 ----------------------------------------------------------------------
 #P Geom=AllCheck Guess=TCheck SCRF=Check GenChk RB3LYP/6-31G(d,p) Freq
 ----------------------------------------------------------------------

 Structure from the checkpoint file:  "/public/home/users/caep010/.cache/gau_scr/Gau-68050.chk"
 --------
 Frag_296
 --------
 Charge =  0 Multiplicity = 1

                         Standard orientation:
 ---------------------------------------------------------------------
 Center     Atomic      Atomic             Coordinates (Angstroms)
 Number     Number       Type             X           Y           Z
 ---------------------------------------------------------------------
      1          6           0        1.334525    1.332017    0.565140
      2          6           0        0.794027    0.009983   -0.020577
      3          6           0        1.320136   -0.144290   -1.463388
      4          6           0        1.375661   -1.146268    0.824818
      5          6           0       -0.791653   -0.006109    0.026555
      6          6           0       -1.380382   -1.215397   -0.738106
      7          6           0       -1.395782    1.277049   -0.576000
      8          7           0       -1.202093   -0.026121    1.450275
      9          1           0        2.421063    1.270212    0.692374
     10          1           0        1.134405    2.183593   -0.092471
     11          1           0        0.882294    1.532627    1.539497
     12          1           0        1.095168   -1.129754   -1.882045
     13          1           0        2.409291   -0.027105   -1.474444
     14          1           0        0.906898    0.612141   -2.138179
     15          1           0        1.012421   -2.127790    0.502135
     16          1           0        2.466795   -1.161398    0.730395
     17          1           0        1.144233   -1.021807    1.886472
     18          1           0       -2.467549   -1.236456   -0.602132
     19          1           0       -0.985607   -2.167338   -0.368438
     20          1           0       -1.186290   -1.168353   -1.814124
     21          1           0       -2.488650    1.192768   -0.610356
     22          1           0       -1.149223    2.152737    0.027701
     23          1           0       -1.052831    1.449344   -1.599557
     24          1           0       -2.204481    0.145558    1.506002
     25          1           0       -1.062483   -0.958043    1.834597
 ---------------------------------------------------------------------

 SCF Done:  E(RB3LYP) =  -331.762208643     A.U. after    1 cycles

 The electronic state is 1-A.
 Alpha  occ. eigenvalues --  -14.30466 -10.21565 -10.18944 -10.16915 -10.16810
 Alpha  occ. eigenvalues --  -10.16608 -10.16547 -10.15658  -0.88532  -0.79502
 Alpha  occ. eigenvalues --   -0.73453  -0.68896  -0.67435  -0.66181  -0.59304
 Alpha  occ. eigenvalues --   -0.50770  -0.48379  -0.45097  -0.44472  -0.43293
 Alpha  occ. eigenvalues --   -0.42124  -0.39760  -0.38676  -0.37550  -0.36828
 Alpha  occ. eigenvalues --   -0.36532  -0.35859  -0.34962  -0.34154  -0.31293
 Alpha  occ. eigenvalues --   -0.30405  -0.29851  -0.22957
 Alpha virt. eigenvalues --    0.06791   0.11484   0.12290   0.12522   0.13576
 Alpha virt. eigenvalues --    0.14156   0.15168   0.15840   0.16792   0.17412
 Alpha virt. eigenvalues --    0.19425   0.19668   0.20460   0.21117   0.21880

 Mulliken charges:
               1
     1  C   -0.309405
     2  C    0.077156
     3  C   -0.309770
     4  C   -0.324657
     5  C    0.153203
     6  C   -0.313423
     7  C   -0.314990
     8  N   -0.590464
     9  H    0.085230
    10  H    0.090565
    11  H    0.125038
    12  H    0.096932
    13  H    0.095305
    14  H    0.094912
    15  H    0.090398
    16  H    0.096785
    17  H    0.108469
    18  H    0.087260
    19  H    0.093342
    20  H    0.101844
    21  H    0.087161
    22  H    0.117812
    23  H    0.101871
    24  H    0.228054
    25  H    0.231371
 Sum of Mulliken charges =  -0.00000

 Dipole moment (field-independent basis, Debye):
    X=             -0.7866    Y=             -0.8136    Z=             -0.4454  Tot=              1.2162
 Quadrupole moment (field-independent basis, Debye-Ang):
   XX=            -51.4164   YY=            -53.9035   ZZ=            -55.3383
   XY=              0.4343   XZ=             -1.0051   YZ=             -2.2255

  Exact polarizability:  87.723  -0.516  79.617  -0.111  -0.842  78.908
 Approx polarizability: 117.365  -1.463 111.613  -1.196  -1.488 113.363

                      1                      2                      3
                      A                      A                      A
 Frequencies --     92.7956               214.8694               252.8000
 Red. masses --      2.5816                 1.0181                 1.1445
 Frc consts  --      0.0131                 0.0277                 0.0431
 IR Inten    --      0.2370                 5.7496                 1.7046

                      4                      5                      6
                      A                      A                      A
 Frequencies --    256.0778               271.3432               288.7200
 Red. masses --      1.3095                 1.2119                 1.4199
 Frc consts  --      0.0506                 0.0526                 0.0697
 IR Inten    --     13.3267                 2.0148                 0.1161

                      7                      8                      9
                      A                      A                      A
 Frequencies --    293.3999               304.1814               316.5412
 Red. masses --      1.4812                 1.6630                 1.4214
 Frc consts  --      0.0751                 0.0907                 0.0839
 IR Inten    --      9.1051                 3.0170                15.4556

                     10                     11                     12
                      A                      A                      A
 Frequencies --    365.9639               374.1107               382.0335
 Red. masses --      1.6739                 2.0943                 2.0574
 Frc consts  --      0.1321                 0.1727                 0.1769
 IR Inten    --      3.0601                 0.4722                 0.0401

                     13                     14                     15
                      A                      A                      A
 Frequencies --    391.5447               403.9475               481.3472
 Red. masses --      2.1105                 2.3719                 2.3860
 Frc consts  --      0.1906                 0.2280                 0.3257
 IR Inten    --      0.3957                 2.3804                 0.5615

                     16                     17                     18
                      A                      A                      A
 Frequencies --    488.4965               504.8252               649.8293
 Red. masses --      2.7158                 2.4211                 2.9159
 Frc consts  --      0.3818                 0.3635                 0.7255
 IR Inten    --      2.8034                 5.5471                 0.5622

                     19                     20                     21
                      A                      A                      A
 Frequencies --    808.7923               864.7162               920.0278
 Red. masses --      2.8633                 1.9614                 1.5008
 Frc consts  --      1.1035                 0.8641                 0.7485
 IR Inten    --      9.9055                53.2917                53.4268

                     22                     23                     24
                      A                      A                      A
 Frequencies --    931.3270               937.1536               937.6517
 Red. masses --      1.5832                 1.8097                 1.6437
 Frc consts  --      0.8091                 0.9364                 0.8514
 IR Inten    --      4.3117                 1.1842                 2.6908

                     25                     26                     27
                      A                      A                      A
 Frequencies --    964.5382               966.1790              1016.9864
 Red. masses --      1.2371                 1.6578                 1.2755
 Frc consts  --      0.6781                 0.9118                 0.7773
 IR Inten    --      0.2139                 1.9713                 2.3470

                     28                     29                     30
                      A                      A                      A
 Frequencies --   1037.0587              1052.2049              1097.5781
 Red. masses --      1.3613                 1.3683                 1.4468
 Frc consts  --      0.8626                 0.8925                 1.0269
 IR Inten    --      2.3970                 2.2614                 5.4089

                     31                     32                     33
                      A                      A                      A
 Frequencies --   1192.7459              1214.5378              1239.6506
 Red. masses --      2.2330                 2.4331                 2.2349
 Frc consts  --      1.8717                 2.1146                 2.0235
 IR Inten    --     32.2828                18.1618                11.3056

                     34                     35                     36
                      A                      A                      A
 Frequencies --   1261.6755              1279.1079              1342.6239
 Red. masses --      3.0569                 2.8320                 1.9196
 Frc consts  --      2.8670                 2.7300                 2.0388
 IR Inten    --      0.5843                 1.1048                 1.2566

                     37                     38                     39
                      A                      A                      A
 Frequencies --   1404.7689              1408.9023              1414.8890
 Red. masses --      1.2692                 1.2433                 1.2461
 Frc consts  --      1.4756                 1.4541                 1.4698
 IR Inten    --      1.5103                 5.2837                10.0702

                     40                     41                     42
                      A                      A                      A
 Frequencies --   1426.8977              1443.7614              1491.7067
 Red. masses --      1.2446                 1.2152                 1.0499
 Frc consts  --      1.4930                 1.4924                 1.3765
 IR Inten    --     18.4345                 3.1568                 0.7937

                     43                     44                     45
                      A                      A                      A
 Frequencies --   1498.2573              1505.7615              1509.4200
 Red. masses --      1.0479                 1.0478                 1.0492
 Frc consts  --      1.3860                 1.3997                 1.4084
 IR Inten    --      0.3192                 0.3394                 0.2119

                     46                     47                     48
                      A                      A                      A
 Frequencies --   1512.0439              1520.1870              1524.2331
 Red. masses --      1.0468                 1.0479                 1.0519
 Frc consts  --      1.4101                 1.4269                 1.4399
 IR Inten    --      0.1840                 5.3382                 5.4796

                     49                     50                     51
                      A                      A                      A
 Frequencies --   1528.4866              1535.4294              1542.7061
 Red. masses --      1.0561                 1.0517                 1.0597
 Frc consts  --      1.4537                 1.4608                 1.4859
 IR Inten    --      1.7377                 7.2153                 4.5701

                     52                     53                     54
                      A                      A                      A
 Frequencies --   1666.9459              3039.0196              3041.3528
 Red. masses --      1.0902                 1.0367                 1.0359
 Frc consts  --      1.7849                 5.6410                 5.6454
 IR Inten    --     30.3127                 5.5957                14.9939

                     55                     56                     57
                      A                      A                      A
 Frequencies --   3042.1367              3045.4953              3051.9952
 Red. masses --      1.0370                 1.0401                 1.0391
 Frc consts  --      5.6544                 5.6839                 5.7026
 IR Inten    --     45.8809                45.3154                 5.6547

                     58                     59                     60
                      A                      A                      A
 Frequencies --   3101.6106              3103.8166              3105.7486
 Red. masses --      1.1015                 1.1014                 1.1006
 Frc consts  --      6.2430                 6.2516                 6.2547
 IR Inten    --      6.0606                 1.0708                22.6652

                     61                     62                     63
                      A                      A                      A
 Frequencies --   3110.0765              3114.5037              3119.6653
 Red. masses --      1.0996                 1.0976                 1.0985
 Frc consts  --      6.2663                 6.2732                 6.2991
 IR Inten    --    107.5175                 4.1076                64.5401

                     64                     65                     66
                      A                      A                      A
 Frequencies --   3123.5896              3125.0286              3139.7531
 Red. masses --      1.1009                 1.1016                 1.1013
 Frc consts  --      6.3288                 6.3384                 6.3965
 IR Inten    --     20.7582                30.2033                22.8128

                     67                     68                     69
                      A                      A                      A
 Frequencies --   3148.9364              3480.1590              3561.9281
 Red. masses --      1.1024                 1.0498                 1.0917
 Frc consts  --      6.4404                 7.4909                 8.1607
 IR Inten    --     18.7345                 2.7036                 0.9311

 - Thermochemistry -
 -------------------
 Temperature   298.150 Kelvin.  Pressure   1.00000 Atm.
 Atom     1 has atomic number  6 and mass  12.00000

 Molecular mass:   115.13610 amu.
 Principal axes and moments of inertia in atomic units:
                           1         2         3
     Eigenvalues --   773.363711076.688981083.74012
           X            0.99979   0.01193   0.01637
           Y           -0.00329   0.89312  -0.44980
           Z           -0.01999   0.44966   0.89298
 This molecule is an asymmetric top.
 Rotational symmetry number  1.
 Warning -- assumption of classical behavior for rotation
           may cause significant error
 Rotational temperatures (Kelvin)      0.11200     0.08044     0.07992
 Rotational constants (GHZ):           2.33363     1.67620     1.66529
 Zero-point vibrational energy     614800.4 (Joules/Mol)
                                  146.94081 (Kcal/Mol)
 Warning -- explicit consideration of  17 degrees of freedom as
           vibrations may cause significant error
 Vibrational temperatures:    133.51   309.15   363.72   368.44   390.40
          (Kelvin)            415.40   422.14   437.65   455.43   526.54
                              538.26   549.66   563.34   581.19   692.55
                              702.84   726.33   934.96  1163.67  1244.13
                             1323.71  1339.97  1348.35  1349.07  1387.75
                             1390.11  1463.21  1492.09  1513.89  1579.17
                             1716.09  1747.45  1783.58  1815.27  1840.35
                             1931.73  2021.15  2027.09  2035.71  2052.98
                             2077.25  2146.23  2155.66  2166.45  2171.72
                             2175.49  2187.21  2193.03  2199.15  2209.14
                             2219.61  2398.36  4372.47  4375.82  4376.95
                             4381.78  4391.13  4462.52  4465.69  4468.47
                             4474.70  4481.07  4488.50  4494.14  4496.21
                             4517.40  4530.61  5007.17  5124.81

 Zero-point correction=                           0.234165 (Hartree/Particle)
 Thermal correction to Energy=                    0.244535
 Thermal correction to Enthalpy=                  0.245479
 Thermal correction to Gibbs Free Energy=         0.200819
 Sum of electronic and zero-point Energies=           -331.528044
 Sum of electronic and thermal Energies=              -331.517673
 Sum of electronic and thermal Enthalpies=            -331.516729
 Sum of electronic and thermal Free Energies=         -331.561390

                     E (Thermal)             CV                S
                      KCal/Mol        Cal/Mol-Kelvin    Cal/Mol-Kelvin
 Total                  153.448             41.362             93.996
 Electronic               0.000              0.000              0.000
 Translational            0.889              2.981             40.138
 Rotational               0.889              2.981             28.292
 Vibrational            151.671             35.401             25.566
 Vibration     1          0.602              1.954              3.600
 Vibration     2          0.645              1.818              2.002
 Vibration     3          0.664              1.758              1.711
 Vibration     4          0.666              1.753              1.688
 Vibration     5          0.675              1.726              1.588
 Vibration     6          0.685              1.695              1.481
 Vibration     7          0.688              1.686              1.454
 Vibration     8          0.695              1.666              1.394
 Vibration     9          0.703              1.642              1.328
 Vibration    10          0.739              1.542              1.097
 Vibration    11          0.745              1.525              1.063
 Vibration    12          0.751              1.509              1.031
 Vibration    13          0.759              1.488              0.994
 Vibration    14          0.769              1.462              0.948
 Vibration    15          0.838              1.291              0.706
 Vibration    16          0.844              1.276              0.688
 Vibration    17          0.860              1.239              0.646

 Optimization completed.
    -- Stationary point found.
 Normal termination of Gaussian 09 at Fri Sep 10 21:20:56 2021.
