 Gaussian 09, Revision E.01,
 Gaussian 09:  ES64L-G09RevE.01 30-Nov-2015

 ----------------------------
 #P OPT Freq B3LYP/6-31G(d,p)
 ----------------------------

 --------
 Frag_685
 --------
 Symbolic Z-matrix:
 Charge =  0 Multiplicity = 1

 SCF Done:  E(RB3LYP) =  -283.199973166     A.U. after   15 cycles
 SCF Done:  E(RB3LYP) =  -283.200082057     A.U. after   10 cycles
 SCF Done:  E(RB3LYP) =  -283.200086103     A.U. after    9 cycles
 SCF Done:  E(RB3LYP) =  -283.200082107     A.U. after    9 cycles
 SCF Done:  E(RB3LYP) =  -283.200086739     A.U. after    9 cycles
 Optimization completed.
    -- Stationary point found.
 Normal termination of Gaussian 09 at Thu Sep  8 15:16:24 2022.

 ----------------------------------------------------------------------
 #P Geom=AllCheck Guess=TCheck SCRF=Check GenChk RB3LYP/6-31G(d,p) Freq
 ----------------------------------------------------------------------

 Structure from the checkpoint file:  "B3LYP6-31Gdp.Frag_685.chk"
 --------
 Frag_685
 --------
 Charge =  0 Multiplicity = 1

                         Standard orientation:
 ---------------------------------------------------------------------
 Center     Atomic      Atomic             Coordinates (Angstroms)
 Number     Number       Type             X           Y           Z
 ---------------------------------------------------------------------
      1          7           0        1.955556   -0.087929    0.000010
      2          6           0        0.820553   -0.650405   -0.000005
      3          6           0       -0.477854    0.136949   -0.000043
      4          8           0       -0.495703    1.343231    0.000012
      5          8           0       -1.617103   -0.587581    0.000012
      6          1           0        1.807850    0.932383   -0.000005
      7          1           0        0.768357   -1.745404    0.000007
      8          1           0       -1.418847   -1.535942    0.000019
 ---------------------------------------------------------------------

 SCF Done:  E(RB3LYP) =  -283.200086739     A.U. after    1 cycles

 The electronic state is 1-A.
 Alpha  occ. eigenvalues --  -19.22215 -19.16072 -14.36042 -10.34289 -10.26685
 Alpha  occ. eigenvalues --   -1.12547  -1.04479  -0.93470  -0.69317  -0.63209
 Alpha  occ. eigenvalues --   -0.57167  -0.48365  -0.46932  -0.44450  -0.42458
 Alpha  occ. eigenvalues --   -0.35988  -0.33361  -0.31556  -0.28830
 Alpha virt. eigenvalues --   -0.07909   0.03780   0.06057   0.11421   0.13095
 Alpha virt. eigenvalues --    0.21495   0.28251   0.34274   0.38332   0.49883
 Alpha virt. eigenvalues --    0.51825   0.57190   0.59578   0.61367   0.65025

 Mulliken charges:
               1
     1  N   -0.423116
     2  C    0.055082
     3  C    0.578812
     4  O   -0.436704
     5  O   -0.471959
     6  H    0.264333
     7  H    0.105034
     8  H    0.328518
 Sum of Mulliken charges =  -0.00000

 Dipole moment (field-independent basis, Debye):
    X=             -0.5044    Y=             -3.0284    Z=             -0.0001  Tot=              3.0701
 Quadrupole moment (field-independent basis, Debye-Ang):
   XX=            -34.8104   YY=            -25.4095   ZZ=            -27.7767
   XY=              5.3267   XZ=             -0.0000   YZ=             -0.0001

  Exact polarizability:  39.425   4.850  38.585  -0.000   0.000  15.414
 Approx polarizability:  61.630  10.897  63.876  -0.000   0.001  22.191

                      1                      2                      3
                      A                      A                      A
 Frequencies --    136.5029               294.7104               460.9065
 Red. masses --      2.6526                 5.2616                 1.2775
 Frc consts  --      0.0291                 0.2692                 0.1599
 IR Inten    --      0.0376                24.3395               154.8990

                      4                      5                      6
                      A                      A                      A
 Frequencies --    491.1841               590.0453               679.3295
 Red. masses --      5.1041                 2.0740                 6.3158
 Frc consts  --      0.7255                 0.4254                 1.7173
 IR Inten    --      0.2326                 1.3391                23.6730

                      7                      8                      9
                      A                      A                      A
 Frequencies --    876.0962               878.5698              1159.4538
 Red. masses --      4.5997                 2.9447                 1.0704
 Frc consts  --      2.0801                 1.3392                 0.8478
 IR Inten    --      0.3565                 0.0182                63.0160

                     10                     11                     12
                      A                      A                      A
 Frequencies --   1173.3619              1251.5795              1319.5748
 Red. masses --      1.6653                 1.2856                 2.2289
 Frc consts  --      1.3508                 1.1865                 2.2867
 IR Inten    --      2.5023               107.2875               488.4085

                     13                     14                     15
                      A                      A                      A
 Frequencies --   1443.6285              1728.5632              1864.9884
 Red. masses --      1.3470                 9.4301                10.4044
 Frc consts  --      1.6540                16.6011                21.3215
 IR Inten    --      0.5321                 9.9464               159.8015

                     16                     17                     18
                      A                      A                      A
 Frequencies --   3084.4604              3385.1151              3788.4128
 Red. masses --      1.0899                 1.0723                 1.0659
 Frc consts  --      6.1091                 7.2395                 9.0135
 IR Inten    --     32.7098                 3.7983                43.2903

 - Thermochemistry -
 -------------------
 Temperature   298.150 Kelvin.  Pressure   1.00000 Atm.
 Atom     1 has atomic number  7 and mass  14.00307

 Molecular mass:    73.01638 amu.
 Principal axes and moments of inertia in atomic units:
                           1         2         3
     Eigenvalues --   164.10419 414.65423 578.75843
           X            0.99938   0.03523  -0.00000
           Y           -0.03523   0.99938  -0.00000
           Z            0.00000   0.00000   1.00000
 This molecule is an asymmetric top.
 Rotational symmetry number  1.
 Rotational temperatures (Kelvin)      0.52780     0.20888     0.14965
 Rotational constants (GHZ):          10.99753     4.35240     3.11830
 Zero-point vibrational energy     147179.5 (Joules/Mol)
                                   35.17673 (Kcal/Mol)
 Warning -- explicit consideration of   5 degrees of freedom as
           vibrations may cause significant error
 Vibrational temperatures:    196.40   424.02   663.14   706.70   848.94
          (Kelvin)            977.40  1260.51  1264.06  1668.19  1688.20
                             1800.74  1898.57  2077.06  2487.01  2683.30
                             4437.84  4870.42  5450.67

 Zero-point correction=                           0.056058 (Hartree/Particle)
 Thermal correction to Energy=                    0.060945
 Thermal correction to Enthalpy=                  0.061890
 Thermal correction to Gibbs Free Energy=         0.028163
 Sum of electronic and zero-point Energies=           -283.144029
 Sum of electronic and thermal Energies=              -283.139141
 Sum of electronic and thermal Enthalpies=            -283.138197
 Sum of electronic and thermal Free Energies=         -283.171924

                     E (Thermal)             CV                S
                      KCal/Mol        Cal/Mol-Kelvin    Cal/Mol-Kelvin
 Total                   38.244             16.066             70.983
 Electronic               0.000              0.000              0.000
 Translational            0.889              2.981             38.781
 Rotational               0.889              2.981             25.180
 Vibrational             36.466             10.105              7.023
 Vibration     1          0.614              1.917              2.852
 Vibration     2          0.689              1.684              1.447
 Vibration     3          0.819              1.337              0.763
 Vibration     4          0.847              1.270              0.681
 Vibration     5          0.947              1.053              0.467

 Optimization completed.
    -- Stationary point found.
 Normal termination of Gaussian 09 at Thu Sep  8 15:16:31 2022.
