 Gaussian 09, Revision E.01,
 Gaussian 09:  ES64L-G09RevE.01 30-Nov-2015

 ----------------------------
 #P OPT Freq B3LYP/6-31G(d,p)
 ----------------------------

 --------
 Frag_524
 --------
 Symbolic Z-matrix:
 Charge =  0 Multiplicity = 1

 SCF Done:  E(RB3LYP) =  -171.082203547     A.U. after   12 cycles
 SCF Done:  E(RB3LYP) =  -171.082231637     A.U. after    8 cycles
 SCF Done:  E(RB3LYP) =  -171.082233265     A.U. after    7 cycles
 SCF Done:  E(RB3LYP) =  -171.082233675     A.U. after    7 cycles
 SCF Done:  E(RB3LYP) =  -171.082233793     A.U. after    7 cycles
 Optimization completed.
    -- Stationary point found.
 Normal termination of Gaussian 09 at Thu Sep  8 14:55:13 2022.

 ----------------------------------------------------------------------
 #P Geom=AllCheck Guess=TCheck SCRF=Check GenChk RB3LYP/6-31G(d,p) Freq
 ----------------------------------------------------------------------

 Structure from the checkpoint file:  "B3LYP6-31Gdp.Frag_524.chk"
 --------
 Frag_524
 --------
 Charge =  0 Multiplicity = 1

                         Standard orientation:
 ---------------------------------------------------------------------
 Center     Atomic      Atomic             Coordinates (Angstroms)
 Number     Number       Type             X           Y           Z
 ---------------------------------------------------------------------
      1          7           0       -1.129427   -0.317715   -0.064369
      2          6           0        0.041736    0.539332    0.015726
      3          8           0        1.214615   -0.242841    0.056768
      4          1           0       -1.324888   -0.746019    0.836789
      5          1           0       -1.952389    0.207172   -0.346711
      6          1           0        0.094919    1.173534    0.913523
      7          1           0        0.016935    1.204455   -0.863147
      8          1           0        1.104073   -0.908402   -0.638370
 ---------------------------------------------------------------------

 SCF Done:  E(RB3LYP) =  -171.082233793     A.U. after    1 cycles

 The electronic state is 1-A.
 Alpha  occ. eigenvalues --  -19.13509 -14.32057 -10.25346  -1.01737  -0.87098
 Alpha  occ. eigenvalues --   -0.64757  -0.51978  -0.48537  -0.43922  -0.41475
 Alpha  occ. eigenvalues --   -0.33693  -0.27290  -0.24678
 Alpha virt. eigenvalues --    0.08125   0.11034   0.13687   0.14941   0.19236
 Alpha virt. eigenvalues --    0.21868   0.25880   0.54051   0.54991   0.60955
 Alpha virt. eigenvalues --    0.71103   0.72946   0.76387   0.79564   0.81114

 Mulliken charges:
               1
     1  N   -0.612107
     2  C    0.177816
     3  O   -0.528115
     4  H    0.246334
     5  H    0.238934
     6  H    0.091953
     7  H    0.082333
     8  H    0.302851
 Sum of Mulliken charges =   0.00000

 Dipole moment (field-independent basis, Debye):
    X=             -1.8645    Y=              0.5003    Z=             -0.1176  Tot=              1.9340
 Quadrupole moment (field-independent basis, Debye-Ang):
   XX=            -19.0651   YY=            -18.1260   ZZ=            -17.8991
   XY=             -1.6382   XZ=             -2.4195   YZ=             -0.1956

  Exact polarizability:  25.532  -0.547  22.684   0.161  -0.235  20.996
 Approx polarizability:  32.480  -1.139  29.295   1.281  -0.315  27.756

                      1                      2                      3
                      A                      A                      A
 Frequencies --    269.2384               391.5469               545.4711
 Red. masses --      1.1552                 1.2684                 2.2193
 Frc consts  --      0.0493                 0.1146                 0.3890
 IR Inten    --     42.9430               109.3097                56.2414

                      4                      5                      6
                      A                      A                      A
 Frequencies --    829.3210               971.0374              1014.0773
 Red. masses --      1.2920                 1.3907                 2.5126
 Frc consts  --      0.5235                 0.7726                 1.5223
 IR Inten    --    163.9861                 7.5994                52.7990

                      7                      8                      9
                      A                      A                      A
 Frequencies --   1120.7731              1218.9100              1313.6727
 Red. masses --      3.2466                 1.2397                 1.3672
 Frc consts  --      2.4028                 1.0852                 1.3901
 IR Inten    --    135.4288                 3.8655                 8.7903

                     10                     11                     12
                      A                      A                      A
 Frequencies --   1399.6778              1466.4690              1547.2146
 Red. masses --      1.1998                 1.2495                 1.0906
 Frc consts  --      1.3848                 1.5832                 1.5382
 IR Inten    --     11.9817                71.6659                 2.3083

                     13                     14                     15
                      A                      A                      A
 Frequencies --   1656.8669              2979.3107              3017.0415
 Red. masses --      1.1094                 1.0601                 1.1044
 Frc consts  --      1.7944                 5.5439                 5.9229
 IR Inten    --     34.8217                92.1981                85.8077

                     16                     17                     18
                      A                      A                      A
 Frequencies --   3502.4933              3597.1655              3782.9711
 Red. masses --      1.0491                 1.0940                 1.0650
 Frc consts  --      7.5829                 8.3401                 8.9794
 IR Inten    --      0.1619                 0.4346                15.6203

 - Thermochemistry -
 -------------------
 Temperature   298.150 Kelvin.  Pressure   1.00000 Atm.
 Atom     1 has atomic number  7 and mass  14.00307

 Molecular mass:    47.03711 amu.
 Principal axes and moments of inertia in atomic units:
                           1         2         3
     Eigenvalues --    46.52935 182.78397 208.48296
           X            0.99969  -0.00888  -0.02312
           Y            0.00863   0.99990  -0.01077
           Z            0.02321   0.01057   0.99967
 This molecule is an asymmetric top.
 Rotational symmetry number  1.
 Rotational temperatures (Kelvin)      1.86149     0.47386     0.41545
 Rotational constants (GHZ):          38.78715     9.87363     8.65654
 Zero-point vibrational energy     183167.8 (Joules/Mol)
                                   43.77815 (Kcal/Mol)
 Warning -- explicit consideration of   3 degrees of freedom as
           vibrations may cause significant error
 Vibrational temperatures:    387.37   563.35   784.81  1193.21  1397.10
          (Kelvin)           1459.03  1612.54  1753.74  1890.08  2013.82
                             2109.92  2226.09  2383.86  4286.56  4340.84
                             5039.30  5175.51  5442.84

 Zero-point correction=                           0.069765 (Hartree/Particle)
 Thermal correction to Energy=                    0.073783
 Thermal correction to Enthalpy=                  0.074727
 Thermal correction to Gibbs Free Energy=         0.044668
 Sum of electronic and zero-point Energies=           -171.012469
 Sum of electronic and thermal Energies=              -171.008451
 Sum of electronic and thermal Enthalpies=            -171.007507
 Sum of electronic and thermal Free Energies=         -171.037566

                     E (Thermal)             CV                S
                      KCal/Mol        Cal/Mol-Kelvin    Cal/Mol-Kelvin
 Total                   46.300             12.599             63.265
 Electronic               0.000              0.000              0.000
 Translational            0.889              2.981             37.470
 Rotational               0.889              2.981             22.099
 Vibrational             44.522              6.637              3.696
 Vibration     1          0.674              1.730              1.601
 Vibration     2          0.759              1.488              0.994
 Vibration     3          0.901              1.150              0.554

 Normal termination of Gaussian 09 at Thu Sep  8 14:55:18 2022.
