 Gaussian 09, Revision E.01,
 Gaussian 09:  ES64L-G09RevE.01 30-Nov-2015

 ----------------------------
 #P OPT Freq B3LYP/6-31G(d,p)
 ----------------------------

 --------
 Frag_941
 --------
 Symbolic Z-matrix:
 Charge =  0 Multiplicity = 1

 SCF Done:  E(RB3LYP) =  -284.284958672     A.U. after   15 cycles
 SCF Done:  E(RB3LYP) =  -284.285068325     A.U. after   11 cycles
 SCF Done:  E(RB3LYP) =  -284.285082357     A.U. after   11 cycles
 SCF Done:  E(RB3LYP) =  -284.285088169     A.U. after    9 cycles
 Optimization completed.
    -- Stationary point found.
 Normal termination of Gaussian 09 at Thu Sep  8 15:20:38 2022.

 ----------------------------------------------------------------------
 #P Geom=AllCheck Guess=TCheck SCRF=Check GenChk RB3LYP/6-31G(d,p) Freq
 ----------------------------------------------------------------------

 Structure from the checkpoint file:  "B3LYP6-31Gdp.Frag_941.chk"
 --------
 Frag_941
 --------
 Charge =  0 Multiplicity = 1

                         Standard orientation:
 ---------------------------------------------------------------------
 Center     Atomic      Atomic             Coordinates (Angstroms)
 Number     Number       Type             X           Y           Z
 ---------------------------------------------------------------------
      1          6           0       -0.625252    1.298858    0.000016
      2          7           0       -0.633077   -0.008533    0.000159
      3          8           0       -1.592545   -0.773919   -0.000112
      4          8           0        0.614314   -0.737653    0.000083
      5          6           0        1.814528    0.026948   -0.000075
      6          1           0        0.294026    1.854954    0.000016
      7          1           0       -1.594789    1.770676   -0.000200
      8          1           0        1.908175    0.648320    0.898842
      9          1           0        2.606307   -0.724700   -0.000108
     10          1           0        1.908015    0.648222   -0.899076
 ---------------------------------------------------------------------

 SCF Done:  E(RB3LYP) =  -284.285088169     A.U. after    1 cycles

 The electronic state is 1-A.
 Alpha  occ. eigenvalues --  -19.21107 -19.14973 -14.53917 -10.25767 -10.22859
 Alpha  occ. eigenvalues --   -1.17595  -1.04115  -0.85505  -0.73593  -0.60521
 Alpha  occ. eigenvalues --   -0.56378  -0.51040  -0.50780  -0.45273  -0.44941
 Alpha  occ. eigenvalues --   -0.43499  -0.37602  -0.30508  -0.28144  -0.23661
 Alpha virt. eigenvalues --   -0.01651   0.04856   0.08634   0.12007   0.14376
 Alpha virt. eigenvalues --    0.14904   0.15126   0.18075   0.26391   0.32137
 Alpha virt. eigenvalues --    0.48528   0.52574   0.55327   0.55717   0.59722

 Mulliken charges:
               1
     1  C   -0.121104
     2  N    0.376519
     3  O   -0.439019
     4  O   -0.377765
     5  C   -0.097230
     6  H    0.124050
     7  H    0.143385
     8  H    0.122599
     9  H    0.145963
    10  H    0.122602
 Sum of Mulliken charges =  -0.00000

 Dipole moment (field-independent basis, Debye):
    X=              3.0370    Y=              2.9253    Z=             -0.0000  Tot=              4.2168
 Quadrupole moment (field-independent basis, Debye-Ang):
   XX=            -27.7531   YY=            -29.4857   ZZ=            -30.0205
   XY=             -2.5612   XZ=             -0.0003   YZ=             -0.0005

  Exact polarizability:  48.969   0.497  45.572   0.001   0.000  22.126
 Approx polarizability:  71.668  11.886  87.868   0.003   0.000  30.305

                      1                      2                      3
                      A                      A                      A
 Frequencies --     54.6504               282.4837               363.5501
 Red. masses --      3.6610                 1.0649                 3.0573
 Frc consts  --      0.0064                 0.0501                 0.2381
 IR Inten    --      0.9706                 0.2329                 0.8757

                      4                      5                      6
                      A                      A                      A
 Frequencies --    527.6504               557.4270               591.3916
 Red. masses --      7.8397                 2.7102                 1.3543
 Frc consts  --      1.2860                 0.4962                 0.2791
 IR Inten    --      5.6970                 0.9111                21.6271

                      7                      8                      9
                      A                      A                      A
 Frequencies --    664.8564               710.2901               735.7241
 Red. masses --      1.5971                 2.1475                 4.2445
 Frc consts  --      0.4160                 0.6383                 1.3537
 IR Inten    --     24.4283                40.3189               135.5309

                     10                     11                     12
                      A                      A                      A
 Frequencies --   1049.6928              1128.8568              1167.3309
 Red. masses --      6.1009                 1.9283                 1.2711
 Frc consts  --      3.9607                 1.4478                 1.0205
 IR Inten    --     92.1240                 8.2504                 0.7451

                     13                     14                     15
                      A                      A                      A
 Frequencies --   1197.2024              1291.7025              1464.3381
 Red. masses --      1.5184                 2.5267                 1.1995
 Frc consts  --      1.2822                 2.4839                 1.5154
 IR Inten    --      0.0503                99.7982                 8.3119

                     16                     17                     18
                      A                      A                      A
 Frequencies --   1489.5677              1492.5819              1524.4165
 Red. masses --      1.2495                 1.0470                 1.0771
 Frc consts  --      1.6335                 1.3743                 1.4747
 IR Inten    --     30.7575                 7.3022                 3.9884

                     19                     20                     21
                      A                      A                      A
 Frequencies --   1720.4548              3020.8990              3091.9227
 Red. masses --     11.0550                 1.0326                 1.1074
 Frc consts  --     19.2795                 5.5523                 6.2375
 IR Inten    --    310.4691                24.0007                35.0862

                     22                     23                     24
                      A                      A                      A
 Frequencies --   3147.7493              3240.5615              3370.7091
 Red. masses --      1.1008                 1.0512                 1.1249
 Frc consts  --      6.4263                 6.5037                 7.5302
 IR Inten    --      7.8703                 5.9923                 0.3875

 - Thermochemistry -
 -------------------
 Temperature   298.150 Kelvin.  Pressure   1.00000 Atm.
 Atom     1 has atomic number  6 and mass  12.00000

 Molecular mass:    75.03203 amu.
 Principal axes and moments of inertia in atomic units:
                           1         2         3
     Eigenvalues --   171.09338 409.12077 568.58033
           X            0.99978  -0.02093  -0.00000
           Y            0.02093   0.99978  -0.00001
           Z            0.00000   0.00001   1.00000
 This molecule is an asymmetric top.
 Rotational symmetry number  1.
 Rotational temperatures (Kelvin)      0.50624     0.21171     0.15233
 Rotational constants (GHZ):          10.54828     4.41127     3.17412
 Zero-point vibrational energy     202683.3 (Joules/Mol)
                                   48.44248 (Kcal/Mol)
 Warning -- explicit consideration of   6 degrees of freedom as
           vibrations may cause significant error
 Vibrational temperatures:     78.63   406.43   523.07   759.17   802.01
          (Kelvin)            850.88   956.58  1021.95  1058.54  1510.27
                             1624.17  1679.53  1722.51  1858.47  2106.85
                             2143.15  2147.49  2193.29  2475.35  4346.39
                             4448.58  4528.90  4662.44  4849.69

 Zero-point correction=                           0.077198 (Hartree/Particle)
 Thermal correction to Energy=                    0.082657
 Thermal correction to Enthalpy=                  0.083601
 Thermal correction to Gibbs Free Energy=         0.048385
 Sum of electronic and zero-point Energies=           -284.207890
 Sum of electronic and thermal Energies=              -284.202431
 Sum of electronic and thermal Enthalpies=            -284.201487
 Sum of electronic and thermal Free Energies=         -284.236704

                     E (Thermal)             CV                S
                      KCal/Mol        Cal/Mol-Kelvin    Cal/Mol-Kelvin
 Total                   51.868             18.534             74.119
 Electronic               0.000              0.000              0.000
 Translational            0.889              2.981             38.862
 Rotational               0.889              2.981             25.190
 Vibrational             50.090             12.572             10.067
 Vibration     1          0.596              1.976              4.642
 Vibration     2          0.682              1.706              1.519
 Vibration     3          0.737              1.547              1.107
 Vibration     4          0.883              1.189              0.592
 Vibration     5          0.913              1.123              0.529
 Vibration     6          0.949              1.050              0.465

 Optimization completed.
    -- Stationary point found.
 Normal termination of Gaussian 09 at Thu Sep  8 15:20:46 2022.
