 Gaussian 09, Revision E.01,
 Gaussian 09:  ES64L-G09RevE.01 30-Nov-2015

 -------------------------
 #P OPT Freq B3LYP/6-31G**
 -------------------------

 --------
 Frag_186
 --------
 Symbolic Z-matrix:
 Charge =  0 Multiplicity = 1

 SCF Done:  E(RB3LYP) =  -222.512575054     A.U. after   12 cycles
 SCF Done:  E(RB3LYP) =  -222.517174232     A.U. after   12 cycles
 SCF Done:  E(RB3LYP) =  -222.518081776     A.U. after   11 cycles
 SCF Done:  E(RB3LYP) =  -222.518191466     A.U. after   10 cycles
 SCF Done:  E(RB3LYP) =  -222.518212180     A.U. after   10 cycles
 SCF Done:  E(RB3LYP) =  -222.518215169     A.U. after    8 cycles
 SCF Done:  E(RB3LYP) =  -222.518216099     A.U. after    7 cycles
 SCF Done:  E(RB3LYP) =  -222.518216153     A.U. after    7 cycles
 Optimization completed.
    -- Stationary point found.
 Normal termination of Gaussian 09 at Sat Aug 21 01:34:05 2021.

 ----------------------------------------------------------------------
 #P Geom=AllCheck Guess=TCheck SCRF=Check GenChk RB3LYP/6-31G(d,p) Freq
 ----------------------------------------------------------------------

 Structure from the checkpoint file:  "/public/home/users/caep010/.cache/gau_scr/Gau-61981.chk"
 --------
 Frag_186
 --------
 Charge =  0 Multiplicity = 1

                         Standard orientation:
 ---------------------------------------------------------------------
 Center     Atomic      Atomic             Coordinates (Angstroms)
 Number     Number       Type             X           Y           Z
 ---------------------------------------------------------------------
      1          7           0        0.966645   -0.953922    0.043898
      2          7           0       -0.015841   -0.028361   -0.404059
      3          7           0        0.176370    1.316867    0.072921
      4          7           0       -1.278999   -0.510926    0.033307
      5          1           0        1.824952   -0.731557   -0.454170
      6          1           0        1.155095   -0.814636    1.047042
      7          1           0        0.495569    1.294431    1.052931
      8          1           0        0.935196    1.720412   -0.474296
      9          1           0       -1.960664    0.083546   -0.433078
     10          1           0       -1.387370   -0.317804    1.039104
 ---------------------------------------------------------------------

 SCF Done:  E(RB3LYP) =  -222.518216153     A.U. after    1 cycles

 The electronic state is 1-A.
 Alpha  occ. eigenvalues --  -14.40571 -14.34861 -14.34627 -14.33862  -1.03286
 Alpha  occ. eigenvalues --   -0.86212  -0.85600  -0.66859  -0.53557  -0.51311
 Alpha  occ. eigenvalues --   -0.48765  -0.46924  -0.43603  -0.30961  -0.27325
 Alpha  occ. eigenvalues --   -0.23802  -0.23008
 Alpha virt. eigenvalues --    0.05202   0.11010   0.11646   0.12106   0.15614
 Alpha virt. eigenvalues --    0.16537   0.17898   0.22738   0.25904   0.60422
 Alpha virt. eigenvalues --    0.63464   0.65300   0.66876   0.68254   0.68986

 Mulliken charges:
               1
     1  N   -0.398755
     2  N   -0.154117
     3  N   -0.435781
     4  N   -0.389181
     5  H    0.249834
     6  H    0.204985
     7  H    0.200769
     8  H    0.249249
     9  H    0.262193
    10  H    0.210805
 Sum of Mulliken charges =  -0.00000

 Dipole moment (field-independent basis, Debye):
    X=              1.8106    Y=              2.0651    Z=              1.8019  Tot=              3.2848
 Quadrupole moment (field-independent basis, Debye-Ang):
   XX=            -19.4702   YY=            -30.5129   ZZ=            -23.0968
   XY=              0.5380   XZ=             -0.4429   YZ=             -0.9510

  Exact polarizability:  35.494   0.661  30.105  -0.359  -0.845  29.700
 Approx polarizability:  45.286   0.983  40.459  -0.194  -0.954  44.010

                      1                      2                      3
                      A                      A                      A
 Frequencies --    226.4614               264.7174               316.4885
 Red. masses --      1.0637                 1.0979                 1.1615
 Frc consts  --      0.0321                 0.0453                 0.0685
 IR Inten    --     28.7634                49.0330                33.4914

                      4                      5                      6
                      A                      A                      A
 Frequencies --    495.2374               517.7047               532.9464
 Red. masses --      2.4658                 2.5609                 2.7210
 Frc consts  --      0.3563                 0.4044                 0.4554
 IR Inten    --     16.9921                27.1057                12.1563

                      7                      8                      9
                      A                      A                      A
 Frequencies --    805.7727               848.3381               915.0499
 Red. masses --      7.4372                 1.9178                 2.8630
 Frc consts  --      2.8450                 0.8132                 1.4124
 IR Inten    --     20.0919               179.7768                90.7374

                     10                     11                     12
                      A                      A                      A
 Frequencies --   1044.7554              1107.6265              1233.1073
 Red. masses --      1.6151                 1.5902                 1.8262
 Frc consts  --      1.0387                 1.1494                 1.6361
 IR Inten    --     74.0546                71.8995                10.4658

                     13                     14                     15
                      A                      A                      A
 Frequencies --   1268.2368              1317.7321              1412.6294
 Red. masses --      1.1223                 1.3716                 1.3808
 Frc consts  --      1.0636                 1.4032                 1.6235
 IR Inten    --      5.8617                 5.3923                17.4419

                     16                     17                     18
                      A                      A                      A
 Frequencies --   1641.6198              1666.8197              1698.3376
 Red. masses --      1.0763                 1.0799                 1.0863
 Frc consts  --      1.7090                 1.7677                 1.8460
 IR Inten    --      2.0394                12.3631                35.0236

                     19                     20                     21
                      A                      A                      A
 Frequencies --   3309.1738              3319.8808              3327.8848
 Red. masses --      1.0556                 1.0591                 1.0598
 Frc consts  --      6.8104                 6.8777                 6.9155
 IR Inten    --     54.8914                15.0340                27.8839

                     22                     23                     24
                      A                      A                      A
 Frequencies --   3525.2384              3547.1198              3548.5564
 Red. masses --      1.0826                 1.0801                 1.0816
 Frc consts  --      7.9269                 8.0072                 8.0249
 IR Inten    --      0.3438                 2.1116                 0.2580

 - Thermochemistry -
 -------------------
 Temperature   298.150 Kelvin.  Pressure   1.00000 Atm.
 Atom     1 has atomic number  7 and mass  14.00307

 Molecular mass:    62.05925 amu.
 Principal axes and moments of inertia in atomic units:
                           1         2         3
     Eigenvalues --   188.88558 194.23632 338.23717
           X            0.98310   0.18306  -0.00251
           Y           -0.18308   0.98307  -0.00752
           Z            0.00109   0.00785   0.99997
 This molecule is an asymmetric top.
 Rotational symmetry number  1.
 Rotational temperatures (Kelvin)      0.45855     0.44592     0.25607
 Rotational constants (GHZ):           9.55468     9.29147     5.33573
 Zero-point vibrational energy     226641.1 (Joules/Mol)
                                   54.16853 (Kcal/Mol)
 Warning -- explicit consideration of   6 degrees of freedom as
           vibrations may cause significant error
 Vibrational temperatures:    325.83   380.87   455.36   712.54   744.86
          (Kelvin)            766.79  1159.33  1220.57  1316.55  1503.17
                             1593.63  1774.16  1824.71  1895.92  2032.46
                             2361.92  2398.18  2443.53  4761.16  4776.56
                             4788.08  5072.03  5103.51  5105.57

 Zero-point correction=                           0.086323 (Hartree/Particle)
 Thermal correction to Energy=                    0.091483
 Thermal correction to Enthalpy=                  0.092427
 Thermal correction to Gibbs Free Energy=         0.059248
 Sum of electronic and zero-point Energies=           -222.431893
 Sum of electronic and thermal Energies=              -222.426734
 Sum of electronic and thermal Enthalpies=            -222.425789
 Sum of electronic and thermal Free Energies=         -222.458968

                     E (Thermal)             CV                S
                      KCal/Mol        Cal/Mol-Kelvin    Cal/Mol-Kelvin
 Total                   57.406             17.803             69.831
 Electronic               0.000              0.000              0.000
 Translational            0.889              2.981             38.296
 Rotational               0.889              2.981             24.032
 Vibrational             55.629             11.842              7.502
 Vibration     1          0.650              1.801              1.907
 Vibration     2          0.671              1.738              1.630
 Vibration     3          0.703              1.642              1.328
 Vibration     4          0.851              1.261              0.670
 Vibration     5          0.873              1.211              0.615
 Vibration     6          0.888              1.177              0.581

 Normal termination of Gaussian 09 at Sat Aug 21 01:34:12 2021.
