 Gaussian 09, Revision E.01,
 Gaussian 09:  ES64L-G09RevE.01 30-Nov-2015

 ----------------------------
 #P OPT Freq B3LYP/6-31G(d,p)
 ----------------------------

 --------
 Frag_788
 --------
 Symbolic Z-matrix:
 Charge =  0 Multiplicity = 1

 SCF Done:  E(RB3LYP) =  -384.140467085     A.U. after   12 cycles
 SCF Done:  E(RB3LYP) =  -384.140532566     A.U. after   10 cycles
 SCF Done:  E(RB3LYP) =  -384.140537264     A.U. after    8 cycles
 SCF Done:  E(RB3LYP) =  -384.140540082     A.U. after    7 cycles
 SCF Done:  E(RB3LYP) =  -384.140540503     A.U. after    7 cycles
 Optimization completed.
    -- Stationary point found.
 Normal termination of Gaussian 09 at Thu Sep  8 15:25:22 2022.

 ----------------------------------------------------------------------
 #P Geom=AllCheck Guess=TCheck SCRF=Check GenChk RB3LYP/6-31G(d,p) Freq
 ----------------------------------------------------------------------

 Structure from the checkpoint file:  "B3LYP6-31Gdp.Frag_788.chk"
 --------
 Frag_788
 --------
 Charge =  0 Multiplicity = 1

                         Standard orientation:
 ---------------------------------------------------------------------
 Center     Atomic      Atomic             Coordinates (Angstroms)
 Number     Number       Type             X           Y           Z
 ---------------------------------------------------------------------
      1          6           0       -1.564579    1.270493    0.012689
      2          6           0       -0.848593   -0.000065   -0.461337
      3          6           0       -1.566044   -1.268325    0.017075
      4          6           0        0.625713   -0.000210   -0.025243
      5          8           0        0.736208   -0.079541    1.381525
      6          8           0        1.299263   -1.105192   -0.591046
      7          8           0        1.267584    1.181837   -0.458417
      8          1           0       -2.597467    1.283060   -0.349208
      9          1           0       -1.590503    1.310014    1.106626
     10          1           0       -1.062020    2.169242   -0.352948
     11          1           0       -0.819949   -0.002998   -1.558667
     12          1           0       -1.593581   -1.307169    1.110627
     13          1           0       -2.597707   -1.282708   -0.348319
     14          1           0       -1.061849   -2.166880   -0.347587
     15          1           0        1.268922    0.686512    1.636169
     16          1           0        1.718658   -1.555816    0.155249
     17          1           0        2.032072    0.878560   -0.967547
 ---------------------------------------------------------------------

 SCF Done:  E(RB3LYP) =  -384.140540503     A.U. after    1 cycles

 The electronic state is 1-A.
 Alpha  occ. eigenvalues --  -19.15855 -19.15846 -19.15773 -10.33365 -10.18340
 Alpha  occ. eigenvalues --  -10.16426 -10.16396  -1.10272  -1.00280  -1.00226
 Alpha  occ. eigenvalues --   -0.78913  -0.67377  -0.66039  -0.56589  -0.54703
 Alpha  occ. eigenvalues --   -0.54454  -0.47219  -0.43600  -0.40697  -0.39937
 Alpha  occ. eigenvalues --   -0.39410  -0.38392  -0.37108  -0.35465  -0.32820
 Alpha  occ. eigenvalues --   -0.32590  -0.30253  -0.30159  -0.27691
 Alpha virt. eigenvalues --    0.06949   0.10316   0.10594   0.12458   0.15466
 Alpha virt. eigenvalues --    0.16361   0.16785   0.18770   0.19186   0.20707
 Alpha virt. eigenvalues --    0.21639   0.24388   0.26321   0.27468   0.28241

 Mulliken charges:
               1
     1  C   -0.324744
     2  C   -0.049627
     3  C   -0.323075
     4  C    0.673757
     5  O   -0.548750
     6  O   -0.555072
     7  O   -0.555663
     8  H    0.096553
     9  H    0.107099
    10  H    0.118208
    11  H    0.095329
    12  H    0.115848
    13  H    0.096212
    14  H    0.109051
    15  H    0.316334
    16  H    0.314576
    17  H    0.313965
 Sum of Mulliken charges =  -0.00000

 Dipole moment (field-independent basis, Debye):
    X=              1.4651    Y=              0.0367    Z=              0.3910  Tot=              1.5168
 Quadrupole moment (field-independent basis, Debye-Ang):
   XX=            -37.2114   YY=            -44.0717   ZZ=            -43.2974
   XY=             -0.0540   XZ=              1.7310   YZ=              0.0097

  Exact polarizability:  56.301  -0.026  54.241  -0.215   0.068  49.227
 Approx polarizability:  70.432  -0.085  72.739  -1.096   0.071  72.444

                      1                      2                      3
                      A                      A                      A
 Frequencies --     60.2721                98.5963               112.4853
 Red. masses --      1.3294                 3.0125                 1.2620
 Frc consts  --      0.0028                 0.0173                 0.0094
 IR Inten    --     50.3286                 2.6672                52.4568

                      4                      5                      6
                      A                      A                      A
 Frequencies --    224.8173               239.6537               250.9763
 Red. masses --      1.0760                 1.2359                 3.1195
 Frc consts  --      0.0320                 0.0418                 0.1158
 IR Inten    --      0.2063                 0.1966                 0.8005

                      7                      8                      9
                      A                      A                      A
 Frequencies --    278.3013               339.6305               419.1221
 Red. masses --      2.1885                 2.6169                 2.9309
 Frc consts  --      0.0999                 0.1778                 0.3033
 IR Inten    --      2.2787                 4.9193                 9.1727

                     10                     11                     12
                      A                      A                      A
 Frequencies --    439.6460               457.4240               518.1368
 Red. masses --      1.1084                 2.6533                 3.7212
 Frc consts  --      0.1262                 0.3271                 0.5886
 IR Inten    --    137.2323                 2.5525                 9.8422

                     13                     14                     15
                      A                      A                      A
 Frequencies --    554.3350               613.1774               764.2217
 Red. masses --      4.6481                 2.9895                 3.6177
 Frc consts  --      0.8415                 0.6623                 1.2449
 IR Inten    --      6.7164                 9.9380                 5.3917

                     16                     17                     18
                      A                      A                      A
 Frequencies --    905.2768               940.4691               971.3686
 Red. masses --      2.4922                 1.1566                 1.4223
 Frc consts  --      1.2033                 0.6027                 0.7907
 IR Inten    --      5.1176                 0.0298                 8.4738

                     19                     20                     21
                      A                      A                      A
 Frequencies --    995.3972              1029.2107              1031.8827
 Red. masses --      2.4511                 2.6711                 2.5519
 Frc consts  --      1.4309                 1.6670                 1.6010
 IR Inten    --    139.9784               169.2392               181.0756

                     22                     23                     24
                      A                      A                      A
 Frequencies --   1137.4344              1145.4913              1207.0851
 Red. masses --      1.5261                 2.0180                 1.7807
 Frc consts  --      1.1633                 1.5601                 1.5286
 IR Inten    --     20.6811                 3.2425                 2.0835

                     25                     26                     27
                      A                      A                      A
 Frequencies --   1312.4677              1343.9991              1361.4872
 Red. masses --      1.4615                 1.4276                 1.6276
 Frc consts  --      1.4833                 1.5194                 1.7776
 IR Inten    --     66.8341                75.9623               105.6302

                     28                     29                     30
                      A                      A                      A
 Frequencies --   1381.5462              1409.6377              1416.4419
 Red. masses --      1.6503                 1.3124                 1.7430
 Frc consts  --      1.8559                 1.5365                 2.0604
 IR Inten    --     89.2007                 2.9231                21.3529

                     31                     32                     33
                      A                      A                      A
 Frequencies --   1435.2698              1504.4141              1512.3314
 Red. masses --      1.3866                 1.0458                 1.0471
 Frc consts  --      1.6829                 1.3946                 1.4110
 IR Inten    --     16.0894                 1.3509                 0.4655

                     34                     35                     36
                      A                      A                      A
 Frequencies --   1516.3731              1536.6141              3046.0312
 Red. masses --      1.0437                 1.0734                 1.0833
 Frc consts  --      1.4140                 1.4933                 5.9219
 IR Inten    --      3.5144                12.6704                14.8451

                     37                     38                     39
                      A                      A                      A
 Frequencies --   3048.8049              3053.5097              3115.9882
 Red. masses --      1.0361                 1.0361                 1.1026
 Frc consts  --      5.6743                 5.6916                 6.3076
 IR Inten    --     22.3778                27.1616                 3.8527

                     40                     41                     42
                      A                      A                      A
 Frequencies --   3122.0475              3135.4897              3138.2060
 Red. masses --      1.1018                 1.1023                 1.1017
 Frc consts  --      6.3276                 6.3849                 6.3927
 IR Inten    --     52.6218                22.4160                22.9235

                     43                     44                     45
                      A                      A                      A
 Frequencies --   3813.0816              3817.2829              3818.7488
 Red. masses --      1.0656                 1.0655                 1.0655
 Frc consts  --      9.1284                 9.1473                 9.1545
 IR Inten    --     61.2671                48.0586                50.3308

 - Thermochemistry -
 -------------------
 Temperature   298.150 Kelvin.  Pressure   1.00000 Atm.
 Atom     1 has atomic number  6 and mass  12.00000

 Molecular mass:   106.06299 amu.
 Principal axes and moments of inertia in atomic units:
                           1         2         3
     Eigenvalues --   541.77472 766.69690 943.33761
           X            0.99998  -0.00031   0.00595
           Y            0.00031   1.00000   0.00041
           Z           -0.00595  -0.00041   0.99998
 This molecule is an asymmetric top.
 Rotational symmetry number  1.
 Warning -- assumption of classical behavior for rotation
           may cause significant error
 Rotational temperatures (Kelvin)      0.15987     0.11297     0.09182
 Rotational constants (GHZ):           3.33117     2.35392     1.91314
 Zero-point vibrational energy     380258.1 (Joules/Mol)
                                   90.88386 (Kcal/Mol)
 Warning -- explicit consideration of  14 degrees of freedom as
           vibrations may cause significant error
 Vibrational temperatures:     86.72   141.86   161.84   323.46   344.81
          (Kelvin)            361.10   400.41   488.65   603.02   632.55
                              658.13   745.48   797.56   882.22  1099.54
                             1302.49  1353.12  1397.58  1432.15  1480.80
                             1484.65  1636.51  1648.10  1736.72  1888.35
                             1933.71  1958.87  1987.73  2028.15  2037.94
                             2065.03  2164.51  2175.90  2181.72  2210.84
                             4382.55  4386.54  4393.31  4483.21  4491.92
                             4511.26  4515.17  5486.17  5492.21  5494.32

 Zero-point correction=                           0.144833 (Hartree/Particle)
 Thermal correction to Energy=                    0.154096
 Thermal correction to Enthalpy=                  0.155040
 Thermal correction to Gibbs Free Energy=         0.111338
 Sum of electronic and zero-point Energies=           -383.995708
 Sum of electronic and thermal Energies=              -383.986444
 Sum of electronic and thermal Enthalpies=            -383.985500
 Sum of electronic and thermal Free Energies=         -384.029203

                     E (Thermal)             CV                S
                      KCal/Mol        Cal/Mol-Kelvin    Cal/Mol-Kelvin
 Total                   96.697             32.888             91.980
 Electronic               0.000              0.000              0.000
 Translational            0.889              2.981             39.894
 Rotational               0.889              2.981             27.463
 Vibrational             94.919             26.926             24.624
 Vibration     1          0.597              1.973              4.448
 Vibration     2          0.604              1.950              3.482
 Vibration     3          0.607              1.939              3.226
 Vibration     4          0.649              1.803              1.920
 Vibration     5          0.657              1.780              1.805
 Vibration     6          0.663              1.761              1.724
 Vibration     7          0.679              1.714              1.544
 Vibration     8          0.720              1.596              1.214
 Vibration     9          0.782              1.429              0.895
 Vibration    10          0.800              1.384              0.828
 Vibration    11          0.816              1.344              0.774
 Vibration    12          0.873              1.210              0.614
 Vibration    13          0.910              1.130              0.535
 Vibration    14          0.972              1.004              0.428

 Normal termination of Gaussian 09 at Thu Sep  8 15:25:38 2022.
