 Gaussian 09, Revision E.01,
 Gaussian 09:  ES64L-G09RevE.01 30-Nov-2015

 --------------------------------
 #P OPT=calcfc Freq B3LYP/6-31G**
 --------------------------------

 --------
 Frag_301
 --------
 Symbolic Z-matrix:
 Charge =  0 Multiplicity = 1

 SCF Done:  E(RB3LYP) =  -228.630243589     A.U. after   14 cycles
 SCF Done:  E(RB3LYP) =  -228.641497163     A.U. after   13 cycles
 SCF Done:  E(RB3LYP) =  -228.638659461     A.U. after   13 cycles
 SCF Done:  E(RB3LYP) =  -228.641599156     A.U. after    9 cycles
 SCF Done:  E(RB3LYP) =  -228.642165320     A.U. after   14 cycles
 SCF Done:  E(RB3LYP) =  -228.638828775     A.U. after   14 cycles
 SCF Done:  E(RB3LYP) =  -228.642165355     A.U. after    7 cycles
 SCF Done:  E(RB3LYP) =  -228.642242687     A.U. after   11 cycles
 SCF Done:  E(RB3LYP) =  -228.642255988     A.U. after    9 cycles
 SCF Done:  E(RB3LYP) =  -228.642262309     A.U. after    9 cycles
 SCF Done:  E(RB3LYP) =  -228.642387390     A.U. after   11 cycles
 SCF Done:  E(RB3LYP) =  -228.642338818     A.U. after   13 cycles
 SCF Done:  E(RB3LYP) =  -228.642460335     A.U. after    9 cycles
 SCF Done:  E(RB3LYP) =  -228.642494565     A.U. after   10 cycles
 SCF Done:  E(RB3LYP) =  -228.642499954     A.U. after   10 cycles
 SCF Done:  E(RB3LYP) =  -228.642502998     A.U. after    9 cycles
 SCF Done:  E(RB3LYP) =  -228.642504291     A.U. after   10 cycles
 SCF Done:  E(RB3LYP) =  -228.642504565     A.U. after    7 cycles
 SCF Done:  E(RB3LYP) =  -228.642504603     A.U. after    6 cycles
 Optimization completed.
    -- Stationary point found.
 Normal termination of Gaussian 09 at Fri Sep 10 21:21:38 2021.

 ----------------------------------------------------------------------
 #P Geom=AllCheck Guess=TCheck SCRF=Check GenChk RB3LYP/6-31G(d,p) Freq
 ----------------------------------------------------------------------

 Structure from the checkpoint file:  "/public/home/users/caep010/.cache/gau_scr/Gau-133497.chk"
 --------
 Frag_301
 --------
 Charge =  0 Multiplicity = 1

                         Standard orientation:
 ---------------------------------------------------------------------
 Center     Atomic      Atomic             Coordinates (Angstroms)
 Number     Number       Type             X           Y           Z
 ---------------------------------------------------------------------
      1          6           0       -1.950869   -0.080134   -0.007879
      2          7           0       -0.670937   -0.752943    0.041532
      3          6           0        0.424111   -0.093600    0.017183
      4          6           0        0.606597    1.415542   -0.001747
      5          7           0        1.616828   -0.802707   -0.092540
      6          1           0       -2.443746   -0.290251   -0.966840
      7          1           0       -1.925797    1.013157    0.113974
      8          1           0       -2.604935   -0.487740    0.772388
      9          1           0       -0.093584    1.912012    0.673190
     10          1           0        1.621536    1.698078    0.290285
     11          1           0        0.434297    1.807202   -1.009886
     12          1           0        1.493370   -1.797280    0.052217
     13          1           0        2.418596   -0.416469    0.386388
 ---------------------------------------------------------------------

 SCF Done:  E(RB3LYP) =  -228.642504603     A.U. after    1 cycles

 The electronic state is 1-A.
 Alpha  occ. eigenvalues --  -14.33283 -14.28915 -10.24784 -10.19094 -10.19000
 Alpha  occ. eigenvalues --   -0.93464  -0.85045  -0.72865  -0.67492  -0.54795
 Alpha  occ. eigenvalues --   -0.51099  -0.46567  -0.43615  -0.41729  -0.40003
 Alpha  occ. eigenvalues --   -0.38901  -0.37866  -0.32421  -0.22987  -0.21851
 Alpha virt. eigenvalues --    0.03917   0.08300   0.11508   0.13419   0.15443
 Alpha virt. eigenvalues --    0.16621   0.17206   0.19290   0.20728   0.22925
 Alpha virt. eigenvalues --    0.24346   0.34645   0.40347   0.50815   0.53268

 Mulliken charges:
               1
     1  C   -0.178420
     2  N   -0.455376
     3  C    0.427199
     4  C   -0.372211
     5  N   -0.601372
     6  H    0.109628
     7  H    0.074472
     8  H    0.109038
     9  H    0.130313
    10  H    0.102051
    11  H    0.142331
    12  H    0.262060
    13  H    0.250286
 Sum of Mulliken charges =  -0.00000

 Dipole moment (field-independent basis, Debye):
    X=              1.3663    Y=              1.4595    Z=              0.8008  Tot=              2.1536
 Quadrupole moment (field-independent basis, Debye-Ang):
   XX=            -27.4033   YY=            -31.0602   ZZ=            -32.4341
   XY=             -1.8042   XZ=              2.4402   YZ=             -0.6862

  Exact polarizability:  65.072   1.251  45.838   0.739  -0.048  31.719
 Approx polarizability:  91.447   5.504  62.929  -0.248   0.234  44.570

                      1                      2                      3
                      A                      A                      A
 Frequencies --     39.7361                81.4664               250.2092
 Red. masses --      1.0622                 1.0452                 3.2182
 Frc consts  --      0.0010                 0.0041                 0.1187
 IR Inten    --      0.8739                 0.9637                12.4400

                      4                      5                      6
                      A                      A                      A
 Frequencies --    321.6498               405.8136               450.2168
 Red. masses --      2.3993                 1.1101                 2.3440
 Frc consts  --      0.1463                 0.1077                 0.2799
 IR Inten    --      7.1444                88.2438                 0.8750

                      7                      8                      9
                      A                      A                      A
 Frequencies --    531.6491               566.1365               679.7539
 Red. masses --      2.0101                 3.2707                 1.5179
 Frc consts  --      0.3348                 0.6176                 0.4132
 IR Inten    --     60.4342                11.2291               196.0423

                     10                     11                     12
                      A                      A                      A
 Frequencies --    806.5926              1004.2297              1009.6694
 Red. masses --      3.7981                 1.5062                 1.9553
 Frc consts  --      1.4559                 0.8950                 1.1744
 IR Inten    --      2.1867                 6.5113                19.3709

                     13                     14                     15
                      A                      A                      A
 Frequencies --   1050.2216              1131.5472              1152.6910
 Red. masses --      1.6412                 1.3495                 1.5679
 Frc consts  --      1.0665                 1.0181                 1.2274
 IR Inten    --     10.4212                 1.7316                 0.5488

                     16                     17                     18
                      A                      A                      A
 Frequencies --   1237.1612              1354.8525              1417.6069
 Red. masses --      1.9204                 2.7882                 1.3557
 Frc consts  --      1.7318                 3.0155                 1.6052
 IR Inten    --      2.4017                73.5385                36.7175

                     19                     20                     21
                      A                      A                      A
 Frequencies --   1459.2589              1490.0380              1499.6903
 Red. masses --      1.1727                 1.0468                 1.0829
 Frc consts  --      1.4713                 1.3694                 1.4350
 IR Inten    --     22.4147                 4.7465                 3.5492

                     22                     23                     24
                      A                      A                      A
 Frequencies --   1505.5396              1526.0917              1635.8949
 Red. masses --      1.0441                 1.0695                 1.1925
 Frc consts  --      1.3944                 1.4676                 1.8803
 IR Inten    --      1.7469                13.9905                60.4018

                     25                     26                     27
                      A                      A                      A
 Frequencies --   1758.3477              2994.2699              3051.0161
 Red. masses --      7.1538                 1.0386                 1.0928
 Frc consts  --     13.0315                 5.4864                 5.9938
 IR Inten    --    262.8573                78.6052                39.6380

                     28                     29                     30
                      A                      A                      A
 Frequencies --   3058.3682              3072.3481              3121.7892
 Red. masses --      1.0423                 1.0988                 1.1006
 Frc consts  --      5.7440                 6.1108                 6.3198
 IR Inten    --     20.6233                44.6318                15.5282

                     31                     32                     33
                      A                      A                      A
 Frequencies --   3144.8568              3556.4700              3677.8925
 Red. masses --      1.1015                 1.0466                 1.0994
 Frc consts  --      6.4183                 7.7997                 8.7617
 IR Inten    --     15.9139                 9.9816                10.2292

 - Thermochemistry -
 -------------------
 Temperature   298.150 Kelvin.  Pressure   1.00000 Atm.
 Atom     1 has atomic number  6 and mass  12.00000

 Molecular mass:    72.06875 amu.
 Principal axes and moments of inertia in atomic units:
                           1         2         3
     Eigenvalues --   211.09431 450.49383 637.19976
           X            0.99994  -0.00514   0.00923
           Y            0.00519   0.99997  -0.00510
           Z           -0.00921   0.00515   0.99994
 This molecule is an asymmetric top.
 Rotational symmetry number  1.
 Rotational temperatures (Kelvin)      0.41031     0.19226     0.13593
 Rotational constants (GHZ):           8.54945     4.00614     2.83230
 Zero-point vibrational energy     299324.1 (Joules/Mol)
                                   71.54017 (Kcal/Mol)
 Warning -- explicit consideration of   8 degrees of freedom as
           vibrations may cause significant error
 Vibrational temperatures:     57.17   117.21   359.99   462.78   583.87
          (Kelvin)            647.76   764.92   814.54   978.01  1160.51
                             1444.86  1452.69  1511.03  1628.04  1658.46
                             1780.00  1949.33  2039.62  2099.55  2143.83
                             2157.72  2166.13  2195.70  2353.68  2529.87
                             4308.08  4389.73  4400.30  4420.42  4491.55
                             4524.74  5116.96  5291.66

 Zero-point correction=                           0.114007 (Hartree/Particle)
 Thermal correction to Energy=                    0.120697
 Thermal correction to Enthalpy=                  0.121641
 Thermal correction to Gibbs Free Energy=         0.083449
 Sum of electronic and zero-point Energies=           -228.528498
 Sum of electronic and thermal Energies=              -228.521808
 Sum of electronic and thermal Enthalpies=            -228.520864
 Sum of electronic and thermal Free Energies=         -228.559055

                     E (Thermal)             CV                S
                      KCal/Mol        Cal/Mol-Kelvin    Cal/Mol-Kelvin
 Total                   75.738             22.329             80.381
 Electronic               0.000              0.000              0.000
 Translational            0.889              2.981             38.742
 Rotational               0.889              2.981             25.608
 Vibrational             73.961             16.367             16.031
 Vibration     1          0.594              1.981              5.272
 Vibration     2          0.600              1.962              3.855
 Vibration     3          0.663              1.762              1.729
 Vibration     4          0.707              1.632              1.302
 Vibration     5          0.771              1.458              0.942
 Vibration     6          0.809              1.360              0.795
 Vibration     7          0.887              1.180              0.584
 Vibration     8          0.922              1.105              0.512

 Normal termination of Gaussian 09 at Fri Sep 10 21:21:47 2021.
