 Gaussian 09, Revision E.01,
 Gaussian 09:  ES64L-G09RevE.01 30-Nov-2015

 ----------------------------
 #P OPT Freq B3LYP/6-31G(d,p)
 ----------------------------

 ---------
 Frag_1046
 ---------
 Symbolic Z-matrix:
 Charge =  0 Multiplicity = 1

 SCF Done:  E(RB3LYP) =  -364.265324518     A.U. after   12 cycles
 SCF Done:  E(RB3LYP) =  -364.265376707     A.U. after   10 cycles
 SCF Done:  E(RB3LYP) =  -364.265381289     A.U. after    9 cycles
 SCF Done:  E(RB3LYP) =  -364.265385737     A.U. after    8 cycles
 SCF Done:  E(RB3LYP) =  -364.265387840     A.U. after    7 cycles
 SCF Done:  E(RB3LYP) =  -364.265389000     A.U. after    7 cycles
 SCF Done:  E(RB3LYP) =  -364.265389353     A.U. after    7 cycles
 SCF Done:  E(RB3LYP) =  -364.265389594     A.U. after    7 cycles
 Optimization completed.
    -- Stationary point found.
 Normal termination of Gaussian 09 at Thu Sep  8 14:48:22 2022.

 ----------------------------------------------------------------------
 #P Geom=AllCheck Guess=TCheck SCRF=Check GenChk RB3LYP/6-31G(d,p) Freq
 ----------------------------------------------------------------------

 Structure from the checkpoint file:  "B3LYP6-31Gdp.Frag_1046.chk"
 ---------
 Frag_1046
 ---------
 Charge =  0 Multiplicity = 1

                         Standard orientation:
 ---------------------------------------------------------------------
 Center     Atomic      Atomic             Coordinates (Angstroms)
 Number     Number       Type             X           Y           Z
 ---------------------------------------------------------------------
      1          6           0       -1.579809   -1.221249   -0.041365
      2          6           0       -0.835179    0.055048   -0.457714
      3          6           0       -1.550694    1.303191    0.074808
      4          6           0        0.650020    0.016038   -0.001269
      5          7           0        1.328346    1.225711   -0.385574
      6          8           0        0.776202   -0.068454    1.394837
      7          8           0        1.290779   -1.180626   -0.489254
      8          1           0       -2.604665   -1.209244   -0.424182
      9          1           0       -1.636258   -1.287724    1.050600
     10          1           0       -1.086331   -2.124565   -0.409622
     11          1           0       -0.825007    0.104297   -1.559855
     12          1           0       -2.597923    1.310921   -0.245363
     13          1           0       -1.524491    1.307461    1.168638
     14          1           0       -1.068934    2.219401   -0.270810
     15          1           0        1.304050    1.341556   -1.394876
     16          1           0        2.300432    1.152182   -0.096610
     17          1           0        0.766308   -1.012552    1.601702
     18          1           0        1.032522   -1.307233   -1.412027
 ---------------------------------------------------------------------

 SCF Done:  E(RB3LYP) =  -364.265389594     A.U. after    1 cycles

 The electronic state is 1-A.
 Alpha  occ. eigenvalues --  -19.14921 -19.14507 -14.31499 -10.30807 -10.19183
 Alpha  occ. eigenvalues --  -10.17476 -10.16364  -1.06652  -0.98753  -0.87522
 Alpha  occ. eigenvalues --   -0.78700  -0.67791  -0.64248  -0.58207  -0.53815
 Alpha  occ. eigenvalues --   -0.49778  -0.47589  -0.44083  -0.43536  -0.40740
 Alpha  occ. eigenvalues --   -0.38068  -0.37766  -0.37163  -0.34112  -0.33308
 Alpha  occ. eigenvalues --   -0.33109  -0.30803  -0.27209  -0.24414
 Alpha virt. eigenvalues --    0.05457   0.10036   0.10862   0.12841   0.13926
 Alpha virt. eigenvalues --    0.16169   0.17120   0.17404   0.18087   0.18983
 Alpha virt. eigenvalues --    0.20490   0.21305   0.24895   0.26371   0.27644

 Mulliken charges:
               1
     1  C   -0.319070
     2  C   -0.083500
     3  C   -0.299514
     4  C    0.581775
     5  N   -0.567393
     6  O   -0.535724
     7  O   -0.565648
     8  H    0.102175
     9  H    0.107223
    10  H    0.097707
    11  H    0.062213
    12  H    0.087731
    13  H    0.121239
    14  H    0.117116
    15  H    0.229045
    16  H    0.249752
    17  H    0.318047
    18  H    0.296825
 Sum of Mulliken charges =   0.00000

 Dipole moment (field-independent basis, Debye):
    X=             -0.2527    Y=             -1.1263    Z=             -2.2868  Tot=              2.5616
 Quadrupole moment (field-independent basis, Debye-Ang):
   XX=            -43.1882   YY=            -45.6395   ZZ=            -40.1978
   XY=              1.2544   XZ=             -2.2466   YZ=             -2.3479

  Exact polarizability:  58.880   1.452  57.850   0.017  -0.992  54.438
 Approx polarizability:  74.534   0.579  77.988   1.649  -0.855  81.433

                      1                      2                      3
                      A                      A                      A
 Frequencies --     87.6112               196.5513               218.2405
 Red. masses --      2.8918                 1.1051                 1.0644
 Frc consts  --      0.0131                 0.0252                 0.0299
 IR Inten    --      1.3792                 1.4987                53.2494

                      4                      5                      6
                      A                      A                      A
 Frequencies --    226.8348               261.0848               273.0101
 Red. masses --      1.1590                 2.3773                 2.6930
 Frc consts  --      0.0351                 0.0955                 0.1183
 IR Inten    --     18.6302                 2.9117                 7.8598

                      7                      8                      9
                      A                      A                      A
 Frequencies --    297.2461               324.1493               355.4248
 Red. masses --      1.3065                 1.1057                 2.5676
 Frc consts  --      0.0680                 0.0685                 0.1911
 IR Inten    --     34.4126               142.2621                17.3597

                     10                     11                     12
                      A                      A                      A
 Frequencies --    431.5140               434.2527               506.6632
 Red. masses --      2.8356                 2.8304                 2.9695
 Frc consts  --      0.3111                 0.3145                 0.4491
 IR Inten    --     14.8247                12.6284                 7.0716

                     13                     14                     15
                      A                      A                      A
 Frequencies --    559.3977               602.3363               745.6315
 Red. masses --      4.5627                 2.7550                 3.2409
 Frc consts  --      0.8412                 0.5889                 1.0616
 IR Inten    --     17.4029                18.2403                16.0568

                     16                     17                     18
                      A                      A                      A
 Frequencies --    840.0099               903.8605               938.9128
 Red. masses --      1.7533                 2.4046                 1.1767
 Frc consts  --      0.7289                 1.1574                 0.6112
 IR Inten    --    107.3847                13.8753                 0.7985

                     19                     20                     21
                      A                      A                      A
 Frequencies --    966.9048               986.7547              1007.2266
 Red. masses --      1.6265                 2.4265                 2.4457
 Frc consts  --      0.8960                 1.3920                 1.4618
 IR Inten    --     50.0486               101.3824                88.1285

                     22                     23                     24
                      A                      A                      A
 Frequencies --   1086.0898              1139.9722              1168.5223
 Red. masses --      1.4847                 1.8889                 1.9081
 Frc consts  --      1.0318                 1.4462                 1.5351
 IR Inten    --     14.7193                37.8849               136.5434

                     25                     26                     27
                      A                      A                      A
 Frequencies --   1202.8027              1217.1177              1349.7267
 Red. masses --      1.4178                 1.8825                 1.3984
 Frc consts  --      1.2085                 1.6430                 1.5010
 IR Inten    --     15.7631                32.0843                62.1879

                     28                     29                     30
                      A                      A                      A
 Frequencies --   1358.2818              1382.9470              1407.9826
 Red. masses --      1.4694                 1.9071                 1.3906
 Frc consts  --      1.5972                 2.1490                 1.6242
 IR Inten    --     12.7643                60.2805                28.7856

                     31                     32                     33
                      A                      A                      A
 Frequencies --   1417.3081              1445.2601              1497.2069
 Red. masses --      1.4198                 1.4837                 1.0438
 Frc consts  --      1.6804                 1.8260                 1.3786
 IR Inten    --      8.6790                43.3570                 0.6791

                     34                     35                     36
                      A                      A                      A
 Frequencies --   1509.9850              1514.6899              1534.0679
 Red. masses --      1.0468                 1.0452                 1.0622
 Frc consts  --      1.4063                 1.4129                 1.4728
 IR Inten    --      0.8389                 6.1370                12.4707

                     37                     38                     39
                      A                      A                      A
 Frequencies --   1650.8442              2977.4519              3047.3880
 Red. masses --      1.1133                 1.0826                 1.0361
 Frc consts  --      1.7876                 5.6545                 5.6693
 IR Inten    --     40.6402                44.0041                20.8933

                     40                     41                     42
                      A                      A                      A
 Frequencies --   3053.6730              3115.2342              3122.6888
 Red. masses --      1.0381                 1.1015                 1.1007
 Frc consts  --      5.7036                 6.2983                 6.3237
 IR Inten    --     27.3921                10.2773                39.7950

                     43                     44                     45
                      A                      A                      A
 Frequencies --   3129.7684              3151.0547              3506.3476
 Red. masses --      1.1024                 1.1007                 1.0488
 Frc consts  --      6.3624                 6.4393                 7.5971
 IR Inten    --     27.6537                18.7299                 1.5890

                     46                     47                     48
                      A                      A                      A
 Frequencies --   3601.3952              3815.7031              3829.0671
 Red. masses --      1.0936                 1.0663                 1.0649
 Frc consts  --      8.3572                 9.1470                 9.1991
 IR Inten    --      1.4708                14.2095                35.9278

 - Thermochemistry -
 -------------------
 Temperature   298.150 Kelvin.  Pressure   1.00000 Atm.
 Atom     1 has atomic number  6 and mass  12.00000

 Molecular mass:   105.07898 amu.
 Principal axes and moments of inertia in atomic units:
                           1         2         3
     Eigenvalues --   554.39598 767.58087 954.00604
           X            0.99936   0.03148  -0.01723
           Y           -0.03191   0.99917  -0.02514
           Z            0.01642   0.02568   0.99954
 This molecule is an asymmetric top.
 Rotational symmetry number  1.
 Warning -- assumption of classical behavior for rotation
           may cause significant error
 Rotational temperatures (Kelvin)      0.15623     0.11284     0.09079
 Rotational constants (GHZ):           3.25533     2.35121     1.89175
 Zero-point vibrational energy     415081.4 (Joules/Mol)
                                   99.20684 (Kcal/Mol)
 Warning -- explicit consideration of  14 degrees of freedom as
           vibrations may cause significant error
 Vibrational temperatures:    126.05   282.79   314.00   326.36   375.64
          (Kelvin)            392.80   427.67   466.38   511.38   620.85
                              624.79   728.97   804.85   866.63  1072.80
                             1208.59  1300.45  1350.88  1391.16  1419.72
                             1449.17  1562.64  1640.16  1681.24  1730.56
                             1751.16  1941.95  1954.26  1989.75  2025.77
                             2039.19  2079.40  2154.14  2172.53  2179.30
                             2207.18  2375.19  4283.88  4384.51  4393.55
                             4482.12  4492.85  4503.03  4533.66  5044.85
                             5181.60  5489.94  5509.17

 Zero-point correction=                           0.158096 (Hartree/Particle)
 Thermal correction to Energy=                    0.167067
 Thermal correction to Enthalpy=                  0.168011
 Thermal correction to Gibbs Free Energy=         0.125762
 Sum of electronic and zero-point Energies=           -364.107293
 Sum of electronic and thermal Energies=              -364.098323
 Sum of electronic and thermal Enthalpies=            -364.097379
 Sum of electronic and thermal Free Energies=         -364.139627

                     E (Thermal)             CV                S
                      KCal/Mol        Cal/Mol-Kelvin    Cal/Mol-Kelvin
 Total                  104.836             33.491             88.920
 Electronic               0.000              0.000              0.000
 Translational            0.889              2.981             39.866
 Rotational               0.889              2.981             27.498
 Vibrational            103.059             27.529             21.556
 Vibration     1          0.601              1.958              3.713
 Vibration     2          0.636              1.845              2.165
 Vibration     3          0.646              1.813              1.974
 Vibration     4          0.650              1.800              1.904
 Vibration     5          0.669              1.744              1.655
 Vibration     6          0.676              1.723              1.577
 Vibration     7          0.691              1.679              1.432
 Vibration     8          0.709              1.627              1.289
 Vibration     9          0.731              1.564              1.142
 Vibration    10          0.793              1.402              0.854
 Vibration    11          0.795              1.396              0.845
 Vibration    12          0.862              1.235              0.642
 Vibration    13          0.915              1.119              0.525
 Vibration    14          0.961              1.027              0.446

 Optimization completed.
    -- Stationary point found.
 Normal termination of Gaussian 09 at Thu Sep  8 14:48:40 2022.
