 Gaussian 09, Revision E.01,
 Gaussian 09:  ES64L-G09RevE.01 30-Nov-2015

 --------------------------------
 #P OPT=calcfc Freq B3LYP/6-31G**
 --------------------------------

 --------
 Frag_203
 --------
 Symbolic Z-matrix:
 Charge =  0 Multiplicity = 1

 SCF Done:  E(RB3LYP) =  -228.628105588     A.U. after   14 cycles
 SCF Done:  E(RB3LYP) =  -228.640324228     A.U. after   13 cycles
 SCF Done:  E(RB3LYP) =  -228.640193155     A.U. after   12 cycles
 SCF Done:  E(RB3LYP) =  -228.639860168     A.U. after   12 cycles
 SCF Done:  E(RB3LYP) =  -228.640359527     A.U. after    9 cycles
 SCF Done:  E(RB3LYP) =  -228.640009017     A.U. after   13 cycles
 SCF Done:  E(RB3LYP) =  -228.640433732     A.U. after   10 cycles
 SCF Done:  E(RB3LYP) =  -228.640574692     A.U. after   11 cycles
 SCF Done:  E(RB3LYP) =  -228.640724269     A.U. after   11 cycles
 SCF Done:  E(RB3LYP) =  -228.640723715     A.U. after   11 cycles
 SCF Done:  E(RB3LYP) =  -228.640756334     A.U. after   11 cycles
 SCF Done:  E(RB3LYP) =  -228.640757567     A.U. after    7 cycles
 SCF Done:  E(RB3LYP) =  -228.640757618     A.U. after    7 cycles
 Optimization completed.
    -- Stationary point found.
 Normal termination of Gaussian 09 at Sat Aug 21 02:20:29 2021.

 ----------------------------------------------------------------------
 #P Geom=AllCheck Guess=TCheck SCRF=Check GenChk RB3LYP/6-31G(d,p) Freq
 ----------------------------------------------------------------------

 Structure from the checkpoint file:  "/public/home/users/caep010/.cache/gau_scr/Gau-217435.chk"
 --------
 Frag_203
 --------
 Charge =  0 Multiplicity = 1

                         Standard orientation:
 ---------------------------------------------------------------------
 Center     Atomic      Atomic             Coordinates (Angstroms)
 Number     Number       Type             X           Y           Z
 ---------------------------------------------------------------------
      1          6           0        1.898369    0.020718    0.085492
      2          7           0        0.649469   -0.677287   -0.177132
      3          6           0       -0.612411   -0.119348   -0.017335
      4          6           0       -0.678846    1.390131   -0.022569
      5          7           0       -1.709445   -0.779383    0.082051
      6          1           0        2.727423   -0.604377   -0.255867
      7          1           0        2.062567    0.253962    1.148481
      8          1           0        1.942189    0.955538   -0.478529
      9          1           0        0.680045   -1.676448   -0.023879
     10          1           0       -0.132038    1.821670    0.823232
     11          1           0       -0.246841    1.803638   -0.940580
     12          1           0       -1.725399    1.683545    0.044365
     13          1           0       -1.530784   -1.789843    0.074818
 ---------------------------------------------------------------------

 SCF Done:  E(RB3LYP) =  -228.640757618     A.U. after    1 cycles

 The electronic state is 1-A.
 Alpha  occ. eigenvalues --  -14.34943 -14.28146 -10.24905 -10.22475 -10.18043
 Alpha  occ. eigenvalues --   -0.94554  -0.84914  -0.72364  -0.69356  -0.56850
 Alpha  occ. eigenvalues --   -0.50633  -0.47773  -0.45146  -0.41100  -0.40679
 Alpha  occ. eigenvalues --   -0.38606  -0.37399  -0.32362  -0.24929  -0.21981
 Alpha virt. eigenvalues --    0.04463   0.07421   0.10120   0.13130   0.14076
 Alpha virt. eigenvalues --    0.16247   0.16400   0.18411   0.19580   0.21645
 Alpha virt. eigenvalues --    0.25258   0.33455   0.42972   0.51078   0.52035

 Mulliken charges:
               1
     1  C   -0.173562
     2  N   -0.516324
     3  C    0.444703
     4  C   -0.365897
     5  N   -0.566851
     6  H    0.116494
     7  H    0.111212
     8  H    0.128093
     9  H    0.245943
    10  H    0.117024
    11  H    0.122259
    12  H    0.144478
    13  H    0.192429
 Sum of Mulliken charges =  -0.00000

 Dipole moment (field-independent basis, Debye):
    X=              3.4262    Y=             -0.1861    Z=              0.2454  Tot=              3.4400
 Quadrupole moment (field-independent basis, Debye-Ang):
   XX=            -35.9263   YY=            -26.5738   ZZ=            -32.8699
   XY=             -1.7062   XZ=              0.6140   YZ=             -0.4511

  Exact polarizability:  58.358   3.912  49.634  -0.561  -0.254  31.122
 Approx polarizability:  84.179   8.912  66.641  -2.588  -0.552  44.156

                      1                      2                      3
                      A                      A                      A
 Frequencies --    113.7510               156.9095               207.0896
 Red. masses --      2.0478                 1.3885                 1.0306
 Frc consts  --      0.0156                 0.0201                 0.0260
 IR Inten    --      2.1719                 1.3223                 0.4489

                      4                      5                      6
                      A                      A                      A
 Frequencies --    291.8969               446.6082               502.8000
 Red. masses --      2.3910                 1.7075                 2.2228
 Frc consts  --      0.1200                 0.2007                 0.3311
 IR Inten    --      1.0548                43.9591                35.3803

                      7                      8                      9
                      A                      A                      A
 Frequencies --    553.4749               586.6496               819.5821
 Red. masses --      2.2429                 1.9266                 3.4339
 Frc consts  --      0.4048                 0.3907                 1.3590
 IR Inten    --      3.1168                30.0246                 3.0304

                     10                     11                     12
                      A                      A                      A
 Frequencies --    866.4525              1010.4336              1075.1007
 Red. masses --      1.3830                 1.5166                 1.5198
 Frc consts  --      0.6117                 0.9123                 1.0350
 IR Inten    --     96.4801                14.4067                 2.2246

                     13                     14                     15
                      A                      A                      A
 Frequencies --   1081.2117              1145.2429              1175.4594
 Red. masses --      1.7545                 1.2764                 1.3690
 Frc consts  --      1.2084                 0.9864                 1.1144
 IR Inten    --     36.6330                20.3680                13.8978

                     16                     17                     18
                      A                      A                      A
 Frequencies --   1205.9256              1383.6765              1436.3384
 Red. masses --      2.3710                 1.4648                 1.7929
 Frc consts  --      2.0315                 1.6523                 2.1794
 IR Inten    --      8.0667               101.7219               127.0542

                     19                     20                     21
                      A                      A                      A
 Frequencies --   1471.2600              1478.4740              1497.7046
 Red. masses --      1.4692                 1.1120                 1.1266
 Frc consts  --      1.8738                 1.4321                 1.4889
 IR Inten    --      7.4066                32.4443                 1.3461

                     22                     23                     24
                      A                      A                      A
 Frequencies --   1501.9743              1509.9678              1535.9693
 Red. masses --      1.1164                 1.0552                 1.0680
 Frc consts  --      1.4839                 1.4175                 1.4845
 IR Inten    --      7.4390                 9.0557                17.5722

                     25                     26                     27
                      A                      A                      A
 Frequencies --   1725.3160              2999.5985              3048.3846
 Red. masses --      5.7746                 1.0544                 1.0400
 Frc consts  --     10.1277                 5.5894                 5.6941
 IR Inten    --    227.2028                72.3217                14.4310

                     28                     29                     30
                      A                      A                      A
 Frequencies --   3096.3956              3105.5990              3135.9927
 Red. masses --      1.0810                 1.1005                 1.1035
 Frc consts  --      6.1065                 6.2536                 6.3937
 IR Inten    --     28.4439                19.2894                20.9153

                     31                     32                     33
                      A                      A                      A
 Frequencies --   3178.8238              3415.7147              3602.6886
 Red. masses --      1.0992                 1.0742                 1.0758
 Frc consts  --      6.5445                 7.3838                 8.2272
 IR Inten    --      5.9033                22.0706                 6.1246

 - Thermochemistry -
 -------------------
 Temperature   298.150 Kelvin.  Pressure   1.00000 Atm.
 Atom     1 has atomic number  6 and mass  12.00000

 Molecular mass:    72.06875 amu.
 Principal axes and moments of inertia in atomic units:
                           1         2         3
     Eigenvalues --   210.41374 447.29944 630.33685
           X            0.99984  -0.01693   0.00577
           Y            0.01695   0.99985  -0.00427
           Z           -0.00570   0.00436   0.99997
 This molecule is an asymmetric top.
 Rotational symmetry number  1.
 Rotational temperatures (Kelvin)      0.41164     0.19364     0.13741
 Rotational constants (GHZ):           8.57711     4.03475     2.86314
 Zero-point vibrational energy     301234.4 (Joules/Mol)
                                   71.99676 (Kcal/Mol)
 Warning -- explicit consideration of   8 degrees of freedom as
           vibrations may cause significant error
 Vibrational temperatures:    163.66   225.76   297.96   419.97   642.57
          (Kelvin)            723.42   796.33   844.06  1179.19  1246.63
                             1453.79  1546.83  1555.62  1647.75  1691.22
                             1735.06  1990.80  2066.57  2116.81  2127.19
                             2154.86  2161.00  2172.50  2209.91  2482.34
                             4315.75  4385.94  4455.02  4468.26  4511.99
                             4573.61  4914.45  5183.46

 Zero-point correction=                           0.114734 (Hartree/Particle)
 Thermal correction to Energy=                    0.121056
 Thermal correction to Enthalpy=                  0.122000
 Thermal correction to Gibbs Free Energy=         0.085441
 Sum of electronic and zero-point Energies=           -228.526023
 Sum of electronic and thermal Energies=              -228.519702
 Sum of electronic and thermal Enthalpies=            -228.518757
 Sum of electronic and thermal Free Energies=         -228.555316

                     E (Thermal)             CV                S
                      KCal/Mol        Cal/Mol-Kelvin    Cal/Mol-Kelvin
 Total                   75.964             21.606             76.945
 Electronic               0.000              0.000              0.000
 Translational            0.889              2.981             38.742
 Rotational               0.889              2.981             25.587
 Vibrational             74.186             15.644             12.616
 Vibration     1          0.607              1.938              3.204
 Vibration     2          0.621              1.895              2.587
 Vibration     3          0.641              1.830              2.069
 Vibration     4          0.687              1.689              1.463
 Vibration     5          0.806              1.368              0.806
 Vibration     6          0.858              1.244              0.651
 Vibration     7          0.909              1.132              0.537
 Vibration     8          0.944              1.060              0.473

 Optimization completed.
    -- Stationary point found.
 Normal termination of Gaussian 09 at Sat Aug 21 02:20:38 2021.
