 Gaussian 09, Revision E.01,
 Gaussian 09:  ES64L-G09RevE.01 30-Nov-2015

 -------------------------
 #P OPT Freq B3LYP/6-31G**
 -------------------------

 --------
 Frag_276
 --------
 Symbolic Z-matrix:
 Charge =  0 Multiplicity = 1

 SCF Done:  E(RB3LYP) =  -228.614883255     A.U. after   14 cycles
 SCF Done:  E(RB3LYP) =  -228.627961801     A.U. after   13 cycles
 SCF Done:  E(RB3LYP) =  -228.628528600     A.U. after   12 cycles
 SCF Done:  E(RB3LYP) =  -228.628636421     A.U. after   11 cycles
 SCF Done:  E(RB3LYP) =  -228.628745552     A.U. after   11 cycles
 SCF Done:  E(RB3LYP) =  -228.628800594     A.U. after   10 cycles
 SCF Done:  E(RB3LYP) =  -228.628874816     A.U. after   10 cycles
 SCF Done:  E(RB3LYP) =  -228.628980831     A.U. after   11 cycles
 SCF Done:  E(RB3LYP) =  -228.629095317     A.U. after   11 cycles
 SCF Done:  E(RB3LYP) =  -228.628962948     A.U. after   12 cycles
 SCF Done:  E(RB3LYP) =  -228.629133428     A.U. after   13 cycles
 SCF Done:  E(RB3LYP) =  -228.629182645     A.U. after   11 cycles
 SCF Done:  E(RB3LYP) =  -228.629238391     A.U. after   11 cycles
 SCF Done:  E(RB3LYP) =  -228.629245190     A.U. after   10 cycles
 SCF Done:  E(RB3LYP) =  -228.629245666     A.U. after    8 cycles
 SCF Done:  E(RB3LYP) =  -228.629245756     A.U. after    7 cycles
 Optimization completed.
    -- Stationary point found.
 Normal termination of Gaussian 09 at Sat Aug 21 01:39:17 2021.

 ----------------------------------------------------------------------
 #P Geom=AllCheck Guess=TCheck SCRF=Check GenChk RB3LYP/6-31G(d,p) Freq
 ----------------------------------------------------------------------

 Structure from the checkpoint file:  "/public/home/users/caep010/.cache/gau_scr/Gau-114830.chk"
 --------
 Frag_276
 --------
 Charge =  0 Multiplicity = 1

                         Standard orientation:
 ---------------------------------------------------------------------
 Center     Atomic      Atomic             Coordinates (Angstroms)
 Number     Number       Type             X           Y           Z
 ---------------------------------------------------------------------
      1          6           0        1.608852   -0.745703    0.073427
      2          7           0        0.372645   -0.016920   -0.152164
      3          6           0        0.422994    1.424356    0.001273
      4          6           0       -0.836849   -0.677411   -0.057452
      5          7           0       -2.024090   -0.217413    0.068032
      6          1           0        2.392425   -0.388429   -0.604224
      7          1           0        1.977442   -0.644000    1.105679
      8          1           0        1.447086   -1.808041   -0.124813
      9          1           0       -0.373280    1.893048   -0.584509
     10          1           0        0.319712    1.747726    1.048625
     11          1           0        1.379057    1.793455   -0.379058
     12          1           0       -0.719631   -1.762059   -0.138864
     13          1           0       -2.032673    0.801183    0.162609
 ---------------------------------------------------------------------

 SCF Done:  E(RB3LYP) =  -228.629245756     A.U. after    1 cycles

 The electronic state is 1-A.
 Alpha  occ. eigenvalues --  -14.36062 -14.28688 -10.24274 -10.22610 -10.22449
 Alpha  occ. eigenvalues --   -0.95886  -0.85635  -0.73279  -0.68573  -0.57365
 Alpha  occ. eigenvalues --   -0.51551  -0.48030  -0.47197  -0.41200  -0.41069
 Alpha  occ. eigenvalues --   -0.39609  -0.38901  -0.33168  -0.25189  -0.21765
 Alpha virt. eigenvalues --    0.04208   0.08322   0.10505   0.12530   0.13578
 Alpha virt. eigenvalues --    0.15436   0.15782   0.17050   0.19681   0.20141
 Alpha virt. eigenvalues --    0.23924   0.32178   0.37517   0.48934   0.50972

 Mulliken charges:
               1
     1  C   -0.171199
     2  N   -0.387723
     3  C   -0.181461
     4  C    0.278853
     5  N   -0.546906
     6  H    0.115658
     7  H    0.112326
     8  H    0.122909
     9  H    0.124769
    10  H    0.116174
    11  H    0.115314
    12  H    0.092684
    13  H    0.208603
 Sum of Mulliken charges =  -0.00000

 Dipole moment (field-independent basis, Debye):
    X=              3.5083    Y=              1.0999    Z=              0.1464  Tot=              3.6795
 Quadrupole moment (field-independent basis, Debye-Ang):
   XX=            -37.6796   YY=            -28.0263   ZZ=            -32.7714
   XY=             -3.3291   XZ=              0.1464   YZ=              0.1635

  Exact polarizability:  60.465  -1.434  48.070  -0.489   0.970  31.744
 Approx polarizability:  90.271  -2.673  63.760  -2.462   1.445  44.329

                      1                      2                      3
                      A                      A                      A
 Frequencies --    127.8061               139.3961               213.5807
 Red. masses --      2.0585                 1.1673                 1.2440
 Frc consts  --      0.0198                 0.0134                 0.0334
 IR Inten    --      1.8909                 2.0657                 2.2076

                      4                      5                      6
                      A                      A                      A
 Frequencies --    264.1629               333.3875               416.8825
 Red. masses --      1.7590                 2.6901                 2.2231
 Frc consts  --      0.0723                 0.1762                 0.2276
 IR Inten    --      0.9836                 6.5251                 1.5400

                      7                      8                      9
                      A                      A                      A
 Frequencies --    624.0075               815.2807               837.4188
 Red. masses --      3.2245                 1.9622                 3.3214
 Frc consts  --      0.7398                 0.7684                 1.3723
 IR Inten    --      1.8133                50.1367                 4.4748

                     10                     11                     12
                      A                      A                      A
 Frequencies --   1063.7377              1082.3366              1089.1774
 Red. masses --      1.1457                 1.7843                 1.4182
 Frc consts  --      0.7638                 1.2315                 0.9912
 IR Inten    --     30.0731                44.4096                10.0150

                     13                     14                     15
                      A                      A                      A
 Frequencies --   1130.2912              1169.2329              1200.0587
 Red. masses --      1.2395                 1.3679                 1.4564
 Frc consts  --      0.9330                 1.1018                 1.2358
 IR Inten    --      6.5690                 8.3767               145.8043

                     16                     17                     18
                      A                      A                      A
 Frequencies --   1310.3277              1397.7588              1438.5754
 Red. masses --      3.1035                 3.0333                 1.2253
 Frc consts  --      3.1395                 3.4917                 1.4940
 IR Inten    --     17.7574               115.1619                 5.5064

                     19                     20                     21
                      A                      A                      A
 Frequencies --   1459.3249              1484.7221              1493.3257
 Red. masses --      1.1408                 1.1950                 1.0465
 Frc consts  --      1.4314                 1.5520                 1.3749
 IR Inten    --      2.6462                 7.4192                 9.3040

                     22                     23                     24
                      A                      A                      A
 Frequencies --   1505.9536              1521.2790              1540.2305
 Red. masses --      1.0555                 1.0584                 1.0947
 Frc consts  --      1.4104                 1.4432                 1.5301
 IR Inten    --     13.3454                 8.5613                13.2376

                     25                     26                     27
                      A                      A                      A
 Frequencies --   1714.3190              2995.0913              3001.8247
 Red. masses --      6.6473                 1.0484                 1.0520
 Frc consts  --     11.5101                 5.5414                 5.5852
 IR Inten    --    293.7590                53.4669                80.1438

                     28                     29                     30
                      A                      A                      A
 Frequencies --   3070.1476              3086.3746              3109.6104
 Red. masses --      1.0894                 1.0844                 1.0887
 Frc consts  --      6.0497                 6.0860                 6.2026
 IR Inten    --     39.2941                25.7275                24.1330

                     31                     32                     33
                      A                      A                      A
 Frequencies --   3128.0075              3131.5498              3465.7017
 Red. masses --      1.1030                 1.0990                 1.0734
 Frc consts  --      6.3586                 6.3501                 7.5959
 IR Inten    --     15.2763                27.2627                 8.9528

 - Thermochemistry -
 -------------------
 Temperature   298.150 Kelvin.  Pressure   1.00000 Atm.
 Atom     1 has atomic number  6 and mass  12.00000

 Molecular mass:    72.06875 amu.
 Principal axes and moments of inertia in atomic units:
                           1         2         3
     Eigenvalues --   208.40477 439.92823 621.56825
           X            0.99910  -0.04225   0.00327
           Y            0.04223   0.99910   0.00334
           Z           -0.00341  -0.00320   0.99999
 This molecule is an asymmetric top.
 Rotational symmetry number  1.
 Rotational temperatures (Kelvin)      0.41560     0.19688     0.13935
 Rotational constants (GHZ):           8.65979     4.10235     2.90353
 Zero-point vibrational energy     301225.0 (Joules/Mol)
                                   71.99449 (Kcal/Mol)
 Warning -- explicit consideration of   6 degrees of freedom as
           vibrations may cause significant error
 Vibrational temperatures:    183.88   200.56   307.29   380.07   479.67
          (Kelvin)            599.80   897.81  1173.01  1204.86  1530.48
                             1557.24  1567.08  1626.23  1682.26  1726.61
                             1885.27  2011.06  2069.79  2099.64  2136.18
                             2148.56  2166.73  2188.78  2216.05  2466.52
                             4309.26  4318.95  4417.25  4440.60  4474.03
                             4500.50  4505.60  4986.37

 Zero-point correction=                           0.114731 (Hartree/Particle)
 Thermal correction to Energy=                    0.121073
 Thermal correction to Enthalpy=                  0.122017
 Thermal correction to Gibbs Free Energy=         0.085365
 Sum of electronic and zero-point Energies=           -228.514515
 Sum of electronic and thermal Energies=              -228.508173
 Sum of electronic and thermal Enthalpies=            -228.507229
 Sum of electronic and thermal Free Energies=         -228.543880

                     E (Thermal)             CV                S
                      KCal/Mol        Cal/Mol-Kelvin    Cal/Mol-Kelvin
 Total                   75.974             21.012             77.140
 Electronic               0.000              0.000              0.000
 Translational            0.889              2.981             38.742
 Rotational               0.889              2.981             25.547
 Vibrational             74.197             15.050             12.851
 Vibration     1          0.611              1.925              2.979
 Vibration     2          0.615              1.914              2.812
 Vibration     3          0.644              1.820              2.013
 Vibration     4          0.671              1.739              1.634
 Vibration     5          0.715              1.609              1.244
 Vibration     6          0.780              1.434              0.903

 Optimization completed.
    -- Stationary point found.
 Normal termination of Gaussian 09 at Sat Aug 21 01:39:26 2021.
