 Gaussian 09, Revision E.01,
 Gaussian 09:  ES64L-G09RevE.01 30-Nov-2015

 --------------------------------
 #P OPT=calcfc Freq B3LYP/6-31G**
 --------------------------------

 --------
 Frag_307
 --------
 Symbolic Z-matrix:
 Charge =  0 Multiplicity = 1

 SCF Done:  E(RB3LYP) =  -227.376836299     A.U. after   14 cycles
 SCF Done:  E(RB3LYP) =  -227.393286088     A.U. after   15 cycles
 SCF Done:  E(RB3LYP) =  -227.391164855     A.U. after   13 cycles
 SCF Done:  E(RB3LYP) =  -227.393815591     A.U. after   11 cycles
 SCF Done:  E(RB3LYP) =  -227.390137258     A.U. after   15 cycles
 SCF Done:  E(RB3LYP) =  -227.393815611     A.U. after    7 cycles
 SCF Done:  E(RB3LYP) =  -227.394762725     A.U. after   13 cycles
 SCF Done:  E(RB3LYP) =  -227.394867430     A.U. after   12 cycles
 SCF Done:  E(RB3LYP) =  -227.394872698     A.U. after   10 cycles
 SCF Done:  E(RB3LYP) =  -227.394874557     A.U. after    9 cycles
 SCF Done:  E(RB3LYP) =  -227.394874656     A.U. after    7 cycles
 Optimization completed.
    -- Stationary point found.
 Normal termination of Gaussian 09 at Fri Sep 10 18:55:47 2021.

 ----------------------------------------------------------------------
 #P Geom=AllCheck Guess=TCheck SCRF=Check GenChk RB3LYP/6-31G(d,p) Freq
 ----------------------------------------------------------------------

 Structure from the checkpoint file:  "/public/home/users/caep010/.cache/gau_scr/Gau-99204.chk"
 --------
 Frag_307
 --------
 Charge =  0 Multiplicity = 1

                         Standard orientation:
 ---------------------------------------------------------------------
 Center     Atomic      Atomic             Coordinates (Angstroms)
 Number     Number       Type             X           Y           Z
 ---------------------------------------------------------------------
      1          6           0       -1.853795   -0.092731    0.209518
      2          7           0       -0.807457   -0.519518   -0.373096
      3          6           0        0.440809    0.068663   -0.058553
      4          6           0        0.650351    1.399378   -0.063613
      5          7           0        1.405243   -0.901192    0.217112
      6          1           0       -1.839396    0.684698    0.983009
      7          1           0       -2.821718   -0.510432   -0.071064
      8          1           0        1.639126    1.814467    0.096735
      9          1           0       -0.158173    2.084680   -0.278455
     10          1           0        2.359964   -0.597965    0.079110
     11          1           0        1.211505   -1.782333   -0.241564
 ---------------------------------------------------------------------

 SCF Done:  E(RB3LYP) =  -227.394874656     A.U. after    1 cycles

 The electronic state is 1-A.
 Alpha  occ. eigenvalues --  -14.34356 -14.33439 -10.24478 -10.23583 -10.15736
 Alpha  occ. eigenvalues --   -0.95215  -0.88169  -0.72433  -0.64823  -0.54888
 Alpha  occ. eigenvalues --   -0.51559  -0.48864  -0.44760  -0.42715  -0.39010
 Alpha  occ. eigenvalues --   -0.35605  -0.31278  -0.26417  -0.20084
 Alpha virt. eigenvalues --   -0.02805   0.06940   0.09806   0.12504   0.13356
 Alpha virt. eigenvalues --    0.16601   0.17728   0.18510   0.24776   0.29139
 Alpha virt. eigenvalues --    0.36458   0.40009   0.52894   0.55853   0.57606

 Mulliken charges:
               1
     1  C   -0.019122
     2  N   -0.369738
     3  C    0.410927
     4  C   -0.302708
     5  N   -0.625230
     6  H    0.106045
     7  H    0.110868
     8  H    0.078802
     9  H    0.088752
    10  H    0.257004
    11  H    0.264400
 Sum of Mulliken charges =   0.00000

 Dipole moment (field-independent basis, Debye):
    X=              0.1524    Y=             -0.1115    Z=              0.0102  Tot=              0.1891
 Quadrupole moment (field-independent basis, Debye-Ang):
   XX=            -22.7080   YY=            -29.5670   ZZ=            -33.4216
   XY=             -2.0055   XZ=             -2.2716   YZ=              0.9345

  Exact polarizability:  60.446   3.007  52.240  -1.958   2.446  24.311
 Approx polarizability:  82.432   3.755  84.712  -4.911   4.378  36.709

                      1                      2                      3
                      A                      A                      A
 Frequencies --    150.1114               302.4491               319.0051
 Red. masses --      3.3407                 2.0502                 1.1571
 Frc consts  --      0.0444                 0.1105                 0.0694
 IR Inten    --     14.8404                 3.8247                32.1725

                      4                      5                      6
                      A                      A                      A
 Frequencies --    430.7313               455.4739               626.1145
 Red. masses --      2.2336                 2.1272                 1.3340
 Frc consts  --      0.2442                 0.2600                 0.3081
 IR Inten    --      3.0699                 3.0531               190.5695

                      7                      8                      9
                      A                      A                      A
 Frequencies --    666.5507               712.6657               768.5694
 Red. masses --      1.9271                 1.1756                 1.3842
 Frc consts  --      0.5044                 0.3518                 0.4818
 IR Inten    --     41.9119                33.6929                94.3110

                     10                     11                     12
                      A                      A                      A
 Frequencies --    817.5588               868.1046               989.8020
 Red. masses --      1.9087                 3.4384                 1.5790
 Frc consts  --      0.7517                 1.5267                 0.9114
 IR Inten    --     24.5945                10.0303                 2.2413

                     13                     14                     15
                      A                      A                      A
 Frequencies --   1069.7493              1129.3905              1225.5284
 Red. masses --      1.3554                 1.4776                 1.4998
 Frc consts  --      0.9139                 1.1104                 1.3271
 IR Inten    --     18.4258                 3.1974                 9.6226

                     16                     17                     18
                      A                      A                      A
 Frequencies --   1364.9917              1448.7626              1508.4602
 Red. masses --      2.8947                 1.1879                 1.1881
 Frc consts  --      3.1777                 1.4690                 1.5928
 IR Inten    --     65.2778                 3.6822                22.0985

                     19                     20                     21
                      A                      A                      A
 Frequencies --   1642.6709              1698.6072              1733.6320
 Red. masses --      1.1856                 4.7733                 6.0833
 Frc consts  --      1.8849                 8.1143                10.7721
 IR Inten    --     48.7935               136.9945                53.0500

                     22                     23                     24
                      A                      A                      A
 Frequencies --   3049.4476              3164.8007              3181.6214
 Red. masses --      1.0590                 1.1123                 1.0605
 Frc consts  --      5.8022                 6.5639                 6.3249
 IR Inten    --     28.8160                29.3767                 4.7067

                     25                     26                     27
                      A                      A                      A
 Frequencies --   3277.1028              3559.7484              3672.1404
 Red. masses --      1.1153                 1.0472                 1.0983
 Frc consts  --      7.0571                 7.8188                 8.7258
 IR Inten    --      7.3142                11.1636                12.6319

 - Thermochemistry -
 -------------------
 Temperature   298.150 Kelvin.  Pressure   1.00000 Atm.
 Atom     1 has atomic number  6 and mass  12.00000

 Molecular mass:    70.05310 amu.
 Principal axes and moments of inertia in atomic units:
                           1         2         3
     Eigenvalues --   196.71947 396.51814 562.38199
           X            0.99981  -0.01259  -0.01474
           Y            0.01282   0.99980   0.01521
           Z            0.01454  -0.01539   0.99978
 This molecule is an asymmetric top.
 Rotational symmetry number  1.
 Rotational temperatures (Kelvin)      0.44029     0.21844     0.15401
 Rotational constants (GHZ):           9.17419     4.55147     3.20910
 Zero-point vibrational energy     238259.0 (Joules/Mol)
                                   56.94526 (Kcal/Mol)
 Warning -- explicit consideration of   5 degrees of freedom as
           vibrations may cause significant error
 Vibrational temperatures:    215.98   435.16   458.98   619.73   655.32
          (Kelvin)            900.84   959.02  1025.37  1105.80  1176.28
                             1249.01  1424.10  1539.13  1624.94  1763.26
                             1963.92  2084.44  2170.34  2363.43  2443.91
                             2494.31  4387.47  4553.44  4577.64  4715.01
                             5121.68  5283.38

 Zero-point correction=                           0.090748 (Hartree/Particle)
 Thermal correction to Energy=                    0.096310
 Thermal correction to Enthalpy=                  0.097255
 Thermal correction to Gibbs Free Energy=         0.062605
 Sum of electronic and zero-point Energies=           -227.304127
 Sum of electronic and thermal Energies=              -227.298564
 Sum of electronic and thermal Enthalpies=            -227.297620
 Sum of electronic and thermal Free Energies=         -227.332269

                     E (Thermal)             CV                S
                      KCal/Mol        Cal/Mol-Kelvin    Cal/Mol-Kelvin
 Total                   60.436             20.007             72.925
 Electronic               0.000              0.000              0.000
 Translational            0.889              2.981             38.657
 Rotational               0.889              2.981             25.287
 Vibrational             58.658             14.045              8.981
 Vibration     1          0.618              1.903              2.671
 Vibration     2          0.694              1.669              1.403
 Vibration     3          0.705              1.637              1.315
 Vibration     4          0.792              1.403              0.856
 Vibration     5          0.814              1.349              0.779

 Optimization completed.
    -- Stationary point found.
 Normal termination of Gaussian 09 at Fri Sep 10 18:55:54 2021.
