 Gaussian 09, Revision E.01,
 Gaussian 09:  ES64L-G09RevE.01 30-Nov-2015

 --------------------------------
 #P OPT=calcfc Freq B3LYP/6-31G**
 --------------------------------

 --------
 Frag_306
 --------
 Symbolic Z-matrix:
 Charge =  0 Multiplicity = 1

 SCF Done:  E(RB3LYP) =  -287.785492263     A.U. after   13 cycles
 SCF Done:  E(RB3LYP) =  -287.804731518     A.U. after   13 cycles
 SCF Done:  E(RB3LYP) =  -287.803658477     A.U. after   13 cycles
 SCF Done:  E(RB3LYP) =  -287.806019200     A.U. after   11 cycles
 SCF Done:  E(RB3LYP) =  -287.792623695     A.U. after   15 cycles
 SCF Done:  E(RB3LYP) =  -287.807044850     A.U. after   12 cycles
 SCF Done:  E(RB3LYP) =  -287.774671883     A.U. after   13 cycles
 SCF Done:  E(RB3LYP) =  -287.807661908     A.U. after    9 cycles
 SCF Done:  E(RB3LYP) =  -287.810879383     A.U. after   14 cycles
 SCF Done:  E(RB3LYP) =  -287.789969503     A.U. after   14 cycles
 SCF Done:  E(RB3LYP) =  -287.817229661     A.U. after   11 cycles
 SCF Done:  E(RB3LYP) =  -287.817656278     A.U. after   11 cycles
 SCF Done:  E(RB3LYP) =  -287.818017785     A.U. after   11 cycles
 SCF Done:  E(RB3LYP) =  -287.818401325     A.U. after   11 cycles
 SCF Done:  E(RB3LYP) =  -287.818625250     A.U. after   11 cycles
 SCF Done:  E(RB3LYP) =  -287.818732323     A.U. after   11 cycles
 SCF Done:  E(RB3LYP) =  -287.818760802     A.U. after   10 cycles
 SCF Done:  E(RB3LYP) =  -287.818764714     A.U. after    9 cycles
 SCF Done:  E(RB3LYP) =  -287.818765097     A.U. after    7 cycles
 Optimization completed.
    -- Stationary point found.
 Normal termination of Gaussian 09 at Fri Sep 10 19:27:09 2021.

 ----------------------------------------------------------------------
 #P Geom=AllCheck Guess=TCheck SCRF=Check GenChk RB3LYP/6-31G(d,p) Freq
 ----------------------------------------------------------------------

 Structure from the checkpoint file:  "/public/home/users/caep010/.cache/gau_scr/Gau-200586.chk"
 --------
 Frag_306
 --------
 Charge =  0 Multiplicity = 1

                         Standard orientation:
 ---------------------------------------------------------------------
 Center     Atomic      Atomic             Coordinates (Angstroms)
 Number     Number       Type             X           Y           Z
 ---------------------------------------------------------------------
      1          6           0       -1.434824    1.351408   -0.000120
      2          6           0       -0.650266    0.070911    0.000050
      3          7           0       -1.376539   -1.185289    0.000151
      4          6           0        0.693857   -0.064105   -0.000019
      5          6           0        1.730009    1.015747    0.000115
      6          8           0        1.253843   -1.305957   -0.000164
      7          1           0       -2.089570    1.418581   -0.881309
      8          1           0       -0.798927    2.239427    0.000246
      9          1           0       -2.090444    1.418465    0.880447
     10          1           0       -1.983959   -1.257027   -0.815184
     11          1           0       -1.984133   -1.256758    0.815390
     12          1           0        2.374557    0.912470    0.880227
     13          1           0        2.374285    0.913227   -0.880292
     14          1           0        1.296001    2.015405    0.000615
     15          1           0        0.474562   -1.902878   -0.000043
 ---------------------------------------------------------------------

 SCF Done:  E(RB3LYP) =  -287.818765097     A.U. after    1 cycles

 The electronic state is 1-A.
 Alpha  occ. eigenvalues --  -19.14384 -14.32909 -10.22866 -10.19102 -10.18069
 Alpha  occ. eigenvalues --  -10.17843  -1.03136  -0.88648  -0.76185  -0.71309
 Alpha  occ. eigenvalues --   -0.64566  -0.55142  -0.48716  -0.48511  -0.44840
 Alpha  occ. eigenvalues --   -0.41973  -0.39770  -0.39768  -0.38343  -0.37787
 Alpha  occ. eigenvalues --   -0.33955  -0.33689  -0.25935  -0.19666
 Alpha virt. eigenvalues --    0.05115   0.07150   0.11455   0.13360   0.15053
 Alpha virt. eigenvalues --    0.15657   0.16972   0.17551   0.20099   0.22332
 Alpha virt. eigenvalues --    0.23227   0.25142   0.26678   0.37543   0.50007

 Mulliken charges:
               1
     1  C   -0.357330
     2  C    0.101909
     3  N   -0.673489
     4  C    0.341997
     5  C   -0.360055
     6  O   -0.551466
     7  H    0.100690
     8  H    0.107213
     9  H    0.100663
    10  H    0.250127
    11  H    0.250129
    12  H    0.127648
    13  H    0.127638
    14  H    0.108285
    15  H    0.326041
 Sum of Mulliken charges =  -0.00000

 Dipole moment (field-independent basis, Debye):
    X=             -2.1098    Y=              0.8094    Z=             -0.0000  Tot=              2.2598
 Quadrupole moment (field-independent basis, Debye-Ang):
   XX=            -34.7672   YY=            -37.0235   ZZ=            -36.7862
   XY=              4.1518   XZ=              0.0004   YZ=              0.0004

  Exact polarizability:  72.845  -0.276  53.807  -0.001  -0.000  38.154
 Approx polarizability: 106.196  -4.658  71.985  -0.004   0.001  54.635

                      1                      2                      3
                      A                      A                      A
 Frequencies --    141.7644               154.7858               189.7674
 Red. masses --      1.0398                 1.6615                 1.2086
 Frc consts  --      0.0123                 0.0235                 0.0256
 IR Inten    --      1.0743                 5.9742                 0.9120

                      4                      5                      6
                      A                      A                      A
 Frequencies --    270.8807               292.1341               318.6449
 Red. masses --      1.3150                 3.0495                 2.5296
 Frc consts  --      0.0569                 0.1533                 0.1513
 IR Inten    --     13.9639                 0.8505                 1.9003

                      7                      8                      9
                      A                      A                      A
 Frequencies --    385.7388               425.2560               567.9031
 Red. masses --      2.7159                 2.6888                 4.0613
 Frc consts  --      0.2381                 0.2865                 0.7717
 IR Inten    --      3.0219                10.6314                10.3811

                     10                     11                     12
                      A                      A                      A
 Frequencies --    571.7962               722.1941               801.1220
 Red. masses --      3.2979                 3.9004                 1.0937
 Frc consts  --      0.6353                 1.1986                 0.4136
 IR Inten    --      0.0675                 4.9685               108.5619

                     13                     14                     15
                      A                      A                      A
 Frequencies --    886.0007               964.2723              1015.0900
 Red. masses --      1.4174                 2.0312                 1.4334
 Frc consts  --      0.6555                 1.1128                 0.8702
 IR Inten    --    128.1718                 5.3677                19.1574

                     16                     17                     18
                      A                      A                      A
 Frequencies --   1040.9848              1071.1949              1123.3207
 Red. masses --      1.2778                 1.5430                 2.0437
 Frc consts  --      0.8158                 1.0432                 1.5194
 IR Inten    --      2.3756                 2.2801                12.0542

                     19                     20                     21
                      A                      A                      A
 Frequencies --   1207.2128              1226.3756              1316.2682
 Red. masses --      1.2919                 5.5082                 3.2016
 Frc consts  --      1.1093                 4.8810                 3.2682
 IR Inten    --      1.2952                62.7321               179.9282

                     22                     23                     24
                      A                      A                      A
 Frequencies --   1400.5241              1435.6753              1446.0460
 Red. masses --      1.2530                 1.3986                 1.5710
 Frc consts  --      1.4480                 1.6984                 1.9355
 IR Inten    --     49.6611                 4.0522                10.8889

                     25                     26                     27
                      A                      A                      A
 Frequencies --   1486.0045              1493.4109              1502.2650
 Red. masses --      1.0437                 1.0439                 1.0565
 Frc consts  --      1.3580                 1.3717                 1.4048
 IR Inten    --      1.7518                 9.5184                 0.8798

                     28                     29                     30
                      A                      A                      A
 Frequencies --   1509.0084              1642.4805              1774.6577
 Red. masses --      1.0636                 1.1759                 4.3306
 Frc consts  --      1.4270                 1.8690                 8.0359
 IR Inten    --     17.1706                 2.2910                88.1489

                     31                     32                     33
                      A                      A                      A
 Frequencies --   3002.8185              3038.8937              3048.8519
 Red. masses --      1.0425                 1.1005                 1.0399
 Frc consts  --      5.5386                 5.9881                 5.6952
 IR Inten    --     64.6915                41.0827                22.4954

                     34                     35                     36
                      A                      A                      A
 Frequencies --   3099.8644              3131.0042              3166.2470
 Red. masses --      1.1004                 1.0938                 1.0973
 Frc consts  --      6.2300                 6.3179                 6.4814
 IR Inten    --     16.6622                24.6429                20.8279

                     37                     38                     39
                      A                      A                      A
 Frequencies --   3463.1057              3528.7187              3556.7956
 Red. masses --      1.0481                 1.0930                 1.0627
 Frc consts  --      7.4060                 8.0186                 7.9208
 IR Inten    --      1.4436                 0.3153                93.8401

 - Thermochemistry -
 -------------------
 Temperature   298.150 Kelvin.  Pressure   1.00000 Atm.
 Atom     1 has atomic number  6 and mass  12.00000

 Molecular mass:    87.06841 amu.
 Principal axes and moments of inertia in atomic units:
                           1         2         3
     Eigenvalues --   382.52759 565.69613 916.32937
           X            0.99810   0.06154   0.00001
           Y           -0.06154   0.99810  -0.00000
           Z           -0.00001   0.00000   1.00000
 This molecule is an asymmetric top.
 Rotational symmetry number  1.
 Rotational temperatures (Kelvin)      0.22643     0.15311     0.09452
 Rotational constants (GHZ):           4.71794     3.19030     1.96953
 Zero-point vibrational energy     343442.4 (Joules/Mol)
                                   82.08469 (Kcal/Mol)
 Warning -- explicit consideration of  10 degrees of freedom as
           vibrations may cause significant error
 Vibrational temperatures:    203.97   222.70   273.03   389.74   420.32
          (Kelvin)            458.46   554.99   611.85   817.08   822.69
                             1039.07  1152.63  1274.76  1387.37  1460.49
                             1497.74  1541.21  1616.21  1736.91  1764.48
                             1893.81  2015.04  2065.61  2080.54  2138.03
                             2148.68  2161.42  2171.12  2363.16  2553.33
                             4320.38  4372.28  4386.61  4460.01  4504.81
                             4555.52  4982.63  5077.03  5117.43

 Zero-point correction=                           0.130810 (Hartree/Particle)
 Thermal correction to Energy=                    0.138246
 Thermal correction to Enthalpy=                  0.139190
 Thermal correction to Gibbs Free Energy=         0.100121
 Sum of electronic and zero-point Energies=           -287.687955
 Sum of electronic and thermal Energies=              -287.680519
 Sum of electronic and thermal Enthalpies=            -287.679575
 Sum of electronic and thermal Free Energies=         -287.718645

                     E (Thermal)             CV                S
                      KCal/Mol        Cal/Mol-Kelvin    Cal/Mol-Kelvin
 Total                   86.751             26.616             82.229
 Electronic               0.000              0.000              0.000
 Translational            0.889              2.981             39.305
 Rotational               0.889              2.981             26.786
 Vibrational             84.973             20.655             16.137
 Vibration     1          0.615              1.911              2.780
 Vibration     2          0.620              1.897              2.613
 Vibration     3          0.633              1.854              2.230
 Vibration     4          0.675              1.727              1.591
 Vibration     5          0.688              1.688              1.462
 Vibration     6          0.705              1.638              1.317
 Vibration     7          0.754              1.501              1.017
 Vibration     8          0.787              1.415              0.874
 Vibration     9          0.924              1.101              0.508
 Vibration    10          0.928              1.092              0.501

 Optimization completed.
    -- Stationary point found.
 Normal termination of Gaussian 09 at Fri Sep 10 19:27:22 2021.
