 Gaussian 09, Revision E.01,
 Gaussian 09:  ES64L-G09RevE.01 30-Nov-2015

 ----------------------------
 #P OPT Freq B3LYP/6-31G(d,p)
 ----------------------------

 --------
 Frag_688
 --------
 Symbolic Z-matrix:
 Charge =  0 Multiplicity = 1

 SCF Done:  E(RB3LYP) =  -227.408355777     A.U. after   14 cycles
 SCF Done:  E(RB3LYP) =  -227.408404054     A.U. after    9 cycles
 SCF Done:  E(RB3LYP) =  -227.408405659     A.U. after    8 cycles
 Optimization completed.
    -- Stationary point found.
 Normal termination of Gaussian 09 at Thu Sep  8 15:06:52 2022.

 ----------------------------------------------------------------------
 #P Geom=AllCheck Guess=TCheck SCRF=Check GenChk RB3LYP/6-31G(d,p) Freq
 ----------------------------------------------------------------------

 Structure from the checkpoint file:  "B3LYP6-31Gdp.Frag_688.chk"
 --------
 Frag_688
 --------
 Charge =  0 Multiplicity = 1

                         Standard orientation:
 ---------------------------------------------------------------------
 Center     Atomic      Atomic             Coordinates (Angstroms)
 Number     Number       Type             X           Y           Z
 ---------------------------------------------------------------------
      1          6           0       -1.700992   -0.649428    0.000029
      2          6           0       -0.416220    0.142350   -0.000037
      3          7           0       -0.299036    1.413294   -0.000010
      4          6           0        0.859473   -0.663115   -0.000107
      5          7           0        2.033566   -0.176998    0.000083
      6          1           0       -2.577339    0.003441   -0.000319
      7          1           0       -1.749046   -1.302396   -0.879629
      8          1           0       -1.749287   -1.301762    0.880147
      9          1           0       -1.215186    1.869959    0.000039
     10          1           0        0.745787   -1.752563   -0.000004
     11          1           0        1.949804    0.850407   -0.000055
 ---------------------------------------------------------------------

 SCF Done:  E(RB3LYP) =  -227.408405659     A.U. after    1 cycles

 The electronic state is 1-A.
 Alpha  occ. eigenvalues --  -14.33423 -14.32575 -10.25258 -10.23358 -10.20744
 Alpha  occ. eigenvalues --   -0.93415  -0.88558  -0.75322  -0.64918  -0.56536
 Alpha  occ. eigenvalues --   -0.48379  -0.46819  -0.44616  -0.41422  -0.41183
 Alpha  occ. eigenvalues --   -0.35680  -0.29491  -0.28320  -0.26547
 Alpha virt. eigenvalues --   -0.05741   0.05701   0.07871   0.11724   0.13434
 Alpha virt. eigenvalues --    0.14863   0.16979   0.17898   0.22804   0.30976
 Alpha virt. eigenvalues --    0.32908   0.41051   0.51713   0.54537   0.54867

 Mulliken charges:
               1
     1  C   -0.376376
     2  C    0.273038
     3  N   -0.531137
     4  C    0.115372
     5  N   -0.457844
     6  H    0.117027
     7  H    0.138231
     8  H    0.138250
     9  H    0.231507
    10  H    0.096449
    11  H    0.255483
 Sum of Mulliken charges =  -0.00000

 Dipole moment (field-independent basis, Debye):
    X=             -3.6490    Y=             -0.6369    Z=             -0.0001  Tot=              3.7042
 Quadrupole moment (field-independent basis, Debye-Ang):
   XX=            -33.3063   YY=            -29.5613   ZZ=            -30.6329
   XY=              0.7993   XZ=             -0.0009   YZ=              0.0001

  Exact polarizability:  53.645   1.022  50.959   0.001  -0.000  24.590
 Approx polarizability:  76.926   3.110  80.941   0.004   0.000  35.319

                      1                      2                      3
                      A                      A                      A
 Frequencies --    116.2218               139.6615               288.4034
 Red. masses --      2.2386                 1.0613                 3.5958
 Frc consts  --      0.0178                 0.0122                 0.1762
 IR Inten    --      1.9571                 0.6516                 5.2831

                      4                      5                      6
                      A                      A                      A
 Frequencies --    419.9485               466.8851               615.9911
 Red. masses --      3.0035                 2.2820                 3.2630
 Frc consts  --      0.3121                 0.2931                 0.7295
 IR Inten    --      3.3874                 5.9661                21.4877

                      7                      8                      9
                      A                      A                      A
 Frequencies --    781.9403               848.9371               932.2593
 Red. masses --      1.3474                 3.3171                 1.4820
 Frc consts  --      0.4854                 1.4085                 0.7589
 IR Inten    --      2.3317                13.6686                60.7897

                     10                     11                     12
                      A                      A                      A
 Frequencies --    984.0569              1079.2945              1098.5351
 Red. masses --      2.0368                 1.6330                 1.4858
 Frc consts  --      1.1621                 1.1208                 1.0564
 IR Inten    --      3.8224                16.8241                43.4127

                     13                     14                     15
                      A                      A                      A
 Frequencies --   1170.5763              1254.1691              1356.3388
 Red. masses --      1.0764                 1.2155                 1.6492
 Frc consts  --      0.8690                 1.1265                 1.7875
 IR Inten    --     48.2367                63.5499               116.0969

                     16                     17                     18
                      A                      A                      A
 Frequencies --   1417.4383              1446.0928              1483.8106
 Red. masses --      1.3388                 1.2910                 1.0451
 Frc consts  --      1.5848                 1.5906                 1.3557
 IR Inten    --     34.3901                16.0339                 7.7477

                     19                     20                     21
                      A                      A                      A
 Frequencies --   1492.7643              1695.9296              1751.0726
 Red. masses --      1.0736                 9.0104                 8.2306
 Frc consts  --      1.4096                15.2690                14.8693
 IR Inten    --     21.4949                27.3118                11.8564

                     22                     23                     24
                      A                      A                      A
 Frequencies --   3038.3492              3096.0141              3098.9339
 Red. masses --      1.0370                 1.0886                 1.0998
 Frc consts  --      5.6404                 6.1477                 6.2231
 IR Inten    --      4.2210                37.5749                 9.4317

                     25                     26                     27
                      A                      A                      A
 Frequencies --   3136.3002              3378.9732              3457.8399
 Red. masses --      1.1030                 1.0720                 1.0753
 Frc consts  --      6.3921                 7.2111                 7.5754
 IR Inten    --     15.9079                 1.6153                 0.8849

 - Thermochemistry -
 -------------------
 Temperature   298.150 Kelvin.  Pressure   1.00000 Atm.
 Atom     1 has atomic number  6 and mass  12.00000

 Molecular mass:    70.05310 amu.
 Principal axes and moments of inertia in atomic units:
                           1         2         3
     Eigenvalues --   182.76048 446.12964 617.74465
           X            0.99932   0.03681  -0.00000
           Y           -0.03681   0.99932  -0.00000
           Z            0.00000   0.00000   1.00000
 This molecule is an asymmetric top.
 Rotational symmetry number  1.
 Rotational temperatures (Kelvin)      0.47392     0.19414     0.14021
 Rotational constants (GHZ):           9.87490     4.04533     2.92150
 Zero-point vibrational energy     239532.7 (Joules/Mol)
                                   57.24968 (Kcal/Mol)
 Warning -- explicit consideration of   6 degrees of freedom as
           vibrations may cause significant error
 Vibrational temperatures:    167.22   200.94   414.95   604.21   671.74
          (Kelvin)            886.27  1125.04  1221.43  1341.31  1415.84
                             1552.86  1580.55  1684.20  1804.47  1951.47
                             2039.37  2080.60  2134.87  2147.75  2440.06
                             2519.40  4371.50  4454.47  4458.67  4512.43
                             4861.58  4975.05

 Zero-point correction=                           0.091233 (Hartree/Particle)
 Thermal correction to Energy=                    0.096914
 Thermal correction to Enthalpy=                  0.097859
 Thermal correction to Gibbs Free Energy=         0.062456
 Sum of electronic and zero-point Energies=           -227.317172
 Sum of electronic and thermal Energies=              -227.311491
 Sum of electronic and thermal Enthalpies=            -227.310547
 Sum of electronic and thermal Free Energies=         -227.345949

                     E (Thermal)             CV                S
                      KCal/Mol        Cal/Mol-Kelvin    Cal/Mol-Kelvin
 Total                   60.815             18.875             74.510
 Electronic               0.000              0.000              0.000
 Translational            0.889              2.981             38.657
 Rotational               0.889              2.981             25.424
 Vibrational             59.037             12.914             10.429
 Vibration     1          0.608              1.936              3.162
 Vibration     2          0.615              1.914              2.809
 Vibration     3          0.685              1.695              1.483
 Vibration     4          0.783              1.427              0.892
 Vibration     5          0.824              1.324              0.746
 Vibration     6          0.976              0.998              0.423

 Optimization completed.
    -- Stationary point found.
 Normal termination of Gaussian 09 at Thu Sep  8 15:07:00 2022.
