 Gaussian 09, Revision E.01,
 Gaussian 09:  ES64L-G09RevE.01 30-Nov-2015

 --------------------------------
 #P OPT=calcfc Freq B3LYP/6-31G**
 --------------------------------

 --------
 Frag_129
 --------
 Symbolic Z-matrix:
 Charge =  0 Multiplicity = 1

 SCF Done:  E(RB3LYP) =  -282.764331700     A.U. after   14 cycles
 SCF Done:  E(RB3LYP) =  -282.784187192     A.U. after   12 cycles
 SCF Done:  E(RB3LYP) =  -282.787205487     A.U. after   14 cycles
 SCF Done:  E(RB3LYP) =  -282.789107674     A.U. after   13 cycles
 SCF Done:  E(RB3LYP) =  -282.788220652     A.U. after   13 cycles
 SCF Done:  E(RB3LYP) =  -282.789655691     A.U. after   11 cycles
 SCF Done:  E(RB3LYP) =  -282.785175956     A.U. after   13 cycles
 SCF Done:  E(RB3LYP) =  -282.790019079     A.U. after    9 cycles
 SCF Done:  E(RB3LYP) =  -282.790172207     A.U. after   11 cycles
 SCF Done:  E(RB3LYP) =  -282.790230450     A.U. after   11 cycles
 SCF Done:  E(RB3LYP) =  -282.790249871     A.U. after    8 cycles
 SCF Done:  E(RB3LYP) =  -282.790263207     A.U. after    8 cycles
 SCF Done:  E(RB3LYP) =  -282.790265579     A.U. after    8 cycles
 Optimization completed.
    -- Stationary point found.
 Normal termination of Gaussian 09 at Sat Aug 21 02:19:06 2021.

 ----------------------------------------------------------------------
 #P Geom=AllCheck Guess=TCheck SCRF=Check GenChk RB3LYP/6-31G(d,p) Freq
 ----------------------------------------------------------------------

 Structure from the checkpoint file:  "/public/home/users/caep010/.cache/gau_scr/Gau-176635.chk"
 --------
 Frag_129
 --------
 Charge =  0 Multiplicity = 1

                         Standard orientation:
 ---------------------------------------------------------------------
 Center     Atomic      Atomic             Coordinates (Angstroms)
 Number     Number       Type             X           Y           Z
 ---------------------------------------------------------------------
      1          7           0        2.128110   -0.131108    0.003545
      2          6           0        0.853847   -0.021040    0.009629
      3          7           0        0.036273    1.105994   -0.178484
      4          6           0       -1.348797    0.767820    0.150080
      5          6           0       -1.363457   -0.736967   -0.169165
      6          7           0       -0.002479   -1.104380    0.199390
      7          1           0        2.567140    0.778593   -0.138166
      8          1           0        0.404440    1.980742    0.169863
      9          1           0       -1.583106    0.937015    1.211708
     10          1           0       -2.060103    1.331720   -0.460181
     11          1           0       -1.575223   -0.900165   -1.237333
     12          1           0       -2.107813   -1.280201    0.420157
     13          1           0        0.371778   -2.000126   -0.080458
 ---------------------------------------------------------------------

 SCF Done:  E(RB3LYP) =  -282.790265579     A.U. after    1 cycles

 The electronic state is 1-A.
 Alpha  occ. eigenvalues --  -14.34654 -14.33950 -14.27105 -10.26770 -10.22985
 Alpha  occ. eigenvalues --  -10.22835  -0.99116  -0.87094  -0.85418  -0.73079
 Alpha  occ. eigenvalues --   -0.62695  -0.60440  -0.51609  -0.50127  -0.46549
 Alpha  occ. eigenvalues --   -0.43441  -0.41598  -0.39758  -0.37928  -0.36014
 Alpha  occ. eigenvalues --   -0.24958  -0.24543  -0.21273
 Alpha virt. eigenvalues --    0.06682   0.07637   0.10440   0.11334   0.14153
 Alpha virt. eigenvalues --    0.14780   0.16551   0.17434   0.19144   0.19807
 Alpha virt. eigenvalues --    0.25943   0.28339   0.35983   0.43620   0.51516

 Mulliken charges:
               1
     1  N   -0.626967
     2  C    0.634419
     3  N   -0.553506
     4  C   -0.045870
     5  C   -0.042814
     6  N   -0.531289
     7  H    0.206064
     8  H    0.253941
     9  H    0.110403
    10  H    0.110680
    11  H    0.108874
    12  H    0.111252
    13  H    0.264814
 Sum of Mulliken charges =  -0.00000

 Dipole moment (field-independent basis, Debye):
    X=             -3.1123    Y=              1.3604    Z=             -0.1027  Tot=              3.3982
 Quadrupole moment (field-independent basis, Debye-Ang):
   XX=            -39.3740   YY=            -29.9884   ZZ=            -37.9586
   XY=              4.0645   XZ=             -0.4633   YZ=              2.4277

  Exact polarizability:  66.200   1.397  49.435  -0.243   0.354  33.003
 Approx polarizability:  93.891   0.177  69.758  -0.227  -1.717  47.757

                      1                      2                      3
                      A                      A                      A
 Frequencies --    192.7998               252.9080               452.4705
 Red. masses --      3.7046                 1.9349                 3.2771
 Frc consts  --      0.0811                 0.0729                 0.3953
 IR Inten    --      1.6032                 3.3117                26.7826

                      4                      5                      6
                      A                      A                      A
 Frequencies --    505.5002               560.3726               690.9795
 Red. masses --      1.2740                 1.4851                 2.7322
 Frc consts  --      0.1918                 0.2748                 0.7686
 IR Inten    --    181.4005                56.2556                10.3091

                      7                      8                      9
                      A                      A                      A
 Frequencies --    717.8958               737.7582               766.9246
 Red. masses --      2.8453                 3.4273                 1.3789
 Frc consts  --      0.8640                 1.0991                 0.4779
 IR Inten    --     10.8475                69.0051                69.6720

                     10                     11                     12
                      A                      A                      A
 Frequencies --    922.7611               939.6682               966.3533
 Red. masses --      1.6601                 3.3905                 2.3342
 Frc consts  --      0.8329                 1.7639                 1.2843
 IR Inten    --      1.3022                 0.1701                18.7860

                     13                     14                     15
                      A                      A                      A
 Frequencies --   1038.9563              1110.5475              1132.1953
 Red. masses --      1.9323                 2.2844                 1.7209
 Frc consts  --      1.2289                 1.6600                 1.2997
 IR Inten    --     36.0390                23.6307                46.1782

                     16                     17                     18
                      A                      A                      A
 Frequencies --   1138.6989              1217.9904              1229.1173
 Red. masses --      1.5248                 1.1316                 1.2090
 Frc consts  --      1.1649                 0.9891                 1.0761
 IR Inten    --     64.8204                 3.7524                 0.3649

                     19                     20                     21
                      A                      A                      A
 Frequencies --   1308.4143              1342.3000              1398.1382
 Red. masses --      1.7076                 1.3959                 1.4237
 Frc consts  --      1.7224                 1.4819                 1.6397
 IR Inten    --     69.1035                30.2146                15.2283

                     22                     23                     24
                      A                      A                      A
 Frequencies --   1441.0856              1459.7559              1536.4378
 Red. masses --      1.5821                 2.3524                 1.1354
 Frc consts  --      1.9358                 2.9534                 1.5792
 IR Inten    --      3.7544                71.4620                 9.9019

                     25                     26                     27
                      A                      A                      A
 Frequencies --   1542.2405              1766.5463              2994.6458
 Red. masses --      1.1026                 7.0248                 1.0734
 Frc consts  --      1.5451                12.9162                 5.6717
 IR Inten    --     13.1569               435.8983                57.2909

                     28                     29                     30
                      A                      A                      A
 Frequencies --   3007.5399              3093.5720              3098.3495
 Red. masses --      1.0682                 1.0915                 1.0984
 Frc consts  --      5.6928                 6.1545                 6.2128
 IR Inten    --     76.2220                45.0336                39.8488

                     31                     32                     33
                      A                      A                      A
 Frequencies --   3504.9795              3619.8678              3636.8491
 Red. masses --      1.0753                 1.0770                 1.0770
 Frc consts  --      7.7831                 8.3146                 8.3933
 IR Inten    --      2.2990                13.0841                25.3022

 - Thermochemistry -
 -------------------
 Temperature   298.150 Kelvin.  Pressure   1.00000 Atm.
 Atom     1 has atomic number  7 and mass  14.00307

 Molecular mass:    85.06400 amu.
 Principal axes and moments of inertia in atomic units:
                           1         2         3
     Eigenvalues --   238.59462 506.96041 709.50264
           X            0.99968   0.02525  -0.00126
           Y           -0.02521   0.99934   0.02598
           Z            0.00192  -0.02594   0.99966
 This molecule is an asymmetric top.
 Rotational symmetry number  1.
 Rotational temperatures (Kelvin)      0.36302     0.17085     0.12208
 Rotational constants (GHZ):           7.56405     3.55993     2.54367
 Zero-point vibrational energy     295026.7 (Joules/Mol)
                                   70.51308 (Kcal/Mol)
 Warning -- explicit consideration of   5 degrees of freedom as
           vibrations may cause significant error
 Vibrational temperatures:    277.40   363.88   651.00   727.30   806.25
          (Kelvin)            994.16  1032.89  1061.47  1103.43  1327.65
                             1351.97  1390.37  1494.82  1597.83  1628.97
                             1638.33  1752.41  1768.42  1882.51  1931.27
                             2011.61  2073.40  2100.26  2210.59  2218.94
                             2541.66  4308.62  4327.17  4450.95  4457.83
                             5042.88  5208.18  5232.61

 Zero-point correction=                           0.112370 (Hartree/Particle)
 Thermal correction to Energy=                    0.117648
 Thermal correction to Enthalpy=                  0.118592
 Thermal correction to Gibbs Free Energy=         0.083928
 Sum of electronic and zero-point Energies=           -282.677896
 Sum of electronic and thermal Energies=              -282.672618
 Sum of electronic and thermal Enthalpies=            -282.671674
 Sum of electronic and thermal Free Energies=         -282.706337

                     E (Thermal)             CV                S
                      KCal/Mol        Cal/Mol-Kelvin    Cal/Mol-Kelvin
 Total                   73.825             19.927             72.956
 Electronic               0.000              0.000              0.000
 Translational            0.889              2.981             39.236
 Rotational               0.889              2.981             25.954
 Vibrational             72.048             13.965              7.766
 Vibration     1          0.635              1.850              2.201
 Vibration     2          0.664              1.758              1.710
 Vibration     3          0.811              1.355              0.788
 Vibration     4          0.861              1.238              0.645
 Vibration     5          0.916              1.117              0.523

 Optimization completed.
    -- Stationary point found.
 Normal termination of Gaussian 09 at Sat Aug 21 02:19:17 2021.
