 Gaussian 09, Revision E.01,
 Gaussian 09:  ES64L-G09RevE.01 30-Nov-2015

 ----------------------------
 #P OPT Freq B3LYP/6-31G(d,p)
 ----------------------------

 ---------
 Frag_1052
 ---------
 Symbolic Z-matrix:
 Charge =  0 Multiplicity = 1

 SCF Done:  E(RB3LYP) =  -423.449313220     A.U. after   12 cycles
 SCF Done:  E(RB3LYP) =  -423.449375523     A.U. after   10 cycles
 SCF Done:  E(RB3LYP) =  -423.449317886     A.U. after   10 cycles
 SCF Done:  E(RB3LYP) =  -423.449390667     A.U. after   10 cycles
 SCF Done:  E(RB3LYP) =  -423.449391997     A.U. after    7 cycles
 SCF Done:  E(RB3LYP) =  -423.449392373     A.U. after    7 cycles
 SCF Done:  E(RB3LYP) =  -423.449392462     A.U. after    7 cycles
 Optimization completed.
    -- Stationary point found.
 Normal termination of Gaussian 09 at Thu Sep  8 14:49:20 2022.

 ----------------------------------------------------------------------
 #P Geom=AllCheck Guess=TCheck SCRF=Check GenChk RB3LYP/6-31G(d,p) Freq
 ----------------------------------------------------------------------

 Structure from the checkpoint file:  "B3LYP6-31Gdp.Frag_1052.chk"
 ---------
 Frag_1052
 ---------
 Charge =  0 Multiplicity = 1

                         Standard orientation:
 ---------------------------------------------------------------------
 Center     Atomic      Atomic             Coordinates (Angstroms)
 Number     Number       Type             X           Y           Z
 ---------------------------------------------------------------------
      1          6           0       -1.346162    1.230231   -0.759113
      2          6           0       -0.782519    0.066887    0.057821
      3          6           0       -1.470045   -1.248008   -0.352154
      4          8           0       -1.070693    0.352618    1.428421
      5          6           0        0.771745   -0.051024   -0.072268
      6          6           0        1.518269    1.230651    0.285508
      7          8           0        1.047039   -0.472174   -1.392152
      8          8           0        1.240166   -1.032913    0.861145
      9          1           0       -1.087564    1.120930   -1.815092
     10          1           0       -0.963304    2.185569   -0.393440
     11          1           0       -2.435438    1.250556   -0.663197
     12          1           0       -1.132409   -2.086811    0.267561
     13          1           0       -2.547052   -1.147791   -0.195478
     14          1           0       -1.281275   -1.494215   -1.399613
     15          1           0       -0.533816   -0.271937    1.941027
     16          1           0        1.341600    2.001141   -0.466927
     17          1           0        2.591073    1.019110    0.336837
     18          1           0        1.191106    1.601698    1.258038
     19          1           0        2.006706   -0.439481   -1.511856
     20          1           0        0.970550   -1.891440    0.504068
 ---------------------------------------------------------------------

 SCF Done:  E(RB3LYP) =  -423.449392462     A.U. after    1 cycles

 The electronic state is 1-A.
 Alpha  occ. eigenvalues --  -19.16016 -19.15701 -19.13155 -10.28915 -10.23798
 Alpha  occ. eigenvalues --  -10.17737 -10.17186 -10.16795  -1.07023  -1.01061
 Alpha  occ. eigenvalues --   -0.99441  -0.77746  -0.73813  -0.68421  -0.63538
 Alpha  occ. eigenvalues --   -0.55938  -0.55019  -0.50131  -0.46068  -0.44884
 Alpha  occ. eigenvalues --   -0.43889  -0.41116  -0.39974  -0.39294  -0.37734
 Alpha  occ. eigenvalues --   -0.37426  -0.36694  -0.35358  -0.33735  -0.32366
 Alpha  occ. eigenvalues --   -0.29974  -0.28513  -0.25662
 Alpha virt. eigenvalues --    0.06082   0.08418   0.11743   0.12699   0.13457
 Alpha virt. eigenvalues --    0.15199   0.15778   0.16001   0.17792   0.18627
 Alpha virt. eigenvalues --    0.19744   0.22032   0.22972   0.23828   0.24081

 Mulliken charges:
               1
     1  C   -0.311077
     2  C    0.265301
     3  C   -0.323538
     4  O   -0.559357
     5  C    0.441828
     6  C   -0.326986
     7  O   -0.542901
     8  O   -0.558052
     9  H    0.115165
    10  H    0.110055
    11  H    0.108275
    12  H    0.073731
    13  H    0.114355
    14  H    0.122086
    15  H    0.305927
    16  H    0.116713
    17  H    0.102129
    18  H    0.131839
    19  H    0.307566
    20  H    0.306941
 Sum of Mulliken charges =  -0.00000

 Dipole moment (field-independent basis, Debye):
    X=              1.4460    Y=             -0.9001    Z=             -1.0455  Tot=              1.9985
 Quadrupole moment (field-independent basis, Debye-Ang):
   XX=            -47.9817   YY=            -46.7301   ZZ=            -51.8186
   XY=              1.2050   XZ=             -0.8957   YZ=             -1.8433

  Exact polarizability:  67.510   1.101  63.848   0.692  -0.579  60.599
 Approx polarizability:  88.210  -1.558  85.996  -0.202  -0.113  90.514

                      1                      2                      3
                      A                      A                      A
 Frequencies --     96.6888               202.8545               233.9363
 Red. masses --      3.4758                 1.1161                 1.3892
 Frc consts  --      0.0191                 0.0271                 0.0448
 IR Inten    --      3.2331                 0.0243                 0.8758

                      4                      5                      6
                      A                      A                      A
 Frequencies --    242.1958               271.4097               286.7674
 Red. masses --      1.3540                 2.1874                 1.7588
 Frc consts  --      0.0468                 0.0949                 0.0852
 IR Inten    --      1.1063                 0.8550                 0.5343

                      7                      8                      9
                      A                      A                      A
 Frequencies --    321.4588               337.3197               349.8622
 Red. masses --      1.1570                 2.5400                 3.3102
 Frc consts  --      0.0704                 0.1703                 0.2387
 IR Inten    --     59.7353                24.9729                 5.2172

                     10                     11                     12
                      A                      A                      A
 Frequencies --    374.2184               394.3546               421.7064
 Red. masses --      2.0800                 2.5014                 1.7969
 Frc consts  --      0.1716                 0.2292                 0.1883
 IR Inten    --      5.1115                 1.9210                24.9055

                     13                     14                     15
                      A                      A                      A
 Frequencies --    486.5687               518.2797               521.9886
 Red. masses --      2.0586                 2.0488                 1.9077
 Frc consts  --      0.2872                 0.3243                 0.3063
 IR Inten    --     66.8809                19.0767                59.1652

                     16                     17                     18
                      A                      A                      A
 Frequencies --    551.2879               593.9773               690.9652
 Red. masses --      3.0654                 1.9763                 3.5382
 Frc consts  --      0.5489                 0.4108                 0.9953
 IR Inten    --     24.3404               112.6522                 8.3785

                     19                     20                     21
                      A                      A                      A
 Frequencies --    854.6460               925.1473               941.0569
 Red. masses --      2.7769                 2.0120                 1.6281
 Frc consts  --      1.1950                 1.0146                 0.8495
 IR Inten    --      7.0048                17.9321                10.6524

                     22                     23                     24
                      A                      A                      A
 Frequencies --    945.6459               982.3785              1014.4960
 Red. masses --      1.9021                 2.1183                 1.3425
 Frc consts  --      1.0022                 1.2045                 0.8141
 IR Inten    --     42.8905                51.9991                 2.4797

                     25                     26                     27
                      A                      A                      A
 Frequencies --   1062.7139              1108.7228              1144.4541
 Red. masses --      1.6805                 1.8736                 1.9269
 Frc consts  --      1.1182                 1.3570                 1.4870
 IR Inten    --     57.5617                66.8335               157.1955

                     28                     29                     30
                      A                      A                      A
 Frequencies --   1197.4596              1223.7384              1241.3135
 Red. masses --      2.3651                 2.4338                 2.6447
 Frc consts  --      1.9981                 2.1474                 2.4009
 IR Inten    --     40.1902                64.0977                 8.8329

                     31                     32                     33
                      A                      A                      A
 Frequencies --   1344.4425              1371.9622              1403.3470
 Red. masses --      1.5830                 1.4208                 1.3497
 Frc consts  --      1.6858                 1.5757                 1.5661
 IR Inten    --     23.9198                21.3326                30.4878

                     34                     35                     36
                      A                      A                      A
 Frequencies --   1417.3177              1428.6153              1430.8851
 Red. masses --      1.4994                 1.4394                 1.4822
 Frc consts  --      1.7746                 1.7309                 1.7879
 IR Inten    --     54.4735                33.7938                28.8130

                     37                     38                     39
                      A                      A                      A
 Frequencies --   1493.5521              1496.9664              1507.8598
 Red. masses --      1.0535                 1.0520                 1.0451
 Frc consts  --      1.3846                 1.3890                 1.4000
 IR Inten    --      0.6027                 1.0340                 1.7260

                     40                     41                     42
                      A                      A                      A
 Frequencies --   1515.4703              1516.4553              1531.6169
 Red. masses --      1.0911                 1.0531                 1.0661
 Frc consts  --      1.4764                 1.4269                 1.4735
 IR Inten    --      8.6106                 5.6585                 1.0708

                     43                     44                     45
                      A                      A                      A
 Frequencies --   3045.4489              3062.3738              3064.9021
 Red. masses --      1.0402                 1.0369                 1.0378
 Frc consts  --      5.6840                 5.7295                 5.7438
 IR Inten    --     28.0799                15.3588                 7.9805

                     46                     47                     48
                      A                      A                      A
 Frequencies --   3115.3455              3134.2584              3140.8804
 Red. masses --      1.0953                 1.1021                 1.0992
 Frc consts  --      6.2633                 6.3786                 6.3890
 IR Inten    --     26.8342                27.0637                10.2456

                     49                     50                     51
                      A                      A                      A
 Frequencies --   3147.4254              3152.1834              3166.7208
 Red. masses --      1.1033                 1.1030                 1.1034
 Frc consts  --      6.4398                 6.4571                 6.5191
 IR Inten    --     10.1106                27.0242                 8.6115

                     52                     53                     54
                      A                      A                      A
 Frequencies --   3760.4644              3795.2774              3799.2265
 Red. masses --      1.0650                 1.0659                 1.0650
 Frc consts  --      8.8732                 9.0462                 9.0574
 IR Inten    --     29.6943                15.7956                17.6044

 - Thermochemistry -
 -------------------
 Temperature   298.150 Kelvin.  Pressure   1.00000 Atm.
 Atom     1 has atomic number  6 and mass  12.00000

 Molecular mass:   120.07864 amu.
 Principal axes and moments of inertia in atomic units:
                           1         2         3
     Eigenvalues --   726.792901009.071171030.11226
           X            0.99637   0.07738   0.03550
           Y           -0.06919   0.97899  -0.19180
           Z           -0.04959   0.18864   0.98079
 This molecule is an asymmetric top.
 Rotational symmetry number  1.
 Warning -- assumption of classical behavior for rotation
           may cause significant error
 Rotational temperatures (Kelvin)      0.11917     0.08584     0.08408
 Rotational constants (GHZ):           2.48316     1.78852     1.75198
 Zero-point vibrational energy     456857.5 (Joules/Mol)
                                  109.19156 (Kcal/Mol)
 Warning -- explicit consideration of  17 degrees of freedom as
           vibrations may cause significant error
 Vibrational temperatures:    139.11   291.86   336.58   348.47   390.50
          (Kelvin)            412.59   462.51   485.33   503.37   538.42
                              567.39   606.74   700.06   745.69   751.02
                              793.18   854.60   994.14  1229.64  1331.08
                             1353.97  1360.57  1413.42  1459.63  1529.01
                             1595.20  1646.61  1722.88  1760.68  1785.97
                             1934.35  1973.95  2019.10  2039.20  2055.46
                             2058.72  2148.89  2153.80  2169.47  2180.42
                             2181.84  2203.65  4381.72  4406.07  4409.71
                             4482.28  4509.49  4519.02  4528.44  4535.28
                             4556.20  5410.46  5460.55  5466.23

 Zero-point correction=                           0.174008 (Hartree/Particle)
 Thermal correction to Energy=                    0.183703
 Thermal correction to Enthalpy=                  0.184648
 Thermal correction to Gibbs Free Energy=         0.141044
 Sum of electronic and zero-point Energies=           -423.275385
 Sum of electronic and thermal Energies=              -423.265689
 Sum of electronic and thermal Enthalpies=            -423.264745
 Sum of electronic and thermal Free Energies=         -423.308348

                     E (Thermal)             CV                S
                      KCal/Mol        Cal/Mol-Kelvin    Cal/Mol-Kelvin
 Total                  115.276             37.853             91.771
 Electronic               0.000              0.000              0.000
 Translational            0.889              2.981             40.263
 Rotational               0.889              2.981             28.115
 Vibrational            113.498             31.892             23.392
 Vibration     1          0.603              1.952              3.520
 Vibration     2          0.639              1.836              2.107
 Vibration     3          0.654              1.789              1.849
 Vibration     4          0.658              1.776              1.787
 Vibration     5          0.675              1.726              1.587
 Vibration     6          0.684              1.698              1.493
 Vibration     7          0.707              1.632              1.303
 Vibration     8          0.718              1.601              1.225
 Vibration     9          0.727              1.576              1.167
 Vibration    10          0.745              1.525              1.062
 Vibration    11          0.761              1.482              0.984
 Vibration    12          0.784              1.423              0.886
 Vibration    13          0.843              1.280              0.693
 Vibration    14          0.873              1.210              0.614
 Vibration    15          0.877              1.201              0.605
 Vibration    16          0.907              1.137              0.542
 Vibration    17          0.952              1.045              0.460

 Normal termination of Gaussian 09 at Thu Sep  8 14:49:42 2022.
