 Gaussian 09, Revision E.01,
 Gaussian 09:  ES64L-G09RevE.01 30-Nov-2015

 ----------------------------
 #P OPT Freq B3LYP/6-31G(d,p)
 ----------------------------

 ---------
 Frag_1031
 ---------
 Symbolic Z-matrix:
 Charge =  0 Multiplicity = 1

 SCF Done:  E(RB3LYP) =  -359.222122336     A.U. after   14 cycles
 SCF Done:  E(RB3LYP) =  -359.222194171     A.U. after   11 cycles
 SCF Done:  E(RB3LYP) =  -359.222179758     A.U. after   11 cycles
 SCF Done:  E(RB3LYP) =  -359.222202048     A.U. after   11 cycles
 SCF Done:  E(RB3LYP) =  -359.222210710     A.U. after    9 cycles
 SCF Done:  E(RB3LYP) =  -359.222212862     A.U. after    8 cycles
 SCF Done:  E(RB3LYP) =  -359.222215457     A.U. after    9 cycles
 SCF Done:  E(RB3LYP) =  -359.222217444     A.U. after    9 cycles
 SCF Done:  E(RB3LYP) =  -359.222218740     A.U. after    8 cycles
 SCF Done:  E(RB3LYP) =  -359.222219879     A.U. after    8 cycles
 SCF Done:  E(RB3LYP) =  -359.222220072     A.U. after    7 cycles
 Optimization completed.
    -- Stationary point found.
 Normal termination of Gaussian 09 at Thu Sep  8 14:55:04 2022.

 ----------------------------------------------------------------------
 #P Geom=AllCheck Guess=TCheck SCRF=Check GenChk RB3LYP/6-31G(d,p) Freq
 ----------------------------------------------------------------------

 Structure from the checkpoint file:  "B3LYP6-31Gdp.Frag_1031.chk"
 ---------
 Frag_1031
 ---------
 Charge =  0 Multiplicity = 1

                         Standard orientation:
 ---------------------------------------------------------------------
 Center     Atomic      Atomic             Coordinates (Angstroms)
 Number     Number       Type             X           Y           Z
 ---------------------------------------------------------------------
      1          6           0       -1.113767   -0.312300    1.367121
      2          6           0       -0.570497    0.084657   -0.020035
      3          7           0       -0.928044   -1.016783   -0.957227
      4          7           0       -1.043175    1.414009   -0.356120
      5          6           0        0.970114    0.081493    0.020984
      6          7           0        1.641086    1.156197    0.089227
      7          8           0        1.499740   -1.164424   -0.007887
      8          1           0       -0.791608    0.426296    2.101860
      9          1           0       -0.765193   -1.303879    1.668669
     10          1           0       -2.209903   -0.315221    1.346402
     11          1           0       -0.825446   -0.700298   -1.919728
     12          1           0       -1.897646   -1.294288   -0.827995
     13          1           0       -1.949341    1.387085   -0.810055
     14          1           0       -0.367641    1.916200   -0.922313
     15          1           0        2.641098    0.939346    0.107009
     16          1           0        0.763594   -1.736901   -0.320340
 ---------------------------------------------------------------------

 SCF Done:  E(RB3LYP) =  -359.222220072     A.U. after    1 cycles

 The electronic state is 1-A.
 Alpha  occ. eigenvalues --  -19.16849 -14.34240 -14.31192 -14.29718 -10.27096
 Alpha  occ. eigenvalues --  -10.26222 -10.18194  -1.06217  -0.93188  -0.87807
 Alpha  occ. eigenvalues --   -0.84320  -0.73475  -0.64324  -0.56601  -0.53569
 Alpha  occ. eigenvalues --   -0.50286  -0.49746  -0.46760  -0.44811  -0.41858
 Alpha  occ. eigenvalues --   -0.38532  -0.38325  -0.36656  -0.33957  -0.30133
 Alpha  occ. eigenvalues --   -0.27088  -0.26115  -0.22885
 Alpha virt. eigenvalues --    0.02888   0.06110   0.11064   0.12136   0.13033
 Alpha virt. eigenvalues --    0.14496   0.15826   0.16015   0.18067   0.18738
 Alpha virt. eigenvalues --    0.21935   0.24433   0.26297   0.26998   0.32497

 Mulliken charges:
               1
     1  C   -0.279414
     2  C    0.182499
     3  N   -0.624330
     4  N   -0.584715
     5  C    0.513240
     6  N   -0.571159
     7  O   -0.525138
     8  H    0.142972
     9  H    0.105800
    10  H    0.095799
    11  H    0.245461
    12  H    0.246961
    13  H    0.225629
    14  H    0.259371
    15  H    0.230759
    16  H    0.336265
 Sum of Mulliken charges =  -0.00000

 Dipole moment (field-independent basis, Debye):
    X=             -2.7160    Y=             -1.6939    Z=             -1.9869  Tot=              3.7674
 Quadrupole moment (field-independent basis, Debye-Ang):
   XX=            -39.1337   YY=            -47.0850   ZZ=            -39.2490
   XY=              1.3764   XZ=              2.2469   YZ=             -2.0736

  Exact polarizability:  62.252   5.298  58.224   1.334  -0.574  45.228
 Approx polarizability:  83.309   9.321  92.080   2.457   0.285  60.904

                      1                      2                      3
                      A                      A                      A
 Frequencies --     84.0158               157.9673               238.7274
 Red. masses --      5.2809                 1.0718                 2.3119
 Frc consts  --      0.0220                 0.0158                 0.0776
 IR Inten    --      3.2764                53.1688                 0.5522

                      4                      5                      6
                      A                      A                      A
 Frequencies --    251.1964               319.2680               347.0582
 Red. masses --      1.1955                 3.1846                 1.4075
 Frc consts  --      0.0444                 0.1913                 0.0999
 IR Inten    --      0.3410                 4.7220                23.9934

                      7                      8                      9
                      A                      A                      A
 Frequencies --    386.4888               398.9560               445.0972
 Red. masses --      3.1703                 2.0026                 2.6028
 Frc consts  --      0.2790                 0.1878                 0.3038
 IR Inten    --      2.6750                 5.3878                 2.9015

                     10                     11                     12
                      A                      A                      A
 Frequencies --    543.3281               567.8514               707.9600
 Red. masses --      3.9950                 2.8998                 1.5425
 Frc consts  --      0.6949                 0.5509                 0.4555
 IR Inten    --     11.6203                29.6808               169.9844

                     13                     14                     15
                      A                      A                      A
 Frequencies --    715.0592               729.5032               783.7583
 Red. masses --      3.0295                 3.4867                 1.1328
 Frc consts  --      0.9126                 1.0932                 0.4100
 IR Inten    --     38.8468                29.5822               111.9031

                     16                     17                     18
                      A                      A                      A
 Frequencies --    852.7945               909.3422               935.5054
 Red. masses --      1.9696                 1.4056                 1.5804
 Frc consts  --      0.8439                 0.6848                 0.8149
 IR Inten    --     85.0910                38.7154                42.3375

                     19                     20                     21
                      A                      A                      A
 Frequencies --    974.1271              1028.3115              1110.2965
 Red. masses --      1.6306                 1.4093                 2.6367
 Frc consts  --      0.9116                 0.8780                 1.9151
 IR Inten    --      2.9926                10.7961                35.2268

                     22                     23                     24
                      A                      A                      A
 Frequencies --   1141.0716              1173.6125              1262.5548
 Red. masses --      1.5401                 2.3475                 1.6908
 Frc consts  --      1.1815                 1.9051                 1.5879
 IR Inten    --     14.5640                65.3196                37.0527

                     25                     26                     27
                      A                      A                      A
 Frequencies --   1295.7679              1378.3103              1411.4010
 Red. masses --      1.8157                 1.6725                 1.2783
 Frc consts  --      1.7962                 1.8720                 1.5003
 IR Inten    --     86.8494                55.6238                19.5502

                     28                     29                     30
                      A                      A                      A
 Frequencies --   1440.7606              1498.0332              1510.7468
 Red. masses --      2.0364                 1.0525                 1.0858
 Frc consts  --      2.4905                 1.3916                 1.4601
 IR Inten    --    243.3587                 1.1500                12.3685

                     31                     32                     33
                      A                      A                      A
 Frequencies --   1628.6100              1658.5689              1788.8493
 Red. masses --      1.1165                 1.1013                 6.7183
 Frc consts  --      1.7448                 1.7850                12.6665
 IR Inten    --     49.9096                26.0127               175.9998

                     34                     35                     36
                      A                      A                      A
 Frequencies --   3047.1324              3121.2547              3166.1349
 Red. masses --      1.0400                 1.0987                 1.1019
 Frc consts  --      5.6892                 6.3063                 6.5083
 IR Inten    --     20.6598                23.3978                 9.2491

                     37                     38                     39
                      A                      A                      A
 Frequencies --   3473.3679              3488.8584              3520.4308
 Red. masses --      1.0739                 1.0495                 1.0588
 Frc consts  --      7.6334                 7.5264                 7.7312
 IR Inten    --      1.2425                 4.6017               118.5127

                     40                     41                     42
                      A                      A                      A
 Frequencies --   3524.5852              3582.6273              3633.3230
 Red. masses --      1.0525                 1.0938                 1.0969
 Frc consts  --      7.7038                 8.2715                 8.5319
 IR Inten    --     99.5874                 1.2930                 7.3579

 - Thermochemistry -
 -------------------
 Temperature   298.150 Kelvin.  Pressure   1.00000 Atm.
 Atom     1 has atomic number  6 and mass  12.00000

 Molecular mass:   103.07456 amu.
 Principal axes and moments of inertia in atomic units:
                           1         2         3
     Eigenvalues --   536.20369 732.59895 895.82668
           X            0.99922   0.03847  -0.00890
           Y           -0.03875   0.99869  -0.03351
           Z            0.00760   0.03383   0.99940
 This molecule is an asymmetric top.
 Rotational symmetry number  1.
 Warning -- assumption of classical behavior for rotation
           may cause significant error
 Rotational temperatures (Kelvin)      0.16153     0.11823     0.09669
 Rotational constants (GHZ):           3.36578     2.46348     2.01461
 Zero-point vibrational energy     360271.0 (Joules/Mol)
                                   86.10684 (Kcal/Mol)
 Warning -- explicit consideration of  11 degrees of freedom as
           vibrations may cause significant error
 Vibrational temperatures:    120.88   227.28   343.48   361.42   459.35
          (Kelvin)            499.34   556.07   574.01   640.39   781.73
                              817.01  1018.60  1028.81  1049.59  1127.65
                             1226.98  1308.34  1345.98  1401.55  1479.51
                             1597.47  1641.75  1688.56  1816.53  1864.32
                             1983.08  2030.69  2072.93  2155.33  2173.62
                             2343.20  2386.31  2573.75  4384.14  4490.78
                             4555.36  4997.40  5019.68  5065.11  5071.09
                             5154.60  5227.53

 Zero-point correction=                           0.137220 (Hartree/Particle)
 Thermal correction to Energy=                    0.145234
 Thermal correction to Enthalpy=                  0.146179
 Thermal correction to Gibbs Free Energy=         0.105593
 Sum of electronic and zero-point Energies=           -359.085000
 Sum of electronic and thermal Energies=              -359.076986
 Sum of electronic and thermal Enthalpies=            -359.076041
 Sum of electronic and thermal Free Energies=         -359.116627

                     E (Thermal)             CV                S
                      KCal/Mol        Cal/Mol-Kelvin    Cal/Mol-Kelvin
 Total                   91.136             30.133             85.419
 Electronic               0.000              0.000              0.000
 Translational            0.889              2.981             39.808
 Rotational               0.889              2.981             27.356
 Vibrational             89.359             24.171             18.255
 Vibration     1          0.601              1.960              3.795
 Vibration     2          0.621              1.894              2.574
 Vibration     3          0.657              1.781              1.812
 Vibration     4          0.663              1.761              1.722
 Vibration     5          0.705              1.637              1.314
 Vibration     6          0.725              1.581              1.180
 Vibration     7          0.755              1.499              1.014
 Vibration     8          0.765              1.472              0.966
 Vibration     9          0.804              1.372              0.811
 Vibration    10          0.898              1.154              0.558
 Vibration    11          0.924              1.101              0.508

 Optimization completed.
    -- Stationary point found.
 Normal termination of Gaussian 09 at Thu Sep  8 14:55:19 2022.
