 Gaussian 09, Revision E.01,
 Gaussian 09:  ES64L-G09RevE.01 30-Nov-2015

 ----------------------------
 #P OPT Freq B3LYP/6-31G(d,p)
 ----------------------------

 ---------
 Frag_1146
 ---------
 Symbolic Z-matrix:
 Charge =  0 Multiplicity = 1

 SCF Done:  E(RB3LYP) =  -248.500348556     A.U. after   14 cycles
 SCF Done:  E(RB3LYP) =  -248.500383779     A.U. after   12 cycles
 SCF Done:  E(RB3LYP) =  -248.499917247     A.U. after   13 cycles
 SCF Done:  E(RB3LYP) =  -248.500430304     A.U. after    7 cycles
 SCF Done:  E(RB3LYP) =  -248.500449936     A.U. after    9 cycles
 SCF Done:  E(RB3LYP) =  -248.500452968     A.U. after    8 cycles
 SCF Done:  E(RB3LYP) =  -248.500457840     A.U. after   10 cycles
 SCF Done:  E(RB3LYP) =  -248.500459811     A.U. after    8 cycles
 SCF Done:  E(RB3LYP) =  -248.500460054     A.U. after    7 cycles
 Optimization completed.
    -- Stationary point found.
 Normal termination of Gaussian 09 at Thu Sep  8 14:54:33 2022.

 ----------------------------------------------------------------------
 #P Geom=AllCheck Guess=TCheck SCRF=Check GenChk RB3LYP/6-31G(d,p) Freq
 ----------------------------------------------------------------------

 Structure from the checkpoint file:  "B3LYP6-31Gdp.Frag_1146.chk"
 ---------
 Frag_1146
 ---------
 Charge =  0 Multiplicity = 1

                         Standard orientation:
 ---------------------------------------------------------------------
 Center     Atomic      Atomic             Coordinates (Angstroms)
 Number     Number       Type             X           Y           Z
 ---------------------------------------------------------------------
      1          6           0        1.616619   -0.713603   -0.225805
      2          6           0        0.433073    0.057448    0.378803
      3          7           0        0.342489    1.406930   -0.155136
      4          6           0       -0.870124   -0.681721    0.134497
      5          8           0       -1.903185   -0.141581   -0.196369
      6          1           0        1.530202   -0.741068   -1.315382
      7          1           0        2.557353   -0.215563    0.024965
      8          1           0        1.664891   -1.738596    0.158781
      9          1           0        0.544070    0.017708    1.483782
     10          1           0       -0.626768    1.714598   -0.117824
     11          1           0        0.906399    2.053254    0.386620
     12          1           0       -0.825499   -1.778948    0.310991
 ---------------------------------------------------------------------

 SCF Done:  E(RB3LYP) =  -248.500460054     A.U. after    1 cycles

 The electronic state is 1-A.
 Alpha  occ. eigenvalues --  -19.15811 -14.31346 -10.28081 -10.23022 -10.18683
 Alpha  occ. eigenvalues --   -1.05372  -0.88893  -0.75505  -0.65701  -0.56284
 Alpha  occ. eigenvalues --   -0.51442  -0.48027  -0.45156  -0.42557  -0.40137
 Alpha  occ. eigenvalues --   -0.38548  -0.37360  -0.36258  -0.26108  -0.23937
 Alpha virt. eigenvalues --   -0.02813   0.08338   0.11754   0.13818   0.13906
 Alpha virt. eigenvalues --    0.15945   0.16805   0.19258   0.21465   0.24203
 Alpha virt. eigenvalues --    0.28046   0.32920   0.50238   0.53852   0.55202

 Mulliken charges:
               1
     1  C   -0.304603
     2  C   -0.009372
     3  N   -0.601814
     4  C    0.308099
     5  O   -0.401774
     6  H    0.129292
     7  H    0.112864
     8  H    0.097698
     9  H    0.100745
    10  H    0.257131
    11  H    0.239722
    12  H    0.072011
 Sum of Mulliken charges =  -0.00000

 Dipole moment (field-independent basis, Debye):
    X=              1.9104    Y=             -0.4593    Z=              1.8666  Tot=              2.7101
 Quadrupole moment (field-independent basis, Debye-Ang):
   XX=            -34.9324   YY=            -27.6647   ZZ=            -31.0460
   XY=             -0.0289   XZ=              0.1527   YZ=              2.0225

  Exact polarizability:  47.020  -1.485  45.193   2.606  -1.562  32.241
 Approx polarizability:  67.162  -4.912  60.564   7.086  -4.007  46.761

                      1                      2                      3
                      A                      A                      A
 Frequencies --    132.5035               211.3044               240.8488
 Red. masses --      2.7698                 1.0923                 1.0555
 Frc consts  --      0.0287                 0.0287                 0.0361
 IR Inten    --      7.0652                45.9654                 0.8080

                      4                      5                      6
                      A                      A                      A
 Frequencies --    298.7391               355.5882               455.6011
 Red. masses --      4.2294                 2.5258                 2.3214
 Frc consts  --      0.2224                 0.1882                 0.2839
 IR Inten    --      6.1015                 0.8771                10.2223

                      7                      8                      9
                      A                      A                      A
 Frequencies --    644.8693               796.1822               875.4332
 Red. masses --      3.6573                 2.2716                 1.5344
 Frc consts  --      0.8961                 0.8484                 0.6928
 IR Inten    --     12.5578               108.4297                65.6397

                     10                     11                     12
                      A                      A                      A
 Frequencies --    912.4422               941.7656              1052.5406
 Red. masses --      1.2467                 1.9449                 1.6383
 Frc consts  --      0.6115                 1.0163                 1.0693
 IR Inten    --      4.2164                13.5977                 2.8748

                     13                     14                     15
                      A                      A                      A
 Frequencies --   1126.1690              1176.6708              1227.4593
 Red. masses --      2.0490                 1.6672                 1.4049
 Frc consts  --      1.5311                 1.3600                 1.2471
 IR Inten    --      7.7223                 4.1733                 3.9292

                     16                     17                     18
                      A                      A                      A
 Frequencies --   1339.2153              1390.8404              1415.5763
 Red. masses --      1.4119                 1.5962                 1.2662
 Frc consts  --      1.4919                 1.8193                 1.4949
 IR Inten    --      4.6085                 8.6386                 8.2577

                     19                     20                     21
                      A                      A                      A
 Frequencies --   1427.8765              1503.9120              1516.2629
 Red. masses --      1.2438                 1.0650                 1.0507
 Frc consts  --      1.4941                 1.4193                 1.4232
 IR Inten    --      2.3948                 5.4764                 3.6016

                     22                     23                     24
                      A                      A                      A
 Frequencies --   1643.9273              1825.6998              2885.5420
 Red. masses --      1.1117                 9.2682                 1.0788
 Frc consts  --      1.7701                18.2014                 5.2925
 IR Inten    --     51.3564               146.6829                41.7929

                     25                     26                     27
                      A                      A                      A
 Frequencies --   2914.6264              3047.0439              3120.4488
 Red. masses --      1.0853                 1.0363                 1.1007
 Frc consts  --      5.4318                 5.6688                 6.3145
 IR Inten    --    113.4151                22.6708                26.4105

                     28                     29                     30
                      A                      A                      A
 Frequencies --   3138.0751              3502.2444              3602.3237
 Red. masses --      1.1039                 1.0499                 1.0929
 Frc consts  --      6.4049                 7.5874                 8.3561
 IR Inten    --     18.2981                 6.0569                 5.5919

 - Thermochemistry -
 -------------------
 Temperature   298.150 Kelvin.  Pressure   1.00000 Atm.
 Atom     1 has atomic number  6 and mass  12.00000

 Molecular mass:    73.05276 amu.
 Principal axes and moments of inertia in atomic units:
                           1         2         3
     Eigenvalues --   219.47491 441.40162 605.68557
           X            0.99927  -0.03768  -0.00619
           Y            0.03778   0.99915   0.01647
           Z            0.00556  -0.01669   0.99985
 This molecule is an asymmetric top.
 Rotational symmetry number  1.
 Rotational temperatures (Kelvin)      0.39464     0.19622     0.14300
 Rotational constants (GHZ):           8.22300     4.08866     2.97967
 Zero-point vibrational energy     267495.4 (Joules/Mol)
                                   63.93293 (Kcal/Mol)
 Warning -- explicit consideration of   6 degrees of freedom as
           vibrations may cause significant error
 Vibrational temperatures:    190.64   304.02   346.53   429.82   511.61
          (Kelvin)            655.51   927.82  1145.53  1259.55  1312.80
                             1354.99  1514.37  1620.30  1692.96  1766.04
                             1926.83  2001.11  2036.70  2054.39  2163.79
                             2181.56  2365.24  2626.77  4151.65  4193.49
                             4384.01  4489.62  4514.98  5038.94  5182.93

 Zero-point correction=                           0.101884 (Hartree/Particle)
 Thermal correction to Energy=                    0.107972
 Thermal correction to Enthalpy=                  0.108917
 Thermal correction to Gibbs Free Energy=         0.072923
 Sum of electronic and zero-point Energies=           -248.398576
 Sum of electronic and thermal Energies=              -248.392488
 Sum of electronic and thermal Enthalpies=            -248.391543
 Sum of electronic and thermal Free Energies=         -248.427537

                     E (Thermal)             CV                S
                      KCal/Mol        Cal/Mol-Kelvin    Cal/Mol-Kelvin
 Total                   67.754             20.770             75.756
 Electronic               0.000              0.000              0.000
 Translational            0.889              2.981             38.782
 Rotational               0.889              2.981             25.576
 Vibrational             65.976             14.808             11.397
 Vibration     1          0.613              1.921              2.909
 Vibration     2          0.643              1.824              2.032
 Vibration     3          0.658              1.778              1.797
 Vibration     4          0.692              1.676              1.424
 Vibration     5          0.731              1.564              1.141
 Vibration     6          0.814              1.349              0.779

 Optimization completed.
    -- Stationary point found.
 Normal termination of Gaussian 09 at Thu Sep  8 14:54:42 2022.
