 Gaussian 09, Revision E.01,
 Gaussian 09:  ES64L-G09RevE.01 30-Nov-2015

 ----------------------------
 #P OPT Freq B3LYP/6-31G(d,p)
 ----------------------------

 --------
 Frag_607
 --------
 Symbolic Z-matrix:
 Charge =  0 Multiplicity = 1

 SCF Done:  E(RB3LYP) =  -247.286944042     A.U. after   14 cycles
 SCF Done:  E(RB3LYP) =  -247.287061401     A.U. after   12 cycles
 SCF Done:  E(RB3LYP) =  -247.287059018     A.U. after   12 cycles
 SCF Done:  E(RB3LYP) =  -247.287058012     A.U. after   12 cycles
 SCF Done:  E(RB3LYP) =  -247.287086518     A.U. after    8 cycles
 SCF Done:  E(RB3LYP) =  -247.287109413     A.U. after   12 cycles
 SCF Done:  E(RB3LYP) =  -247.287116045     A.U. after   12 cycles
 SCF Done:  E(RB3LYP) =  -247.287119219     A.U. after    9 cycles
 SCF Done:  E(RB3LYP) =  -247.287120310     A.U. after    8 cycles
 SCF Done:  E(RB3LYP) =  -247.287120496     A.U. after    8 cycles
 SCF Done:  E(RB3LYP) =  -247.287120574     A.U. after    7 cycles
 SCF Done:  E(RB3LYP) =  -247.287120662     A.U. after    8 cycles
 Optimization completed.
    -- Stationary point found.
 Normal termination of Gaussian 09 at Thu Sep  8 14:59:11 2022.

 ----------------------------------------------------------------------
 #P Geom=AllCheck Guess=TCheck SCRF=Check GenChk RB3LYP/6-31G(d,p) Freq
 ----------------------------------------------------------------------

 Structure from the checkpoint file:  "B3LYP6-31Gdp.Frag_607.chk"
 --------
 Frag_607
 --------
 Charge =  0 Multiplicity = 1

                         Standard orientation:
 ---------------------------------------------------------------------
 Center     Atomic      Atomic             Coordinates (Angstroms)
 Number     Number       Type             X           Y           Z
 ---------------------------------------------------------------------
      1          6           0       -1.853751   -0.201243    0.214480
      2          7           0       -0.788594   -0.519619   -0.399831
      3          6           0        0.406135    0.182655   -0.073574
      4          6           0        1.589137   -0.730605    0.147702
      5          8           0        0.465253    1.395746   -0.057873
      6          1           0       -2.791390   -0.690718   -0.053319
      7          1           0       -1.885803    0.553143    1.009809
      8          1           0        2.443964   -0.148603    0.492399
      9          1           0        1.343413   -1.512767    0.873141
     10          1           0        1.838824   -1.234538   -0.791875
 ---------------------------------------------------------------------

 SCF Done:  E(RB3LYP) =  -247.287120662     A.U. after    1 cycles

 The electronic state is 1-A.
 Alpha  occ. eigenvalues --  -19.14158 -14.35529 -10.30021 -10.25666 -10.19542
 Alpha  occ. eigenvalues --   -1.05256  -0.93070  -0.75636  -0.66261  -0.54880
 Alpha  occ. eigenvalues --   -0.49383  -0.47384  -0.44983  -0.42853  -0.40458
 Alpha  occ. eigenvalues --   -0.36646  -0.33541  -0.30140  -0.25235
 Alpha virt. eigenvalues --   -0.05265   0.01734   0.11122   0.11822   0.15208
 Alpha virt. eigenvalues --    0.16120   0.17260   0.21909   0.25102   0.33794
 Alpha virt. eigenvalues --    0.35529   0.50397   0.53037   0.55486   0.57828

 Mulliken charges:
               1
     1  C   -0.001378
     2  N   -0.341101
     3  C    0.489340
     4  C   -0.375251
     5  O   -0.431204
     6  H    0.121559
     7  H    0.119584
     8  H    0.138987
     9  H    0.130121
    10  H    0.149343
 Sum of Mulliken charges =  -0.00000

 Dipole moment (field-independent basis, Debye):
    X=             -0.7587    Y=             -1.8595    Z=              1.1768  Tot=              2.3277
 Quadrupole moment (field-independent basis, Debye-Ang):
   XX=            -23.5369   YY=            -33.5929   ZZ=            -29.0984
   XY=             -2.0218   XZ=             -1.5080   YZ=             -0.3959

  Exact polarizability:  53.354   0.894  37.855  -3.046   3.337  28.164
 Approx polarizability:  69.118   2.407  62.381  -6.947   6.655  42.068

                      1                      2                      3
                      A                      A                      A
 Frequencies --     85.4535               111.7310               277.9977
 Red. masses --      2.9938                 1.0789                 3.0671
 Frc consts  --      0.0129                 0.0079                 0.1397
 IR Inten    --     14.8473                 0.0482                11.9027

                      4                      5                      6
                      A                      A                      A
 Frequencies --    376.6049               500.5915               634.2995
 Red. masses --      2.1864                 2.5833                 2.5279
 Frc consts  --      0.1827                 0.3814                 0.5992
 IR Inten    --      1.8216                10.8194                 3.3521

                      7                      8                      9
                      A                      A                      A
 Frequencies --    737.9491               824.7108              1002.5998
 Red. masses --      2.0074                 2.6530                 1.8348
 Frc consts  --      0.6441                 1.0631                 1.0866
 IR Inten    --     15.0435                13.6000                29.4243

                     10                     11                     12
                      A                      A                      A
 Frequencies --   1063.6179              1091.5123              1220.0810
 Red. masses --      1.8699                 1.3652                 1.9331
 Frc consts  --      1.2464                 0.9583                 1.6954
 IR Inten    --      3.5559                16.8244                62.3476

                     13                     14                     15
                      A                      A                      A
 Frequencies --   1231.2566              1400.0354              1477.9228
 Red. masses --      2.1908                 1.3151                 1.0497
 Frc consts  --      1.9568                 1.5187                 1.3509
 IR Inten    --    125.5343                31.6486                13.4957

                     16                     17                     18
                      A                      A                      A
 Frequencies --   1485.5452              1511.6165              1735.4593
 Red. masses --      1.0529                 1.1647                 6.7406
 Frc consts  --      1.3690                 1.5681                11.9613
 IR Inten    --      8.3487                31.3838               108.0607

                     19                     20                     21
                      A                      A                      A
 Frequencies --   1805.2502              3053.7945              3057.5163
 Red. masses --      9.9727                 1.0586                 1.0367
 Frc consts  --     19.1485                 5.8164                 5.7098
 IR Inten    --    174.3008                28.6887                 1.9282

                     22                     23                     24
                      A                      A                      A
 Frequencies --   3121.6580              3165.1093              3173.9999
 Red. masses --      1.0999                 1.1138                 1.1038
 Frc consts  --      6.3148                 6.5741                 6.5515
 IR Inten    --      6.2741                24.1989                 7.5831

 - Thermochemistry -
 -------------------
 Temperature   298.150 Kelvin.  Pressure   1.00000 Atm.
 Atom     1 has atomic number  6 and mass  12.00000

 Molecular mass:    71.03711 amu.
 Principal axes and moments of inertia in atomic units:
                           1         2         3
     Eigenvalues --   186.89079 408.55368 553.97155
           X            0.99810  -0.06111  -0.00802
           Y            0.06114   0.99812   0.00349
           Z            0.00779  -0.00397   0.99996
 This molecule is an asymmetric top.
 Rotational symmetry number  1.
 Rotational temperatures (Kelvin)      0.46345     0.21200     0.15635
 Rotational constants (GHZ):           9.65666     4.41739     3.25782
 Zero-point vibrational energy     204240.3 (Joules/Mol)
                                   48.81460 (Kcal/Mol)
 Warning -- explicit consideration of   5 degrees of freedom as
           vibrations may cause significant error
 Vibrational temperatures:    122.95   160.76   399.98   541.85   720.24
          (Kelvin)            912.61  1061.74  1186.57  1442.52  1530.31
                             1570.44  1755.42  1771.50  2014.34  2126.40
                             2137.37  2174.88  2496.94  2597.35  4393.72
                             4399.08  4491.36  4553.88  4566.67

 Zero-point correction=                           0.077791 (Hartree/Particle)
 Thermal correction to Energy=                    0.083563
 Thermal correction to Enthalpy=                  0.084507
 Thermal correction to Gibbs Free Energy=         0.048674
 Sum of electronic and zero-point Energies=           -247.209330
 Sum of electronic and thermal Energies=              -247.203558
 Sum of electronic and thermal Enthalpies=            -247.202614
 Sum of electronic and thermal Free Energies=         -247.238447

                     E (Thermal)             CV                S
                      KCal/Mol        Cal/Mol-Kelvin    Cal/Mol-Kelvin
 Total                   52.436             18.420             75.418
 Electronic               0.000              0.000              0.000
 Translational            0.889              2.981             38.699
 Rotational               0.889              2.981             25.251
 Vibrational             50.659             12.458             11.468
 Vibration     1          0.601              1.959              3.762
 Vibration     2          0.607              1.940              3.239
 Vibration     3          0.679              1.714              1.546
 Vibration     4          0.747              1.520              1.053
 Vibration     5          0.856              1.249              0.657

 Optimization completed.
    -- Stationary point found.
 Normal termination of Gaussian 09 at Thu Sep  8 14:59:18 2022.
