 Gaussian 09, Revision E.01,
 Gaussian 09:  ES64L-G09RevE.01 30-Nov-2015

 ----------------------------
 #P OPT Freq B3LYP/6-31G(d,p)
 ----------------------------

 --------
 Frag_890
 --------
 Symbolic Z-matrix:
 Charge =  0 Multiplicity = 1

 SCF Done:  E(RB3LYP) =  -241.164980643     A.U. after   14 cycles
 SCF Done:  E(RB3LYP) =  -241.165073376     A.U. after   10 cycles
 SCF Done:  E(RB3LYP) =  -241.165048586     A.U. after   11 cycles
 SCF Done:  E(RB3LYP) =  -241.165084221     A.U. after   10 cycles
 SCF Done:  E(RB3LYP) =  -241.165086249     A.U. after    9 cycles
 SCF Done:  E(RB3LYP) =  -241.165086376     A.U. after    8 cycles
 Optimization completed.
    -- Stationary point found.
 Normal termination of Gaussian 09 at Thu Sep  8 15:24:25 2022.

 ----------------------------------------------------------------------
 #P Geom=AllCheck Guess=TCheck SCRF=Check GenChk RB3LYP/6-31G(d,p) Freq
 ----------------------------------------------------------------------

 Structure from the checkpoint file:  "B3LYP6-31Gdp.Frag_890.chk"
 --------
 Frag_890
 --------
 Charge =  0 Multiplicity = 1

                         Standard orientation:
 ---------------------------------------------------------------------
 Center     Atomic      Atomic             Coordinates (Angstroms)
 Number     Number       Type             X           Y           Z
 ---------------------------------------------------------------------
      1          7           0       -1.112921   -0.758657    0.007981
      2          7           0       -0.144002    0.061402   -0.002053
      3          7           0        1.200841   -0.427163   -0.110056
      4          8           0       -0.253254    1.290425    0.018925
      5          1           0       -0.711686   -1.694435   -0.103488
      6          1           0        1.786658    0.382312    0.078822
      7          1           0        1.343643   -1.140350    0.602159
 ---------------------------------------------------------------------

 SCF Done:  E(RB3LYP) =  -241.165086376     A.U. after    1 cycles

 The electronic state is 1-A.
 Alpha  occ. eigenvalues --  -19.16476 -14.56693 -14.40499 -14.36584  -1.19268
 Alpha  occ. eigenvalues --   -0.98596  -0.92508  -0.65357  -0.59472  -0.55124
 Alpha  occ. eigenvalues --   -0.51507  -0.48351  -0.33135  -0.31999  -0.28668
 Alpha  occ. eigenvalues --   -0.27203
 Alpha virt. eigenvalues --   -0.04175   0.04848   0.08610   0.11315   0.14717
 Alpha virt. eigenvalues --    0.29368   0.34353   0.57083   0.61157   0.61974
 Alpha virt. eigenvalues --    0.64645   0.68259   0.70530   0.74032   0.78627

 Mulliken charges:
               1
     1  N   -0.311525
     2  N    0.343083
     3  N   -0.420861
     4  O   -0.420996
     5  H    0.243568
     6  H    0.289380
     7  H    0.277351
 Sum of Mulliken charges =  -0.00000

 Dipole moment (field-independent basis, Debye):
    X=              3.2552    Y=             -2.5758    Z=              1.2071  Tot=              4.3230
 Quadrupole moment (field-independent basis, Debye-Ang):
   XX=            -23.4436   YY=            -22.2585   ZZ=            -23.3014
   XY=              0.5915   XZ=              2.3934   YZ=             -1.2430

  Exact polarizability:  31.672   3.197  35.693   0.495  -0.592  12.893
 Approx polarizability:  49.617  11.384  71.120  -0.502  -0.858  18.068

                      1                      2                      3
                      A                      A                      A
 Frequencies --    262.2177               540.9377               627.1801
 Red. masses --      1.1028                 3.0273                 6.5092
 Frc consts  --      0.0447                 0.5219                 1.5086
 IR Inten    --     48.5330                 3.6132                16.6645

                      4                      5                      6
                      A                      A                      A
 Frequencies --    673.7915               773.1340               831.5891
 Red. masses --      3.6849                 1.2586                 3.2500
 Frc consts  --      0.9856                 0.4432                 1.3242
 IR Inten    --     33.3898                97.9564               139.6890

                      7                      8                      9
                      A                      A                      A
 Frequencies --   1007.9350              1244.9486              1275.3792
 Red. masses --      1.8406                 1.3054                 2.4215
 Frc consts  --      1.1017                 1.1920                 2.3207
 IR Inten    --     57.1185                35.2911                99.5222

                     10                     11                     12
                      A                      A                      A
 Frequencies --   1449.2074              1628.6078              1728.1956
 Red. masses --      2.3151                 1.1192                 3.9065
 Frc consts  --      2.8647                 1.7489                 6.8742
 IR Inten    --    212.3469                44.8057               164.2199

                     13                     14                     15
                      A                      A                      A
 Frequencies --   3446.7612              3490.4073              3610.8243
 Red. masses --      1.0742                 1.0471                 1.0981
 Frc consts  --      7.5188                 7.5161                 8.4357
 IR Inten    --      2.2748                14.5938                25.2485

 - Thermochemistry -
 -------------------
 Temperature   298.150 Kelvin.  Pressure   1.00000 Atm.
 Atom     1 has atomic number  7 and mass  14.00307

 Molecular mass:    61.02761 amu.
 Principal axes and moments of inertia in atomic units:
                           1         2         3
     Eigenvalues --   150.20079 160.26585 306.73269
           X            0.99513   0.09572   0.02364
           Y           -0.09545   0.99536  -0.01204
           Z           -0.02468   0.00972   0.99965
 This molecule is an asymmetric top.
 Rotational symmetry number  1.
 Rotational temperatures (Kelvin)      0.57665     0.54044     0.28238
 Rotational constants (GHZ):          12.01552    11.26092     5.88376
 Zero-point vibrational energy     135124.9 (Joules/Mol)
                                   32.29562 (Kcal/Mol)
 Warning -- explicit consideration of   2 degrees of freedom as
           vibrations may cause significant error
 Vibrational temperatures:    377.27   778.29   902.37   969.43  1112.37
          (Kelvin)           1196.47  1450.19  1791.20  1834.98  2085.08
                             2343.20  2486.48  4959.11  5021.91  5195.16

 Zero-point correction=                           0.051466 (Hartree/Particle)
 Thermal correction to Energy=                    0.055462
 Thermal correction to Enthalpy=                  0.056407
 Thermal correction to Gibbs Free Energy=         0.025375
 Sum of electronic and zero-point Energies=           -241.113620
 Sum of electronic and thermal Energies=              -241.109624
 Sum of electronic and thermal Enthalpies=            -241.108680
 Sum of electronic and thermal Free Energies=         -241.139711

                     E (Thermal)             CV                S
                      KCal/Mol        Cal/Mol-Kelvin    Cal/Mol-Kelvin
 Total                   34.803             12.891             65.311
 Electronic               0.000              0.000              0.000
 Translational            0.889              2.981             38.246
 Rotational               0.889              2.981             23.517
 Vibrational             33.026              6.929              3.549
 Vibration     1          0.670              1.742              1.647
 Vibration     2          0.896              1.160              0.563

 Normal termination of Gaussian 09 at Thu Sep  8 15:24:31 2022.
