 Gaussian 09, Revision E.01,
 Gaussian 09:  ES64L-G09RevE.01 30-Nov-2015

 ----------------------------
 #P OPT Freq B3LYP/6-31G(d,p)
 ----------------------------

 --------
 Frag_948
 --------
 Symbolic Z-matrix:
 Charge =  0 Multiplicity = 1

 SCF Done:  E(RB3LYP) =  -459.354002425     A.U. after   12 cycles
 SCF Done:  E(RB3LYP) =  -459.354069540     A.U. after   10 cycles
 SCF Done:  E(RB3LYP) =  -459.354087261     A.U. after   10 cycles
 SCF Done:  E(RB3LYP) =  -459.354110300     A.U. after   10 cycles
 SCF Done:  E(RB3LYP) =  -459.354112642     A.U. after    7 cycles
 SCF Done:  E(RB3LYP) =  -459.354113763     A.U. after    7 cycles
 SCF Done:  E(RB3LYP) =  -459.354113923     A.U. after    7 cycles
 Optimization completed.
    -- Stationary point found.
 Normal termination of Gaussian 09 at Thu Sep  8 15:22:54 2022.

 ----------------------------------------------------------------------
 #P Geom=AllCheck Guess=TCheck SCRF=Check GenChk RB3LYP/6-31G(d,p) Freq
 ----------------------------------------------------------------------

 Structure from the checkpoint file:  "B3LYP6-31Gdp.Frag_948.chk"
 --------
 Frag_948
 --------
 Charge =  0 Multiplicity = 1

                         Standard orientation:
 ---------------------------------------------------------------------
 Center     Atomic      Atomic             Coordinates (Angstroms)
 Number     Number       Type             X           Y           Z
 ---------------------------------------------------------------------
      1          6           0        1.457398   -1.011350    0.875057
      2          6           0        0.785421    0.000184   -0.044735
      3          8           0        1.283615    1.277727    0.318834
      4          8           0        1.087907   -0.250972   -1.405639
      5          6           0       -0.785392    0.000155    0.044745
      6          6           0       -1.457326   -1.011465   -0.874977
      7          8           0       -1.087909   -0.250839    1.405650
      8          8           0       -1.283612    1.277698   -0.318972
      9          1           0        1.103115   -2.020881    0.656000
     10          1           0        1.248081   -0.781672    1.919250
     11          1           0        2.540298   -0.973328    0.715430
     12          1           0        0.980739    1.867643   -0.389163
     13          1           0        2.052628   -0.238218   -1.478967
     14          1           0       -2.540230   -0.973491   -0.715344
     15          1           0       -1.102973   -2.020967   -0.655899
     16          1           0       -1.248038   -0.781814   -1.919180
     17          1           0       -2.052647   -0.238829    1.478865
     18          1           0       -0.981578    1.867504    0.389471
 ---------------------------------------------------------------------

 SCF Done:  E(RB3LYP) =  -459.354113923     A.U. after    1 cycles

 The electronic state is 1-A.
 Alpha  occ. eigenvalues --  -19.15303 -19.15300 -19.15100 -19.15098 -10.28803
 Alpha  occ. eigenvalues --  -10.28787 -10.17372 -10.17371  -1.07984  -1.05079
 Alpha  occ. eigenvalues --   -0.99503  -0.98847  -0.76140  -0.72719  -0.64660
 Alpha  occ. eigenvalues --   -0.57782  -0.54839  -0.54781  -0.47520  -0.44739
 Alpha  occ. eigenvalues --   -0.42929  -0.42530  -0.41856  -0.40193  -0.38894
 Alpha  occ. eigenvalues --   -0.37888  -0.36831  -0.35028  -0.31718  -0.31077
 Alpha  occ. eigenvalues --   -0.30183  -0.27738  -0.26984
 Alpha virt. eigenvalues --    0.06585   0.08380   0.09303   0.13039   0.13166
 Alpha virt. eigenvalues --    0.14617   0.16437   0.17075   0.17197   0.20628
 Alpha virt. eigenvalues --    0.21211   0.23579   0.24702   0.25731   0.27938

 Mulliken charges:
               1
     1  C   -0.302723
     2  C    0.448189
     3  O   -0.552510
     4  O   -0.545165
     5  C    0.448164
     6  C   -0.302745
     7  O   -0.545154
     8  O   -0.552516
     9  H    0.111688
    10  H    0.140476
    11  H    0.093059
    12  H    0.301431
    13  H    0.305551
    14  H    0.093051
    15  H    0.111702
    16  H    0.140501
    17  H    0.305560
    18  H    0.301441
 Sum of Mulliken charges =  -0.00000

 Dipole moment (field-independent basis, Debye):
    X=             -0.0015    Y=             -0.2766    Z=              0.0007  Tot=              0.2766
 Quadrupole moment (field-independent basis, Debye-Ang):
   XX=            -42.5241   YY=            -45.4166   ZZ=            -50.7036
   XY=              0.0002   XZ=             -5.3613   YZ=             -0.0004

  Exact polarizability:  61.639   0.001  55.455  -0.533   0.000  53.859
 Approx polarizability:  79.828   0.001  76.639  -0.499   0.001  77.902

                      1                      2                      3
                      A                      A                      A
 Frequencies --     66.9447               149.3207               219.6989
 Red. masses --      4.6924                 1.1899                 1.1993
 Frc consts  --      0.0124                 0.0156                 0.0341
 IR Inten    --      0.2945               158.8024                 0.0018

                      4                      5                      6
                      A                      A                      A
 Frequencies --    242.7481               281.8476               286.8037
 Red. masses --      1.0368                 2.4854                 3.8389
 Frc consts  --      0.0360                 0.1163                 0.1860
 IR Inten    --      1.4045                 1.1751                20.9555

                      7                      8                      9
                      A                      A                      A
 Frequencies --    344.1993               344.2417               362.4791
 Red. masses --      2.1098                 1.4185                 2.7357
 Frc consts  --      0.1473                 0.0990                 0.2118
 IR Inten    --     11.3872                70.3559                70.0670

                     10                     11                     12
                      A                      A                      A
 Frequencies --    383.3666               399.2896               461.5060
 Red. masses --      3.4703                 1.7987                 1.8312
 Frc consts  --      0.3005                 0.1690                 0.2298
 IR Inten    --      3.0115                16.2196                39.3955

                     13                     14                     15
                      A                      A                      A
 Frequencies --    462.5215               555.0011               565.8879
 Red. masses --      3.6977                 4.1107                 3.7789
 Frc consts  --      0.4661                 0.7460                 0.7130
 IR Inten    --     46.3485                53.8235                12.1010

                     16                     17                     18
                      A                      A                      A
 Frequencies --    598.0983               682.0155               715.6550
 Red. masses --      3.1183                 1.2358                 2.5897
 Frc consts  --      0.6572                 0.3387                 0.7815
 IR Inten    --     91.8946                 9.1202                 0.6331

                     19                     20                     21
                      A                      A                      A
 Frequencies --    899.4575               940.4320               952.3286
 Red. masses --      3.1514                 1.9336                 2.0819
 Frc consts  --      1.5021                 1.0075                 1.1125
 IR Inten    --     47.8678                 0.1873                65.8079

                     22                     23                     24
                      A                      A                      A
 Frequencies --    959.6940              1058.8261              1081.0149
 Red. masses --      2.0422                 1.7131                 1.7410
 Frc consts  --      1.1082                 1.1316                 1.1987
 IR Inten    --     46.4526                 1.6759                89.5997

                     25                     26                     27
                      A                      A                      A
 Frequencies --   1095.0767              1165.6289              1188.7530
 Red. masses --      1.8938                 2.0470                 2.7777
 Frc consts  --      1.3380                 1.6387                 2.3127
 IR Inten    --    246.2184               118.5338                55.0332

                     28                     29                     30
                      A                      A                      A
 Frequencies --   1210.5718              1340.5356              1368.1188
 Red. masses --      3.0758                 1.4726                 1.5174
 Frc consts  --      2.6558                 1.5592                 1.6734
 IR Inten    --     44.9689                82.9417                12.4454

                     31                     32                     33
                      A                      A                      A
 Frequencies --   1373.9177              1422.6303              1432.7721
 Red. masses --      1.4755                 1.4551                 1.5011
 Frc consts  --      1.6410                 1.7352                 1.8156
 IR Inten    --     55.8436                31.0999                64.5909

                     34                     35                     36
                      A                      A                      A
 Frequencies --   1441.0152              1492.5676              1494.3822
 Red. masses --      1.7025                 1.0509                 1.0569
 Frc consts  --      2.0829                 1.3793                 1.3906
 IR Inten    --      2.8791                 1.6601                 0.8393

                     37                     38                     39
                      A                      A                      A
 Frequencies --   1507.0458              1518.6568              3058.7820
 Red. masses --      1.0491                 1.1279                 1.0412
 Frc consts  --      1.4039                 1.5326                 5.7397
 IR Inten    --      8.9886                 0.0413                29.2628

                     40                     41                     42
                      A                      A                      A
 Frequencies --   3060.3072              3135.0207              3137.5018
 Red. masses --      1.0418                 1.0986                 1.0974
 Frc consts  --      5.7487                 6.3615                 6.3649
 IR Inten    --      6.9337                31.7827                12.0131

                     43                     44                     45
                      A                      A                      A
 Frequencies --   3176.4921              3177.1203              3765.5403
 Red. masses --      1.1011                 1.1016                 1.0646
 Frc consts  --      6.5462                 6.5518                 8.8936
 IR Inten    --     10.9620                 5.5781                26.1296

                     46                     47                     48
                      A                      A                      A
 Frequencies --   3767.2800              3799.0234              3800.3844
 Red. masses --      1.0649                 1.0656                 1.0657
 Frc consts  --      8.9044                 9.0616                 9.0685
 IR Inten    --     16.4848                 0.0294                34.8955

 - Thermochemistry -
 -------------------
 Temperature   298.150 Kelvin.  Pressure   1.00000 Atm.
 Atom     1 has atomic number  6 and mass  12.00000

 Molecular mass:   122.05791 amu.
 Principal axes and moments of inertia in atomic units:
                           1         2         3
     Eigenvalues --   699.847981009.342601015.25899
           X            0.99940   0.03466  -0.00000
           Y           -0.00000   0.00016   1.00000
           Z           -0.03466   0.99940  -0.00016
 This molecule is an asymmetric top.
 Rotational symmetry number  1.
 Warning -- assumption of classical behavior for rotation
           may cause significant error
 Rotational temperatures (Kelvin)      0.12376     0.08581     0.08531
 Rotational constants (GHZ):           2.57876     1.78804     1.77762
 Zero-point vibrational energy     394423.8 (Joules/Mol)
                                   94.26954 (Kcal/Mol)
 Warning -- explicit consideration of  16 degrees of freedom as
           vibrations may cause significant error
 Vibrational temperatures:     96.32   214.84   316.10   349.26   405.52
          (Kelvin)            412.65   495.23   495.29   521.53   551.58
                              574.49   664.00   665.46   798.52   814.19
                              860.53   981.27  1029.67  1294.12  1353.07
                             1370.19  1380.78  1523.41  1555.34  1575.57
                             1677.08  1710.35  1741.74  1928.73  1968.42
                             1976.76  2046.85  2061.44  2073.30  2147.47
                             2150.08  2168.30  2185.01  4400.90  4403.09
                             4510.59  4514.16  4570.26  4571.16  5417.77
                             5420.27  5465.94  5467.90

 Zero-point correction=                           0.150228 (Hartree/Particle)
 Thermal correction to Energy=                    0.159780
 Thermal correction to Enthalpy=                  0.160725
 Thermal correction to Gibbs Free Energy=         0.116939
 Sum of electronic and zero-point Energies=           -459.203886
 Sum of electronic and thermal Energies=              -459.194334
 Sum of electronic and thermal Enthalpies=            -459.193389
 Sum of electronic and thermal Free Energies=         -459.237175

                     E (Thermal)             CV                S
                      KCal/Mol        Cal/Mol-Kelvin    Cal/Mol-Kelvin
 Total                  100.264             36.414             92.155
 Electronic               0.000              0.000              0.000
 Translational            0.889              2.981             40.312
 Rotational               0.889              2.981             28.063
 Vibrational             98.486             30.453             23.780
 Vibration     1          0.598              1.970              4.241
 Vibration     2          0.618              1.903              2.681
 Vibration     3          0.647              1.811              1.962
 Vibration     4          0.659              1.775              1.783
 Vibration     5          0.681              1.707              1.522
 Vibration     6          0.684              1.698              1.493
 Vibration     7          0.723              1.587              1.193
 Vibration     8          0.723              1.587              1.192
 Vibration     9          0.736              1.550              1.111
 Vibration    10          0.753              1.506              1.026
 Vibration    11          0.765              1.472              0.965
 Vibration    12          0.819              1.335              0.762
 Vibration    13          0.820              1.333              0.759
 Vibration    14          0.910              1.129              0.534
 Vibration    15          0.922              1.105              0.512
 Vibration    16          0.956              1.036              0.453

 Optimization completed.
    -- Stationary point found.
 Normal termination of Gaussian 09 at Thu Sep  8 15:23:13 2022.
