 Gaussian 09, Revision E.01,
 Gaussian 09:  ES64L-G09RevE.01 30-Nov-2015

 ----------------------------
 #P OPT Freq B3LYP/6-31G(d,p)
 ----------------------------

 --------
 Frag_512
 --------
 Symbolic Z-matrix:
 Charge =  0 Multiplicity = 1

 SCF Done:  E(RB3LYP) =  -328.297233720     A.U. after   13 cycles
 SCF Done:  E(RB3LYP) =  -328.297279772     A.U. after   10 cycles
 SCF Done:  E(RB3LYP) =  -328.297287020     A.U. after   10 cycles
 SCF Done:  E(RB3LYP) =  -328.297290253     A.U. after    9 cycles
 SCF Done:  E(RB3LYP) =  -328.297290639     A.U. after    7 cycles
 SCF Done:  E(RB3LYP) =  -328.297290907     A.U. after    6 cycles
 Optimization completed.
    -- Stationary point found.
 Normal termination of Gaussian 09 at Thu Sep  8 14:55:26 2022.

 ----------------------------------------------------------------------
 #P Geom=AllCheck Guess=TCheck SCRF=Check GenChk RB3LYP/6-31G(d,p) Freq
 ----------------------------------------------------------------------

 Structure from the checkpoint file:  "B3LYP6-31Gdp.Frag_512.chk"
 --------
 Frag_512
 --------
 Charge =  0 Multiplicity = 1

                         Standard orientation:
 ---------------------------------------------------------------------
 Center     Atomic      Atomic             Coordinates (Angstroms)
 Number     Number       Type             X           Y           Z
 ---------------------------------------------------------------------
      1          6           0       -1.690306    1.046335   -0.058107
      2          7           0       -0.804710   -0.032965   -0.491506
      3          8           0       -1.401681   -1.239753    0.061004
      4          6           0        0.604325    0.036253    0.006726
      5          6           0        1.237129    1.318929   -0.562275
      6          6           0        1.339722   -1.180700   -0.581069
      7          6           0        0.707214    0.017618    1.544173
      8          1           0       -1.796446    1.124900    1.033534
      9          1           0       -2.678832    0.859824   -0.483873
     10          1           0       -1.324023    1.996508   -0.453032
     11          1           0       -1.565488   -1.765329   -0.733656
     12          1           0        2.316527    1.305905   -0.383443
     13          1           0        0.839998    2.223130   -0.092024
     14          1           0        1.069485    1.385727   -1.641812
     15          1           0        0.920400   -2.112286   -0.195099
     16          1           0        1.255139   -1.185510   -1.672677
     17          1           0        2.401480   -1.148832   -0.317745
     18          1           0        0.263042    0.911478    1.993112
     19          1           0        1.757010   -0.016397    1.853177
     20          1           0        0.199627   -0.860948    1.949363
 ---------------------------------------------------------------------

 SCF Done:  E(RB3LYP) =  -328.297290907     A.U. after    1 cycles

 The electronic state is 1-A.
 Alpha  occ. eigenvalues --  -19.16088 -14.36447 -10.21784 -10.19643 -10.17321
 Alpha  occ. eigenvalues --  -10.16595 -10.16454  -1.04336  -0.85442  -0.77052
 Alpha  occ. eigenvalues --   -0.68353  -0.67997  -0.64938  -0.54029  -0.49186
 Alpha  occ. eigenvalues --   -0.47243  -0.44896  -0.42829  -0.41590  -0.39712
 Alpha  occ. eigenvalues --   -0.39299  -0.37684  -0.37119  -0.35830  -0.35104
 Alpha  occ. eigenvalues --   -0.32860  -0.32191  -0.27716  -0.21816
 Alpha virt. eigenvalues --    0.07376   0.09186   0.12167   0.13390   0.13992
 Alpha virt. eigenvalues --    0.14455   0.16117   0.16704   0.17598   0.19094
 Alpha virt. eigenvalues --    0.19951   0.19975   0.21056   0.22075   0.22752

 Mulliken charges:
               1
     1  C   -0.135562
     2  N   -0.247622
     3  O   -0.441938
     4  C    0.192198
     5  C   -0.316316
     6  C   -0.310180
     7  C   -0.312282
     8  H    0.097019
     9  H    0.109453
    10  H    0.107289
    11  H    0.324415
    12  H    0.102903
    13  H    0.100273
    14  H    0.111438
    15  H    0.108923
    16  H    0.100030
    17  H    0.094910
    18  H    0.094372
    19  H    0.095317
    20  H    0.125360
 Sum of Mulliken charges =  -0.00000

 Dipole moment (field-independent basis, Debye):
    X=              0.2643    Y=              0.3242    Z=             -0.5553  Tot=              0.6952
 Quadrupole moment (field-independent basis, Debye-Ang):
   XX=            -44.4235   YY=            -43.0796   ZZ=            -46.1956
   XY=              0.0488   XZ=              1.7087   YZ=              2.1825

  Exact polarizability:  69.636  -0.005  67.498   0.331   1.018  60.544
 Approx polarizability:  91.438   3.075  93.998   0.419   0.686  85.519

                      1                      2                      3
                      A                      A                      A
 Frequencies --     92.0950               200.4766               245.7664
 Red. masses --      2.5570                 1.0428                 1.2015
 Frc consts  --      0.0128                 0.0247                 0.0428
 IR Inten    --      0.5996                 0.0984                 1.2837

                      4                      5                      6
                      A                      A                      A
 Frequencies --    250.0606               262.5802               294.7797
 Red. masses --      1.2942                 1.2079                 1.9729
 Frc consts  --      0.0477                 0.0491                 0.1010
 IR Inten    --      0.3458                 3.4605                 0.6980

                      7                      8                      9
                      A                      A                      A
 Frequencies --    308.4164               329.3822               358.9712
 Red. masses --      1.9213                 1.1244                 2.5782
 Frc consts  --      0.1077                 0.0719                 0.1957
 IR Inten    --      5.5708                89.5455                 4.0094

                     10                     11                     12
                      A                      A                      A
 Frequencies --    378.8655               397.9183               471.3110
 Red. masses --      2.2751                 2.1033                 2.5215
 Frc consts  --      0.1924                 0.1962                 0.3300
 IR Inten    --      3.3721                 0.5193                 2.3399

                     13                     14                     15
                      A                      A                      A
 Frequencies --    499.7930               535.6259               702.8284
 Red. masses --      2.9829                 3.1030                 3.8431
 Frc consts  --      0.4390                 0.5245                 1.1185
 IR Inten    --      0.6345                10.7367                 5.8890

                     16                     17                     18
                      A                      A                      A
 Frequencies --    822.7691               912.0013               925.6157
 Red. masses --      2.8762                 3.1511                 1.7422
 Frc consts  --      1.1471                 1.5442                 0.8795
 IR Inten    --      7.4617                22.1228                 1.6249

                     19                     20                     21
                      A                      A                      A
 Frequencies --    935.2274               963.4502              1028.4071
 Red. masses --      1.6390                 1.2060                 1.6079
 Frc consts  --      0.8446                 0.6596                 1.0019
 IR Inten    --      0.0711                 0.0731                 5.3351

                     22                     23                     24
                      A                      A                      A
 Frequencies --   1046.6247              1110.7479              1152.4643
 Red. masses --      1.3877                 2.6461                 1.3463
 Frc consts  --      0.8956                 1.9235                 1.0535
 IR Inten    --      1.5839                16.2913                 6.6504

                     25                     26                     27
                      A                      A                      A
 Frequencies --   1194.2640              1258.8235              1265.0569
 Red. masses --      1.8147                 2.6007                 2.6038
 Frc consts  --      1.5250                 2.4281                 2.4551
 IR Inten    --     11.6868                24.3091                20.8366

                     28                     29                     30
                      A                      A                      A
 Frequencies --   1278.8809              1342.8233              1403.4044
 Red. masses --      3.0049                 1.2229                 1.2710
 Frc consts  --      2.8956                 1.2992                 1.4749
 IR Inten    --      8.8194                44.1936                12.0687

                     31                     32                     33
                      A                      A                      A
 Frequencies --   1406.0468              1433.0423              1453.9107
 Red. masses --      1.2698                 1.2303                 1.1766
 Frc consts  --      1.4790                 1.4886                 1.4653
 IR Inten    --      8.4128                 7.6682                 0.1725

                     34                     35                     36
                      A                      A                      A
 Frequencies --   1487.2549              1496.9358              1503.5433
 Red. masses --      1.0493                 1.0484                 1.0475
 Frc consts  --      1.3675                 1.3841                 1.3952
 IR Inten    --      1.0462                 6.7024                 0.8126

                     37                     38                     39
                      A                      A                      A
 Frequencies --   1508.7476              1512.7560              1523.0284
 Red. masses --      1.0537                 1.0466                 1.0544
 Frc consts  --      1.4132                 1.4111                 1.4410
 IR Inten    --      3.5402                 2.9880                 2.8557

                     40                     41                     42
                      A                      A                      A
 Frequencies --   1528.3939              1540.7261              3013.3702
 Red. masses --      1.0523                 1.0569                 1.0487
 Frc consts  --      1.4483                 1.4782                 5.6106
 IR Inten    --      0.6176                 6.1747                41.5255

                     43                     44                     45
                      A                      A                      A
 Frequencies --   3047.3465              3048.8914              3056.0268
 Red. masses --      1.0353                 1.0356                 1.0369
 Frc consts  --      5.6645                 5.6720                 5.7054
 IR Inten    --     20.7769                27.6308                11.1823

                     46                     47                     48
                      A                      A                      A
 Frequencies --   3106.2603              3114.2953              3118.2506
 Red. masses --      1.0868                 1.1009                 1.1026
 Frc consts  --      6.1784                 6.2911                 6.3166
 IR Inten    --     32.3723                13.6423                 4.0525

                     49                     50                     51
                      A                      A                      A
 Frequencies --   3124.1856              3127.4506              3139.9139
 Red. masses --      1.1017                 1.1027                 1.1018
 Frc consts  --      6.3358                 6.3544                 6.4000
 IR Inten    --     59.2600                36.6335                 4.1538

                     52                     53                     54
                      A                      A                      A
 Frequencies --   3143.7074              3146.5879              3807.1959
 Red. masses --      1.1012                 1.1022                 1.0682
 Frc consts  --      6.4122                 6.4296                 9.1229
 IR Inten    --     22.3017                30.6938                32.0145

 - Thermochemistry -
 -------------------
 Temperature   298.150 Kelvin.  Pressure   1.00000 Atm.
 Atom     1 has atomic number  6 and mass  12.00000

 Molecular mass:   103.09971 amu.
 Principal axes and moments of inertia in atomic units:
                           1         2         3
     Eigenvalues --   574.20709 777.66236 929.78618
           X            0.99771  -0.06749  -0.00473
           Y            0.06759   0.99741   0.02467
           Z            0.00305  -0.02493   0.99968
 This molecule is an asymmetric top.
 Rotational symmetry number  1.
 Warning -- assumption of classical behavior for rotation
           may cause significant error
 Rotational temperatures (Kelvin)      0.15084     0.11138     0.09315
 Rotational constants (GHZ):           3.14301     2.32073     1.94103
 Zero-point vibrational energy     474662.1 (Joules/Mol)
                                  113.44695 (Kcal/Mol)
 Warning -- explicit consideration of  14 degrees of freedom as
           vibrations may cause significant error
 Vibrational temperatures:    132.50   288.44   353.60   359.78   377.79
          (Kelvin)            424.12   443.74   473.91   516.48   545.10
                              572.51   678.11   719.09   770.65  1011.21
                             1183.78  1312.16  1331.75  1345.58  1386.19
                             1479.65  1505.86  1598.12  1658.14  1718.28
                             1811.16  1820.13  1840.02  1932.02  2019.18
                             2022.99  2061.83  2091.85  2139.83  2153.75
                             2163.26  2170.75  2176.52  2191.30  2199.02
                             2216.76  4335.56  4384.45  4386.67  4396.94
                             4469.21  4480.77  4486.46  4495.00  4499.70
                             4517.63  4523.09  4527.23  5477.70

 Zero-point correction=                           0.180789 (Hartree/Particle)
 Thermal correction to Energy=                    0.189875
 Thermal correction to Enthalpy=                  0.190819
 Thermal correction to Gibbs Free Energy=         0.148550
 Sum of electronic and zero-point Energies=           -328.116502
 Sum of electronic and thermal Energies=              -328.107416
 Sum of electronic and thermal Enthalpies=            -328.106472
 Sum of electronic and thermal Free Energies=         -328.148741

                     E (Thermal)             CV                S
                      KCal/Mol        Cal/Mol-Kelvin    Cal/Mol-Kelvin
 Total                  119.148             34.512             88.962
 Electronic               0.000              0.000              0.000
 Translational            0.889              2.981             39.809
 Rotational               0.889              2.981             27.520
 Vibrational            117.371             28.551             21.633
 Vibration     1          0.602              1.955              3.615
 Vibration     2          0.638              1.839              2.129
 Vibration     3          0.660              1.770              1.761
 Vibration     4          0.663              1.763              1.730
 Vibration     5          0.670              1.741              1.645
 Vibration     6          0.689              1.683              1.446
 Vibration     7          0.698              1.658              1.371
 Vibration     8          0.712              1.617              1.263
 Vibration     9          0.734              1.557              1.127
 Vibration    10          0.749              1.515              1.044
 Vibration    11          0.764              1.475              0.970
 Vibration    12          0.828              1.314              0.734
 Vibration    13          0.855              1.250              0.659
 Vibration    14          0.891              1.171              0.575

 Optimization completed.
    -- Stationary point found.
 Normal termination of Gaussian 09 at Thu Sep  8 14:55:47 2022.
