 Gaussian 09, Revision E.01,
 Gaussian 09:  ES64L-G09RevE.01 30-Nov-2015

 ----------------------------
 #P OPT Freq B3LYP/6-31G(d,p)
 ----------------------------

 ---------
 Frag_1014
 ---------
 Symbolic Z-matrix:
 Charge =  0 Multiplicity = 1

 SCF Done:  E(RB3LYP) =  -305.399588639     A.U. after   13 cycles
 SCF Done:  E(RB3LYP) =  -305.399685852     A.U. after   10 cycles
 SCF Done:  E(RB3LYP) =  -305.399701738     A.U. after    9 cycles
 SCF Done:  E(RB3LYP) =  -305.399704775     A.U. after    8 cycles
 SCF Done:  E(RB3LYP) =  -305.399705613     A.U. after    8 cycles
 SCF Done:  E(RB3LYP) =  -305.399706176     A.U. after    8 cycles
 SCF Done:  E(RB3LYP) =  -305.399706286     A.U. after    7 cycles
 Optimization completed.
    -- Stationary point found.
 Normal termination of Gaussian 09 at Thu Sep  8 14:49:45 2022.

 ----------------------------------------------------------------------
 #P Geom=AllCheck Guess=TCheck SCRF=Check GenChk RB3LYP/6-31G(d,p) Freq
 ----------------------------------------------------------------------

 Structure from the checkpoint file:  "B3LYP6-31Gdp.Frag_1014.chk"
 ---------
 Frag_1014
 ---------
 Charge =  0 Multiplicity = 1

                         Standard orientation:
 ---------------------------------------------------------------------
 Center     Atomic      Atomic             Coordinates (Angstroms)
 Number     Number       Type             X           Y           Z
 ---------------------------------------------------------------------
      1          6           0        0.657236    1.379313   -0.093144
      2          6           0        0.433929   -0.058355    0.345265
      3          8           0        1.510672   -0.898063    0.068528
      4          8           0       -0.682392   -0.652299   -0.350932
      5          8           0       -1.872052    0.095704    0.031100
      6          1           0        0.848508    1.412804   -1.172005
      7          1           0       -0.226296    1.985513    0.115195
      8          1           0        1.516465    1.801859    0.435127
      9          1           0        0.251583   -0.126451    1.425005
     10          1           0        1.740685   -0.782250   -0.864960
     11          1           0       -2.327766   -0.579963    0.559347
 ---------------------------------------------------------------------

 SCF Done:  E(RB3LYP) =  -305.399706286     A.U. after    1 cycles

 The electronic state is 1-A.
 Alpha  occ. eigenvalues --  -19.20269 -19.19905 -19.16388 -10.28822 -10.18108
 Alpha  occ. eigenvalues --   -1.11677  -1.04350  -0.89604  -0.74014  -0.63084
 Alpha  occ. eigenvalues --   -0.52765  -0.50925  -0.48351  -0.45502  -0.40642
 Alpha  occ. eigenvalues --   -0.39417  -0.37268  -0.35760  -0.31637  -0.28723
 Alpha  occ. eigenvalues --   -0.26415
 Alpha virt. eigenvalues --    0.02466   0.07883   0.08725   0.13505   0.14364
 Alpha virt. eigenvalues --    0.15823   0.17490   0.19955   0.24308   0.28168
 Alpha virt. eigenvalues --    0.51529   0.55539   0.56264   0.57612   0.61844

 Mulliken charges:
               1
     1  C   -0.335555
     2  C    0.403635
     3  O   -0.517332
     4  O   -0.314000
     5  O   -0.330615
     6  H    0.103487
     7  H    0.135742
     8  H    0.115254
     9  H    0.091570
    10  H    0.312162
    11  H    0.335652
 Sum of Mulliken charges =  -0.00000

 Dipole moment (field-independent basis, Debye):
    X=             -0.0070    Y=              0.6007    Z=              0.4284  Tot=              0.7379
 Quadrupole moment (field-independent basis, Debye-Ang):
   XX=            -27.5837   YY=            -30.9739   ZZ=            -27.7723
   XY=              3.3412   XZ=             -5.5457   YZ=              0.1916

  Exact polarizability:  42.382  -0.933  31.984  -3.225  -0.051  31.027
 Approx polarizability:  57.312  -5.658  43.226  -4.358   1.218  43.739

                      1                      2                      3
                      A                      A                      A
 Frequencies --    118.1551               240.8596               252.2399
 Red. masses --      4.3690                 1.1188                 1.2352
 Frc consts  --      0.0359                 0.0382                 0.0463
 IR Inten    --      8.5386                94.0921                 6.2475

                      4                      5                      6
                      A                      A                      A
 Frequencies --    281.9062               350.7988               435.5572
 Red. masses --      1.9046                 1.4582                 2.7786
 Frc consts  --      0.0892                 0.1057                 0.3106
 IR Inten    --     32.7990                74.3759                47.2032

                      7                      8                      9
                      A                      A                      A
 Frequencies --    482.9219               530.1784               859.0152
 Red. masses --      4.1849                 3.0462                 2.5275
 Frc consts  --      0.5750                 0.5045                 1.0989
 IR Inten    --     13.2530                 8.4469                 9.0144

                     10                     11                     12
                      A                      A                      A
 Frequencies --    942.4246               946.9458              1080.4922
 Red. masses --      8.7015                 2.4823                 1.5409
 Frc consts  --      4.5534                 1.3115                 1.0599
 IR Inten    --     17.5188                18.9200                59.3607

                     13                     14                     15
                      A                      A                      A
 Frequencies --   1114.4943              1171.3144              1334.7445
 Red. masses --      2.2227                 2.5941                 1.5762
 Frc consts  --      1.6266                 2.0970                 1.6545
 IR Inten    --     84.0883               116.4678                 5.5606

                     16                     17                     18
                      A                      A                      A
 Frequencies --   1357.2553              1384.7636              1411.6589
 Red. masses --      1.1439                 1.2071                 1.2216
 Frc consts  --      1.2415                 1.3638                 1.4343
 IR Inten    --      7.4052                70.4975                23.1971

                     19                     20                     21
                      A                      A                      A
 Frequencies --   1439.2229              1494.2871              1513.5895
 Red. masses --      1.3818                 1.0564                 1.0513
 Frc consts  --      1.6863                 1.3898                 1.4190
 IR Inten    --     85.2640                 0.5902                 8.3985

                     22                     23                     24
                      A                      A                      A
 Frequencies --   3048.8906              3055.9855              3126.7852
 Red. masses --      1.0452                 1.0804                 1.1001
 Frc consts  --      5.7243                 5.9450                 6.3367
 IR Inten    --      4.6933                49.4810                28.3854

                     25                     26                     27
                      A                      A                      A
 Frequencies --   3156.1955              3755.5333              3789.7278
 Red. masses --      1.1016                 1.0687                 1.0655
 Frc consts  --      6.4657                 8.8810                 9.0160
 IR Inten    --      9.6475                27.3513                20.9278

 - Thermochemistry -
 -------------------
 Temperature   298.150 Kelvin.  Pressure   1.00000 Atm.
 Atom     1 has atomic number  6 and mass  12.00000

 Molecular mass:    78.03169 amu.
 Principal axes and moments of inertia in atomic units:
                           1         2         3
     Eigenvalues --   217.20630 455.50114 613.99567
           X            0.99833   0.05187  -0.02540
           Y           -0.05219   0.99857  -0.01193
           Z            0.02474   0.01324   0.99961
 This molecule is an asymmetric top.
 Rotational symmetry number  1.
 Rotational temperatures (Kelvin)      0.39876     0.19015     0.14107
 Rotational constants (GHZ):           8.30888     3.96210     2.93934
 Zero-point vibrational energy     231333.5 (Joules/Mol)
                                   55.29004 (Kcal/Mol)
 Warning -- explicit consideration of   8 degrees of freedom as
           vibrations may cause significant error
 Vibrational temperatures:    170.00   346.54   362.92   405.60   504.72
          (Kelvin)            626.67   694.82   762.81  1235.93  1355.94
                             1362.44  1554.59  1603.51  1685.26  1920.40
                             1952.79  1992.36  2031.06  2070.72  2149.94
                             2177.71  4386.67  4396.88  4498.74  4541.06
                             5403.37  5452.57

 Zero-point correction=                           0.088110 (Hartree/Particle)
 Thermal correction to Energy=                    0.094419
 Thermal correction to Enthalpy=                  0.095363
 Thermal correction to Gibbs Free Energy=         0.058903
 Sum of electronic and zero-point Energies=           -305.311596
 Sum of electronic and thermal Energies=              -305.305287
 Sum of electronic and thermal Enthalpies=            -305.304343
 Sum of electronic and thermal Free Energies=         -305.340803

                     E (Thermal)             CV                S
                      KCal/Mol        Cal/Mol-Kelvin    Cal/Mol-Kelvin
 Total                   59.249             21.517             76.736
 Electronic               0.000              0.000              0.000
 Translational            0.889              2.981             38.979
 Rotational               0.889              2.981             25.610
 Vibrational             57.471             15.555             12.147
 Vibration     1          0.608              1.934              3.130
 Vibration     2          0.658              1.778              1.797
 Vibration     3          0.664              1.759              1.715
 Vibration     4          0.681              1.707              1.522
 Vibration     5          0.728              1.574              1.163
 Vibration     6          0.796              1.393              0.841
 Vibration     7          0.839              1.288              0.702
 Vibration     8          0.885              1.183              0.587

 Optimization completed.
    -- Stationary point found.
 Normal termination of Gaussian 09 at Thu Sep  8 14:49:53 2022.
