 Gaussian 09, Revision E.01,
 Gaussian 09:  ES64L-G09RevE.01 30-Nov-2015

 ----------------------------
 #P OPT Freq B3LYP/6-31G(d,p)
 ----------------------------

 ---------
 Frag_1075
 ---------
 Symbolic Z-matrix:
 Charge =  0 Multiplicity = 1

 SCF Done:  E(RB3LYP) =  -263.266466046     A.U. after   15 cycles
 SCF Done:  E(RB3LYP) =  -263.266532494     A.U. after   10 cycles
 SCF Done:  E(RB3LYP) =  -263.266536673     A.U. after   10 cycles
 SCF Done:  E(RB3LYP) =  -263.266539664     A.U. after    9 cycles
 Optimization completed.
    -- Stationary point found.
 Normal termination of Gaussian 09 at Thu Sep  8 14:50:54 2022.

 ----------------------------------------------------------------------
 #P Geom=AllCheck Guess=TCheck SCRF=Check GenChk RB3LYP/6-31G(d,p) Freq
 ----------------------------------------------------------------------

 Structure from the checkpoint file:  "B3LYP6-31Gdp.Frag_1075.chk"
 ---------
 Frag_1075
 ---------
 Charge =  0 Multiplicity = 1

                         Standard orientation:
 ---------------------------------------------------------------------
 Center     Atomic      Atomic             Coordinates (Angstroms)
 Number     Number       Type             X           Y           Z
 ---------------------------------------------------------------------
      1          6           0       -1.611393   -0.699782   -0.000015
      2          6           0       -0.451671   -0.030328    0.000008
      3          8           0       -0.287221    1.321456    0.000015
      4          7           0        0.758255   -0.788621    0.000023
      5          7           0        1.851619   -0.184877   -0.000002
      6          1           0       -1.580914   -1.780614   -0.000023
      7          1           0       -2.575180   -0.202288   -0.000032
      8          1           0       -1.148577    1.757433    0.000000
      9          1           0        1.711694    0.848968   -0.000173
 ---------------------------------------------------------------------

 SCF Done:  E(RB3LYP) =  -263.266539664     A.U. after    1 cycles

 The electronic state is 1-A.
 Alpha  occ. eigenvalues --  -19.20899 -14.39091 -14.37503 -10.28769 -10.20292
 Alpha  occ. eigenvalues --   -1.09811  -1.01979  -0.79885  -0.68347  -0.62494
 Alpha  occ. eigenvalues --   -0.54853  -0.51114  -0.44471  -0.43922  -0.39867
 Alpha  occ. eigenvalues --   -0.36759  -0.35936  -0.25694  -0.23950
 Alpha virt. eigenvalues --   -0.06696   0.04403   0.06187   0.12127   0.13761
 Alpha virt. eigenvalues --    0.15428   0.24017   0.28929   0.33252   0.39848
 Alpha virt. eigenvalues --    0.52761   0.52809   0.57459   0.57969   0.61088

 Mulliken charges:
               1
     1  C   -0.273427
     2  C    0.482379
     3  O   -0.541182
     4  N   -0.236017
     5  N   -0.246416
     6  H    0.139237
     7  H    0.099990
     8  H    0.332264
     9  H    0.243171
 Sum of Mulliken charges =   0.00000

 Dipole moment (field-independent basis, Debye):
    X=             -3.4984    Y=              2.4619    Z=             -0.0003  Tot=              4.2778
 Quadrupole moment (field-independent basis, Debye-Ang):
   XX=            -28.9267   YY=            -27.5237   ZZ=            -29.8987
   XY=              0.7483   XZ=             -0.0004   YZ=             -0.0000

  Exact polarizability:  63.330   8.471  39.432  -0.000  -0.001  16.419
 Approx polarizability: 112.876  22.538  60.790   0.001  -0.001  24.029

                      1                      2                      3
                      A                      A                      A
 Frequencies --    162.7261               306.8391               345.5789
 Red. masses --      3.2615                 1.1165                 4.0906
 Frc consts  --      0.0509                 0.0619                 0.2878
 IR Inten    --     36.7295               112.3576                 1.7527

                      4                      5                      6
                      A                      A                      A
 Frequencies --    451.4205               554.2164               682.3672
 Red. masses --      2.7603                 3.0399                 4.0475
 Frc consts  --      0.3314                 0.5501                 1.1104
 IR Inten    --      9.5846                26.7158                12.3766

                      7                      8                      9
                      A                      A                      A
 Frequencies --    729.8703               843.8169               864.2406
 Red. masses --      1.1247                 4.9214                 1.3443
 Frc consts  --      0.3530                 2.0646                 0.5916
 IR Inten    --      0.1354                 0.7012                59.4586

                     10                     11                     12
                      A                      A                      A
 Frequencies --    968.3076              1009.2057              1134.6969
 Red. masses --      1.9015                 1.5318                 1.5684
 Frc consts  --      1.0504                 0.9192                 1.1898
 IR Inten    --     25.4752                51.1183               176.3675

                     13                     14                     15
                      A                      A                      A
 Frequencies --   1354.8977              1436.4784              1515.7466
 Red. masses --      2.4910                 1.1893                 1.2654
 Frc consts  --      2.6943                 1.4459                 1.7129
 IR Inten    --     11.0135                17.7536                90.1620

                     16                     17                     18
                      A                      A                      A
 Frequencies --   1621.1245              1725.7524              3170.6474
 Red. masses --      8.8577                 6.3087                 1.0700
 Frc consts  --     13.7153                11.0700                 6.3378
 IR Inten    --     26.6565                89.9728                14.7608

                     19                     20                     21
                      A                      A                      A
 Frequencies --   3185.8495              3292.2523              3843.3122
 Red. masses --      1.0623                 1.1160                 1.0663
 Frc consts  --      6.3528                 7.1267                 9.2802
 IR Inten    --      5.2553                 0.8773                55.0156

 - Thermochemistry -
 -------------------
 Temperature   298.150 Kelvin.  Pressure   1.00000 Atm.
 Atom     1 has atomic number  6 and mass  12.00000

 Molecular mass:    72.03236 amu.
 Principal axes and moments of inertia in atomic units:
                           1         2         3
     Eigenvalues --   178.33954 372.92790 551.26744
           X            0.99875   0.04995  -0.00000
           Y           -0.04995   0.99875  -0.00000
           Z            0.00000   0.00000   1.00000
 This molecule is an asymmetric top.
 Rotational symmetry number  1.
 Rotational temperatures (Kelvin)      0.48567     0.23225     0.15712
 Rotational constants (GHZ):          10.11969     4.83938     3.27380
 Zero-point vibrational energy     174650.9 (Joules/Mol)
                                   41.74256 (Kcal/Mol)
 Warning -- explicit consideration of   5 degrees of freedom as
           vibrations may cause significant error
 Vibrational temperatures:    234.13   441.47   497.21   649.49   797.39
          (Kelvin)            981.77  1050.12  1214.06  1243.45  1393.18
                             1452.02  1632.57  1949.39  2066.77  2180.82
                             2332.43  2482.97  4561.85  4583.72  4736.81
                             5529.66

 Zero-point correction=                           0.066521 (Hartree/Particle)
 Thermal correction to Energy=                    0.071676
 Thermal correction to Enthalpy=                  0.072620
 Thermal correction to Gibbs Free Energy=         0.038646
 Sum of electronic and zero-point Energies=           -263.200019
 Sum of electronic and thermal Energies=              -263.194864
 Sum of electronic and thermal Enthalpies=            -263.193920
 Sum of electronic and thermal Free Energies=         -263.227894

                     E (Thermal)             CV                S
                      KCal/Mol        Cal/Mol-Kelvin    Cal/Mol-Kelvin
 Total                   44.977             17.753             71.505
 Electronic               0.000              0.000              0.000
 Translational            0.889              2.981             38.740
 Rotational               0.889              2.981             25.109
 Vibrational             43.200             11.792              7.656
 Vibration     1          0.623              1.888              2.518
 Vibration     2          0.697              1.661              1.379
 Vibration     3          0.724              1.584              1.186
 Vibration     4          0.810              1.358              0.791
 Vibration     5          0.910              1.130              0.536

 Optimization completed.
    -- Stationary point found.
 Normal termination of Gaussian 09 at Thu Sep  8 14:51:01 2022.
