 Gaussian 09, Revision E.01,
 Gaussian 09:  ES64L-G09RevE.01 30-Nov-2015

 ----------------------------
 #P OPT Freq B3LYP/6-31G(d,p)
 ----------------------------

 ---------
 Frag_1039
 ---------
 Symbolic Z-matrix:
 Charge =  0 Multiplicity = 1

 SCF Done:  E(RB3LYP) =  -301.203958823     A.U. after   12 cycles
 SCF Done:  E(RB3LYP) =  -301.203990528     A.U. after    9 cycles
 SCF Done:  E(RB3LYP) =  -301.203993953     A.U. after    7 cycles
 SCF Done:  E(RB3LYP) =  -301.203994358     A.U. after    7 cycles
 SCF Done:  E(RB3LYP) =  -301.203994420     A.U. after    7 cycles
 Optimization completed.
    -- Stationary point found.
 Normal termination of Gaussian 09 at Thu Sep  8 14:52:51 2022.

 ----------------------------------------------------------------------
 #P Geom=AllCheck Guess=TCheck SCRF=Check GenChk RB3LYP/6-31G(d,p) Freq
 ----------------------------------------------------------------------

 Structure from the checkpoint file:  "B3LYP6-31Gdp.Frag_1039.chk"
 ---------
 Frag_1039
 ---------
 Charge =  0 Multiplicity = 1

                         Standard orientation:
 ---------------------------------------------------------------------
 Center     Atomic      Atomic             Coordinates (Angstroms)
 Number     Number       Type             X           Y           Z
 ---------------------------------------------------------------------
      1          6           0        1.538708   -1.080147    0.045774
      2          7           0        0.648487    0.020257   -0.329208
      3          7           0        1.340027    1.240706   -0.051374
      4          6           0       -0.675686   -0.055144    0.324337
      5          7           0       -1.541577    1.070048   -0.010951
      6          7           0       -1.272669   -1.324594   -0.049218
      7          1           0        1.064135   -2.031298   -0.190745
      8          1           0        2.470185   -0.972156   -0.512198
      9          1           0        1.779099   -1.076455    1.125314
     10          1           0        1.287977    1.465427    0.951512
     11          1           0        0.870738    1.988589   -0.553278
     12          1           0       -0.563177   -0.040368    1.426520
     13          1           0       -1.546038    1.200440   -1.022687
     14          1           0       -1.206145    1.934830    0.406488
     15          1           0       -2.227530   -1.338126    0.300115
     16          1           0       -1.327247   -1.364057   -1.066439
 ---------------------------------------------------------------------

 SCF Done:  E(RB3LYP) =  -301.203994420     A.U. after    1 cycles

 The electronic state is 1-A.
 Alpha  occ. eigenvalues --  -14.34690 -14.34127 -14.31998 -14.31293 -10.26172
 Alpha  occ. eigenvalues --  -10.18795  -0.97992  -0.90452  -0.84272  -0.77630
 Alpha  occ. eigenvalues --   -0.66425  -0.59632  -0.52706  -0.50050  -0.48558
 Alpha  occ. eigenvalues --   -0.46548  -0.44198  -0.42142  -0.38927  -0.37778
 Alpha  occ. eigenvalues --   -0.37221  -0.26745  -0.25563  -0.24000  -0.22117
 Alpha virt. eigenvalues --    0.06209   0.09214   0.10638   0.13977   0.15492
 Alpha virt. eigenvalues --    0.16273   0.16695   0.17787   0.18205   0.19293
 Alpha virt. eigenvalues --    0.19982   0.23650   0.26143   0.28120   0.29427

 Mulliken charges:
               1
     1  C   -0.135102
     2  N   -0.334855
     3  N   -0.444200
     4  C    0.297618
     5  N   -0.586240
     6  N   -0.585471
     7  H    0.130551
     8  H    0.117469
     9  H    0.070691
    10  H    0.215615
    11  H    0.239499
    12  H    0.073707
    13  H    0.230387
    14  H    0.223318
    15  H    0.248467
    16  H    0.238547
 Sum of Mulliken charges =  -0.00000

 Dipole moment (field-independent basis, Debye):
    X=             -0.9535    Y=              1.3853    Z=              0.0835  Tot=              1.6838
 Quadrupole moment (field-independent basis, Debye-Ang):
   XX=            -41.8737   YY=            -35.6422   ZZ=            -36.2818
   XY=             -0.1584   XZ=              3.1560   YZ=              1.3060

  Exact polarizability:  54.158   0.425  56.532   1.550   1.213  46.674
 Approx polarizability:  68.924   1.912  75.626   1.454   2.190  70.080

                      1                      2                      3
                      A                      A                      A
 Frequencies --    103.9561               222.6254               272.8452
 Red. masses --      3.1088                 1.1080                 1.2596
 Frc consts  --      0.0198                 0.0324                 0.0552
 IR Inten    --      1.0283                 0.9999                30.2879

                      4                      5                      6
                      A                      A                      A
 Frequencies --    300.0921               308.0664               337.0007
 Red. masses --      1.8415                 1.1418                 1.8396
 Frc consts  --      0.0977                 0.0638                 0.1231
 IR Inten    --     15.7560                58.9958                 9.1781

                      7                      8                      9
                      A                      A                      A
 Frequencies --    372.1872               432.0186               479.2927
 Red. masses --      1.7156                 2.0723                 2.7374
 Frc consts  --      0.1400                 0.2279                 0.3705
 IR Inten    --      6.1605                33.6320                12.7277

                     10                     11                     12
                      A                      A                      A
 Frequencies --    508.6976               580.3438               787.2988
 Red. masses --      2.6284                 2.4397                 2.5767
 Frc consts  --      0.4007                 0.4841                 0.9410
 IR Inten    --     20.4598                24.2835                76.1557

                     13                     14                     15
                      A                      A                      A
 Frequencies --    854.0516               898.0514               945.8992
 Red. masses --      1.6573                 1.9128                 1.7854
 Frc consts  --      0.7122                 0.9089                 0.9412
 IR Inten    --    295.3528               112.0823                29.8727

                     16                     17                     18
                      A                      A                      A
 Frequencies --    982.4683              1043.5388              1121.9837
 Red. masses --      2.1784                 1.5598                 1.8451
 Frc consts  --      1.2389                 1.0008                 1.3685
 IR Inten    --     32.6925                79.5797                13.8739

                     19                     20                     21
                      A                      A                      A
 Frequencies --   1152.9793              1161.4306              1223.5734
 Red. masses --      1.5586                 1.5161                 2.0888
 Frc consts  --      1.2207                 1.2049                 1.8425
 IR Inten    --     16.0700                 3.4922                37.3941

                     22                     23                     24
                      A                      A                      A
 Frequencies --   1242.7230              1304.4425              1332.8131
 Red. masses --      2.7667                 1.5048                 1.3838
 Frc consts  --      2.5174                 1.5086                 1.4483
 IR Inten    --     23.0549                14.1394                14.3528

                     25                     26                     27
                      A                      A                      A
 Frequencies --   1396.7459              1429.7858              1452.0237
 Red. masses --      1.3393                 1.2700                 1.1841
 Frc consts  --      1.5395                 1.5297                 1.4709
 IR Inten    --     37.4516                20.6919                 9.6439

                     28                     29                     30
                      A                      A                      A
 Frequencies --   1504.4943              1517.6082              1650.0702
 Red. masses --      1.0672                 1.0456                 1.0941
 Frc consts  --      1.4233                 1.4188                 1.7552
 IR Inten    --     11.9143                 3.1634                35.7232

                     31                     32                     33
                      A                      A                      A
 Frequencies --   1659.4040              1670.0516              2926.8129
 Red. masses --      1.1078                 1.0873                 1.0824
 Frc consts  --      1.7972                 1.7867                 5.4628
 IR Inten    --     22.4781                13.6361                54.4486

                     34                     35                     36
                      A                      A                      A
 Frequencies --   2949.4554              3117.2848              3180.6906
 Red. masses --      1.0626                 1.0715                 1.1036
 Frc consts  --      5.4463                 6.1350                 6.5782
 IR Inten    --    104.3807                28.3683                 9.8374

                     37                     38                     39
                      A                      A                      A
 Frequencies --   3329.9595              3467.1782              3482.5487
 Red. masses --      1.0580                 1.0492                 1.0507
 Frc consts  --      6.9124                 7.4316                 7.5077
 IR Inten    --     32.6267                 1.9092                 0.1014

                     40                     41                     42
                      A                      A                      A
 Frequencies --   3558.0914              3570.3780              3579.3830
 Red. masses --      1.0824                 1.0915                 1.0906
 Frc consts  --      8.0737                 8.1976                 8.2323
 IR Inten    --      0.3086                 1.2545                 1.7822

 - Thermochemistry -
 -------------------
 Temperature   298.150 Kelvin.  Pressure   1.00000 Atm.
 Atom     1 has atomic number  6 and mass  12.00000

 Molecular mass:    90.09055 amu.
 Principal axes and moments of inertia in atomic units:
                           1         2         3
     Eigenvalues --   384.12997 553.67421 865.42385
           X            0.99874  -0.04716   0.01699
           Y            0.04708   0.99888   0.00547
           Z           -0.01723  -0.00467   0.99984
 This molecule is an asymmetric top.
 Rotational symmetry number  1.
 Rotational temperatures (Kelvin)      0.22548     0.15643     0.10008
 Rotational constants (GHZ):           4.69826     3.25957     2.08538
 Zero-point vibrational energy     379278.1 (Joules/Mol)
                                   90.64964 (Kcal/Mol)
 Warning -- explicit consideration of  11 degrees of freedom as
           vibrations may cause significant error
 Vibrational temperatures:    149.57   320.31   392.56   431.76   443.24
          (Kelvin)            484.87   535.49   621.58   689.59   731.90
                              834.98  1132.75  1228.79  1292.09  1360.94
                             1413.55  1501.42  1614.28  1658.88  1671.04
                             1760.45  1788.00  1876.80  1917.62  2009.60
                             2057.14  2089.14  2164.63  2183.50  2374.08
                             2387.51  2402.83  4211.03  4243.60  4485.07
                             4576.30  4791.06  4988.49  5010.60  5119.29
                             5136.97  5149.93

 Zero-point correction=                           0.144459 (Hartree/Particle)
 Thermal correction to Energy=                    0.151919
 Thermal correction to Enthalpy=                  0.152863
 Thermal correction to Gibbs Free Energy=         0.113914
 Sum of electronic and zero-point Energies=           -301.059535
 Sum of electronic and thermal Energies=              -301.052076
 Sum of electronic and thermal Enthalpies=            -301.051132
 Sum of electronic and thermal Free Energies=         -301.090080

                     E (Thermal)             CV                S
                      KCal/Mol        Cal/Mol-Kelvin    Cal/Mol-Kelvin
 Total                   95.330             27.752             81.974
 Electronic               0.000              0.000              0.000
 Translational            0.889              2.981             39.407
 Rotational               0.889              2.981             26.712
 Vibrational             93.553             21.791             15.855
 Vibration     1          0.605              1.946              3.379
 Vibration     2          0.648              1.807              1.938
 Vibration     3          0.676              1.723              1.578
 Vibration     4          0.693              1.674              1.416
 Vibration     5          0.698              1.658              1.373
 Vibration     6          0.718              1.602              1.226
 Vibration     7          0.744              1.529              1.071
 Vibration     8          0.793              1.400              0.852
 Vibration     9          0.836              1.296              0.712
 Vibration    10          0.864              1.231              0.637
 Vibration    11          0.937              1.074              0.485

 Normal termination of Gaussian 09 at Thu Sep  8 14:53:04 2022.
