 Gaussian 09, Revision E.01,
 Gaussian 09:  ES64L-G09RevE.01 30-Nov-2015

 ----------------------------
 #P OPT Freq B3LYP/6-31G(d,p)
 ----------------------------

 --------
 Frag_994
 --------
 Symbolic Z-matrix:
 Charge =  0 Multiplicity = 1

 SCF Done:  E(RB3LYP) =  -228.625549084     A.U. after   13 cycles
 SCF Done:  E(RB3LYP) =  -228.625586864     A.U. after    9 cycles
 SCF Done:  E(RB3LYP) =  -228.625589749     A.U. after    8 cycles
 SCF Done:  E(RB3LYP) =  -228.625590200     A.U. after    8 cycles
 SCF Done:  E(RB3LYP) =  -228.625590288     A.U. after    8 cycles
 Optimization completed.
    -- Stationary point found.
 Normal termination of Gaussian 09 at Thu Sep  8 15:17:04 2022.

 ----------------------------------------------------------------------
 #P Geom=AllCheck Guess=TCheck SCRF=Check GenChk RB3LYP/6-31G(d,p) Freq
 ----------------------------------------------------------------------

 Structure from the checkpoint file:  "B3LYP6-31Gdp.Frag_994.chk"
 --------
 Frag_994
 --------
 Charge =  0 Multiplicity = 1

                         Standard orientation:
 ---------------------------------------------------------------------
 Center     Atomic      Atomic             Coordinates (Angstroms)
 Number     Number       Type             X           Y           Z
 ---------------------------------------------------------------------
      1          6           0       -1.295314   -1.144809    0.028515
      2          6           0       -0.377615    0.026615   -0.329787
      3          7           0       -1.057693    1.294173   -0.011587
      4          6           0        0.958560   -0.084026    0.371999
      5          7           0        2.057080   -0.104133   -0.271857
      6          1           0       -0.855357   -2.098061   -0.278675
      7          1           0       -2.262245   -1.022075   -0.466344
      8          1           0       -1.472194   -1.189017    1.110717
      9          1           0       -0.174733    0.019782   -1.406058
     10          1           0       -0.448064    2.077421   -0.237725
     11          1           0       -1.241587    1.349915    0.989581
     12          1           0        0.892697   -0.106005    1.474595
     13          1           0        2.851992   -0.148919    0.373661
 ---------------------------------------------------------------------

 SCF Done:  E(RB3LYP) =  -228.625590288     A.U. after    1 cycles

 The electronic state is 1-A.
 Alpha  occ. eigenvalues --  -14.32142 -14.32063 -10.22982 -10.21669 -10.17988
 Alpha  occ. eigenvalues --   -0.91055  -0.87649  -0.74053  -0.64227  -0.56520
 Alpha  occ. eigenvalues --   -0.51017  -0.47663  -0.44790  -0.42503  -0.37997
 Alpha  occ. eigenvalues --   -0.37293  -0.34970  -0.31452  -0.26939  -0.23673
 Alpha virt. eigenvalues --   -0.00208   0.08326   0.10030   0.12287   0.13727
 Alpha virt. eigenvalues --    0.16688   0.17880   0.18068   0.18687   0.22668
 Alpha virt. eigenvalues --    0.24912   0.28400   0.38342   0.51812   0.53831

 Mulliken charges:
               1
     1  C   -0.316763
     2  C    0.029795
     3  N   -0.583814
     4  C    0.126108
     5  N   -0.477547
     6  H    0.115845
     7  H    0.126297
     8  H    0.093794
     9  H    0.119368
    10  H    0.244109
    11  H    0.231137
    12  H    0.063257
    13  H    0.228413
 Sum of Mulliken charges =  -0.00000

 Dipole moment (field-independent basis, Debye):
    X=              0.1325    Y=              0.0957    Z=              2.3371  Tot=              2.3428
 Quadrupole moment (field-independent basis, Debye-Ang):
   XX=            -34.1619   YY=            -30.3202   ZZ=            -30.9771
   XY=              1.7592   XZ=              2.4542   YZ=              1.0268

  Exact polarizability:  57.562  -1.309  40.074  -2.607   0.193  42.481
 Approx polarizability:  79.910  -4.257  53.098  -9.011   0.234  63.453

                      1                      2                      3
                      A                      A                      A
 Frequencies --     92.6055               234.7689               294.8237
 Red. masses --      3.5180                 1.0566                 1.1055
 Frc consts  --      0.0178                 0.0343                 0.0566
 IR Inten    --      6.7489                 0.7598                40.6286

                      4                      5                      6
                      A                      A                      A
 Frequencies --    325.6779               351.4535               374.2493
 Red. masses --      1.8904                 2.6017                 2.3683
 Frc consts  --      0.1181                 0.1893                 0.1954
 IR Inten    --     12.0055                 8.6069                 7.0349

                      7                      8                      9
                      A                      A                      A
 Frequencies --    556.2165               802.0817               843.2117
 Red. masses --      3.3623                 1.4709                 1.9008
 Frc consts  --      0.6129                 0.5575                 0.7963
 IR Inten    --      9.0650                79.6343               117.2120

                     10                     11                     12
                      A                      A                      A
 Frequencies --    898.0546               948.2597              1019.1593
 Red. masses --      1.5893                 1.7855                 1.3504
 Frc consts  --      0.7552                 0.9460                 0.8264
 IR Inten    --     65.6574                15.3514                 3.4687

                     13                     14                     15
                      A                      A                      A
 Frequencies --   1101.9572              1118.4616              1142.9791
 Red. masses --      1.5617                 1.2529                 2.0900
 Frc consts  --      1.1173                 0.9235                 1.6087
 IR Inten    --     13.2722                10.8367                18.3803

                     16                     17                     18
                      A                      A                      A
 Frequencies --   1233.4519              1289.4321              1331.0087
 Red. masses --      1.3952                 1.4896                 1.3231
 Frc consts  --      1.2506                 1.4592                 1.3810
 IR Inten    --     29.5785                22.4388                 4.5560

                     19                     20                     21
                      A                      A                      A
 Frequencies --   1398.0106              1421.8706              1431.9877
 Red. masses --      1.2280                 1.3492                 1.4725
 Frc consts  --      1.4141                 1.6071                 1.7790
 IR Inten    --      2.9518                11.4171                21.2263

                     22                     23                     24
                      A                      A                      A
 Frequencies --   1505.0520              1510.7712              1664.7827
 Red. masses --      1.0470                 1.0507                 1.0953
 Frc consts  --      1.3973                 1.4129                 1.7885
 IR Inten    --      5.3615                 2.7935                25.5169

                     25                     26                     27
                      A                      A                      A
 Frequencies --   1731.4141              2972.5646              3037.6137
 Red. masses --      6.5810                 1.0854                 1.0411
 Frc consts  --     11.6237                 5.6506                 5.6598
 IR Inten    --     62.2707                62.2918                22.0982

                     28                     29                     30
                      A                      A                      A
 Frequencies --   3077.7644              3111.5103              3139.2889
 Red. masses --      1.0851                 1.0958                 1.1036
 Frc consts  --      6.0563                 6.2507                 6.4079
 IR Inten    --     10.1854                34.2264                15.5188

                     31                     32                     33
                      A                      A                      A
 Frequencies --   3433.6137              3472.2508              3564.3562
 Red. masses --      1.0759                 1.0494                 1.0924
 Frc consts  --      7.4735                 7.4546                 8.1769
 IR Inten    --      6.0083                 0.8982                 0.0715

 - Thermochemistry -
 -------------------
 Temperature   298.150 Kelvin.  Pressure   1.00000 Atm.
 Atom     1 has atomic number  6 and mass  12.00000

 Molecular mass:    72.06875 amu.
 Principal axes and moments of inertia in atomic units:
                           1         2         3
     Eigenvalues --   226.11407 491.18403 639.62701
           X            0.99927   0.03699   0.00969
           Y           -0.03707   0.99928   0.00823
           Z           -0.00938  -0.00858   0.99992
 This molecule is an asymmetric top.
 Rotational symmetry number  1.
 Rotational temperatures (Kelvin)      0.38305     0.17634     0.13541
 Rotational constants (GHZ):           7.98155     3.67427     2.82155
 Zero-point vibrational energy     301642.6 (Joules/Mol)
                                   72.09431 (Kcal/Mol)
 Warning -- explicit consideration of   7 degrees of freedom as
           vibrations may cause significant error
 Vibrational temperatures:    133.24   337.78   424.18   468.58   505.66
          (Kelvin)            538.46   800.27  1154.02  1213.19  1292.10
                             1364.33  1466.34  1585.47  1609.21  1644.49
                             1774.66  1855.20  1915.02  2011.42  2045.75
                             2060.31  2165.43  2173.66  2395.25  2491.12
                             4276.85  4370.44  4428.21  4476.76  4516.73
                             4940.20  4995.79  5128.31

 Zero-point correction=                           0.114890 (Hartree/Particle)
 Thermal correction to Energy=                    0.121094
 Thermal correction to Enthalpy=                  0.122038
 Thermal correction to Gibbs Free Energy=         0.085689
 Sum of electronic and zero-point Energies=           -228.510701
 Sum of electronic and thermal Energies=              -228.504497
 Sum of electronic and thermal Enthalpies=            -228.503552
 Sum of electronic and thermal Free Energies=         -228.539901

                     E (Thermal)             CV                S
                      KCal/Mol        Cal/Mol-Kelvin    Cal/Mol-Kelvin
 Total                   75.987             21.540             76.502
 Electronic               0.000              0.000              0.000
 Translational            0.889              2.981             38.742
 Rotational               0.889              2.981             25.766
 Vibrational             74.210             15.579             11.994
 Vibration     1          0.602              1.954              3.604
 Vibration     2          0.655              1.788              1.842
 Vibration     3          0.689              1.683              1.446
 Vibration     4          0.710              1.624              1.281
 Vibration     5          0.728              1.572              1.160
 Vibration     6          0.745              1.525              1.062
 Vibration     7          0.912              1.126              0.531

 Normal termination of Gaussian 09 at Thu Sep  8 15:17:14 2022.
