 Gaussian 09, Revision E.01,
 Gaussian 09:  ES64L-G09RevE.01 30-Nov-2015

 ----------------------------
 #P OPT Freq B3LYP/6-31G(d,p)
 ----------------------------

 --------
 Frag_876
 --------
 Symbolic Z-matrix:
 Charge =  0 Multiplicity = 1

 SCF Done:  E(RB3LYP) =  -318.596791062     A.U. after   15 cycles
 SCF Done:  E(RB3LYP) =  -318.596894072     A.U. after   11 cycles
 SCF Done:  E(RB3LYP) =  -318.596865674     A.U. after   11 cycles
 SCF Done:  E(RB3LYP) =  -318.596904685     A.U. after   11 cycles
 SCF Done:  E(RB3LYP) =  -318.596906222     A.U. after    9 cycles
 Optimization completed.
    -- Stationary point found.
 Normal termination of Gaussian 09 at Thu Sep  8 15:02:59 2022.

 ----------------------------------------------------------------------
 #P Geom=AllCheck Guess=TCheck SCRF=Check GenChk RB3LYP/6-31G(d,p) Freq
 ----------------------------------------------------------------------

 Structure from the checkpoint file:  "B3LYP6-31Gdp.Frag_876.chk"
 --------
 Frag_876
 --------
 Charge =  0 Multiplicity = 1

                         Standard orientation:
 ---------------------------------------------------------------------
 Center     Atomic      Atomic             Coordinates (Angstroms)
 Number     Number       Type             X           Y           Z
 ---------------------------------------------------------------------
      1          6           0       -1.313089    1.296014   -0.141429
      2          6           0       -0.728153    0.102953    0.012846
      3          7           0       -1.301938   -1.133624    0.218912
      4          7           0        0.753078    0.000384    0.001044
      5          7           0        1.413030    1.067561    0.187504
      6          8           0        1.230398   -1.145136   -0.203156
      7          1           0       -2.393812    1.374951   -0.140725
      8          1           0       -0.719519    2.190193   -0.251680
      9          1           0       -0.681047   -1.892042   -0.040298
     10          1           0       -2.246214   -1.225087   -0.126166
     11          1           0        2.395665    0.779030    0.103393
 ---------------------------------------------------------------------

 SCF Done:  E(RB3LYP) =  -318.596906222     A.U. after    1 cycles

 The electronic state is 1-A.
 Alpha  occ. eigenvalues --  -19.16390 -14.53506 -14.36843 -14.35313 -10.27748
 Alpha  occ. eigenvalues --  -10.18651  -1.16905  -0.96235  -0.93583  -0.78196
 Alpha  occ. eigenvalues --   -0.70118  -0.57993  -0.54622  -0.52229  -0.51153
 Alpha  occ. eigenvalues --   -0.48497  -0.44765  -0.41616  -0.35748  -0.33686
 Alpha  occ. eigenvalues --   -0.28016  -0.27676  -0.22561
 Alpha virt. eigenvalues --   -0.06707   0.05021   0.08595   0.10212   0.11666
 Alpha virt. eigenvalues --    0.15705   0.17455   0.21934   0.25996   0.30701
 Alpha virt. eigenvalues --    0.31966   0.38068   0.52854   0.53334   0.54572

 Mulliken charges:
               1
     1  C   -0.290695
     2  C    0.489458
     3  N   -0.647965
     4  N    0.165322
     5  N   -0.313154
     6  O   -0.466944
     7  H    0.101535
     8  H    0.142730
     9  H    0.292628
    10  H    0.268498
    11  H    0.258588
 Sum of Mulliken charges =  -0.00000

 Dipole moment (field-independent basis, Debye):
    X=             -1.6567    Y=             -0.2489    Z=             -0.8862  Tot=              1.8953
 Quadrupole moment (field-independent basis, Debye-Ang):
   XX=            -28.5853   YY=            -35.6548   ZZ=            -37.1741
   XY=              3.1193   XZ=              1.8174   YZ=              0.1517

  Exact polarizability:  57.160  -2.474  62.453   1.753  -0.274  20.137
 Approx polarizability:  77.900  -6.736 126.532   3.497   1.951  30.813

                      1                      2                      3
                      A                      A                      A
 Frequencies --     74.3114               305.3173               359.3638
 Red. masses --      6.1277                 1.0701                 3.5356
 Frc consts  --      0.0199                 0.0588                 0.2690
 IR Inten    --      0.7448                33.7473                 3.8177

                      4                      5                      6
                      A                      A                      A
 Frequencies --    418.2515               432.0532               564.3001
 Red. masses --      3.1635                 2.7704                 4.8471
 Frc consts  --      0.3261                 0.3047                 0.9094
 IR Inten    --     12.4122                 2.5780                 9.2565

                      7                      8                      9
                      A                      A                      A
 Frequencies --    597.8676               651.0366               691.7526
 Red. masses --      3.5456                 1.2982                 1.5264
 Frc consts  --      0.7467                 0.3242                 0.4303
 IR Inten    --     36.4764               239.3099                30.9968

                     10                     11                     12
                      A                      A                      A
 Frequencies --    761.6560               814.5679               832.1873
 Red. masses --      2.0993                 3.4523                 1.4141
 Frc consts  --      0.7175                 1.3496                 0.5770
 IR Inten    --      9.6180                32.7922                62.4695

                     13                     14                     15
                      A                      A                      A
 Frequencies --    900.5307               986.1210              1116.5673
 Red. masses --      1.3814                 1.5937                 1.6314
 Frc consts  --      0.6600                 0.9131                 1.1984
 IR Inten    --     94.8667                 5.1551                 6.4515

                     16                     17                     18
                      A                      A                      A
 Frequencies --   1249.8745              1344.0787              1439.1681
 Red. masses --      3.8985                 2.2044                 1.2142
 Frc consts  --      3.5882                 2.3463                 1.4817
 IR Inten    --     65.4164                35.2858                 2.4724

                     19                     20                     21
                      A                      A                      A
 Frequencies --   1514.5512              1578.9320              1627.0033
 Red. masses --      1.7701                 3.4488                 1.5668
 Frc consts  --      2.3923                 5.0658                 2.4436
 IR Inten    --    137.9934               258.6408                17.2527

                     22                     23                     24
                      A                      A                      A
 Frequencies --   1750.1435              3197.3119              3311.9198
 Red. masses --      6.3097                 1.0628                 1.1144
 Frc consts  --     11.3868                 6.4011                 7.2019
 IR Inten    --     88.6739                 8.2177                 2.5183

                     25                     26                     27
                      A                      A                      A
 Frequencies --   3425.9739              3552.8848              3683.1490
 Red. masses --      1.0717                 1.0488                 1.0968
 Frc consts  --      7.4109                 7.8003                 8.7667
 IR Inten    --      5.6707                51.6089                46.8466

 - Thermochemistry -
 -------------------
 Temperature   298.150 Kelvin.  Pressure   1.00000 Atm.
 Atom     1 has atomic number  6 and mass  12.00000

 Molecular mass:    87.04326 amu.
 Principal axes and moments of inertia in atomic units:
                           1         2         3
     Eigenvalues --   320.71831 466.32305 771.58614
           X            0.99968   0.02380   0.00856
           Y           -0.02376   0.99971  -0.00499
           Z           -0.00868   0.00479   0.99995
 This molecule is an asymmetric top.
 Rotational symmetry number  1.
 Rotational temperatures (Kelvin)      0.27006     0.18574     0.11225
 Rotational constants (GHZ):           5.62718     3.87015     2.33900
 Zero-point vibrational energy     222391.0 (Joules/Mol)
                                   53.15273 (Kcal/Mol)
 Warning -- explicit consideration of   7 degrees of freedom as
           vibrations may cause significant error
 Vibrational temperatures:    106.92   439.28   517.04   601.77   621.63
          (Kelvin)            811.90   860.20   936.70   995.28  1095.85
                             1171.98  1197.33  1295.66  1418.81  1606.49
                             1798.29  1933.83  2070.64  2179.10  2271.73
                             2340.89  2518.06  4600.21  4765.11  4929.21
                             5111.80  5299.22

 Zero-point correction=                           0.084704 (Hartree/Particle)
 Thermal correction to Energy=                    0.090642
 Thermal correction to Enthalpy=                  0.091586
 Thermal correction to Gibbs Free Energy=         0.055228
 Sum of electronic and zero-point Energies=           -318.512202
 Sum of electronic and thermal Energies=              -318.506264
 Sum of electronic and thermal Enthalpies=            -318.505320
 Sum of electronic and thermal Free Energies=         -318.541678

                     E (Thermal)             CV                S
                      KCal/Mol        Cal/Mol-Kelvin    Cal/Mol-Kelvin
 Total                   56.879             21.595             76.523
 Electronic               0.000              0.000              0.000
 Translational            0.889              2.981             39.304
 Rotational               0.889              2.981             26.248
 Vibrational             55.101             15.634             10.970
 Vibration     1          0.599              1.966              4.036
 Vibration     2          0.696              1.664              1.388
 Vibration     3          0.734              1.556              1.125
 Vibration     4          0.781              1.431              0.898
 Vibration     5          0.793              1.400              0.852
 Vibration     6          0.920              1.109              0.515
 Vibration     7          0.956              1.036              0.453

 Normal termination of Gaussian 09 at Thu Sep  8 15:03:08 2022.
