 Gaussian 09, Revision E.01,
 Gaussian 09:  ES64L-G09RevE.01 30-Nov-2015

 ----------------------------
 #P OPT Freq B3LYP/6-31G(d,p)
 ----------------------------

 --------
 Frag_828
 --------
 Symbolic Z-matrix:
 Charge =  0 Multiplicity = 1

 SCF Done:  E(RB3LYP) =  -324.522852819     A.U. after   12 cycles
 SCF Done:  E(RB3LYP) =  -324.522882117     A.U. after    9 cycles
 SCF Done:  E(RB3LYP) =  -324.522861229     A.U. after   10 cycles
 SCF Done:  E(RB3LYP) =  -324.522888849     A.U. after    9 cycles
 SCF Done:  E(RB3LYP) =  -324.522889596     A.U. after    7 cycles
 SCF Done:  E(RB3LYP) =  -324.522889680     A.U. after    6 cycles
 Optimization completed.
    -- Stationary point found.
 Normal termination of Gaussian 09 at Thu Sep  8 15:17:00 2022.

 ----------------------------------------------------------------------
 #P Geom=AllCheck Guess=TCheck SCRF=Check GenChk RB3LYP/6-31G(d,p) Freq
 ----------------------------------------------------------------------

 Structure from the checkpoint file:  "B3LYP6-31Gdp.Frag_828.chk"
 --------
 Frag_828
 --------
 Charge =  0 Multiplicity = 1

                         Standard orientation:
 ---------------------------------------------------------------------
 Center     Atomic      Atomic             Coordinates (Angstroms)
 Number     Number       Type             X           Y           Z
 ---------------------------------------------------------------------
      1          6           0       -1.357993    1.214617   -0.598448
      2          6           0       -0.627140   -0.003573   -0.008527
      3          6           0       -0.756666   -0.011169    1.521295
      4          7           0       -1.178305   -1.283800   -0.514985
      5          6           0        0.872266    0.025816   -0.440988
      6          7           0        1.527248    1.246335    0.028240
      7          7           0        1.540751   -1.178862    0.057608
      8          1           0       -1.311379    1.202293   -1.694779
      9          1           0       -2.414736    1.203029   -0.307520
     10          1           0       -0.905779    2.148401   -0.257583
     11          1           0       -0.358183    0.914709    1.945211
     12          1           0       -0.216668   -0.856621    1.951993
     13          1           0       -1.811237   -0.077935    1.814331
     14          1           0       -1.295814   -1.221146   -1.526024
     15          1           0       -2.113545   -1.420899   -0.136714
     16          1           0        0.870352    0.090514   -1.545403
     17          1           0        2.382486    1.398954   -0.500862
     18          1           0        1.822031    1.084543    0.990206
     19          1           0        2.411533   -1.330700   -0.445577
     20          1           0        0.930272   -1.975007   -0.123325
 ---------------------------------------------------------------------

 SCF Done:  E(RB3LYP) =  -324.522889680     A.U. after    1 cycles

 The electronic state is 1-A.
 Alpha  occ. eigenvalues --  -14.31094 -14.30430 -14.29512 -10.22651 -10.21152
 Alpha  occ. eigenvalues --  -10.16252 -10.16152  -0.91432  -0.87117  -0.82138
 Alpha  occ. eigenvalues --   -0.74134  -0.67694  -0.63388  -0.53864  -0.49451
 Alpha  occ. eigenvalues --   -0.48542  -0.46464  -0.44700  -0.41725  -0.40521
 Alpha  occ. eigenvalues --   -0.39700  -0.38000  -0.36928  -0.35365  -0.32862
 Alpha  occ. eigenvalues --   -0.31455  -0.24798  -0.23941  -0.21760
 Alpha virt. eigenvalues --    0.07068   0.09514   0.11759   0.13124   0.13898
 Alpha virt. eigenvalues --    0.15520   0.17306   0.18078   0.18151   0.19073
 Alpha virt. eigenvalues --    0.20318   0.21318   0.22471   0.23512   0.25049

 Mulliken charges:
               1
     1  C   -0.300540
     2  C    0.144006
     3  C   -0.309647
     4  N   -0.603592
     5  C    0.179069
     6  N   -0.586786
     7  N   -0.608069
     8  H    0.080146
     9  H    0.083196
    10  H    0.129281
    11  H    0.107999
    12  H    0.126380
    13  H    0.085024
    14  H    0.230293
    15  H    0.234813
    16  H    0.057963
    17  H    0.231737
    18  H    0.241388
    19  H    0.220964
    20  H    0.256377
 Sum of Mulliken charges =  -0.00000

 Dipole moment (field-independent basis, Debye):
    X=             -0.0521    Y=             -0.3391    Z=             -1.3547  Tot=              1.3974
 Quadrupole moment (field-independent basis, Debye-Ang):
   XX=            -38.4989   YY=            -49.2076   ZZ=            -43.6683
   XY=              1.5415   XZ=             -1.6954   YZ=              2.3724

  Exact polarizability:  70.231   1.188  63.273  -1.148   0.386  61.566
 Approx polarizability:  91.310   3.342  88.093  -1.714   0.826  87.231

                      1                      2                      3
                      A                      A                      A
 Frequencies --    110.0351               220.6030               241.8508
 Red. masses --      3.2159                 1.0384                 1.1274
 Frc consts  --      0.0229                 0.0298                 0.0389
 IR Inten    --      1.5378                 0.8061                 1.8474

                      4                      5                      6
                      A                      A                      A
 Frequencies --    260.4171               269.3631               288.0628
 Red. masses --      1.1883                 2.7867                 2.0258
 Frc consts  --      0.0475                 0.1191                 0.0990
 IR Inten    --     32.6225                 1.2308                22.5930

                      7                      8                      9
                      A                      A                      A
 Frequencies --    298.5279               337.9764               363.8662
 Red. masses --      1.0635                 1.3423                 2.3163
 Frc consts  --      0.0558                 0.0903                 0.1807
 IR Inten    --      7.1289                43.3912                 4.3508

                     10                     11                     12
                      A                      A                      A
 Frequencies --    386.4142               425.2072               490.3147
 Red. masses --      2.1892                 2.5956                 2.1817
 Frc consts  --      0.1926                 0.2765                 0.3090
 IR Inten    --     18.5334                11.7404                36.0921

                     13                     14                     15
                      A                      A                      A
 Frequencies --    507.5947               586.3344               726.0986
 Red. masses --      3.2462                 2.6898                 2.7820
 Frc consts  --      0.4928                 0.5448                 0.8642
 IR Inten    --     13.1991                12.6890                 4.8955

                     16                     17                     18
                      A                      A                      A
 Frequencies --    859.8341               888.6529               916.6951
 Red. masses --      2.1022                 1.9332                 1.4717
 Frc consts  --      0.9157                 0.8995                 0.7287
 IR Inten    --     42.9792               120.6509               147.4488

                     19                     20                     21
                      A                      A                      A
 Frequencies --    927.2715               944.5903               968.9701
 Red. masses --      1.2953                 1.4774                 1.7364
 Frc consts  --      0.6562                 0.7767                 0.9606
 IR Inten    --     64.7299                22.2455                 0.7309

                     22                     23                     24
                      A                      A                      A
 Frequencies --   1020.1069              1050.6216              1082.0022
 Red. masses --      1.3269                 1.7180                 1.7234
 Frc consts  --      0.8136                 1.1173                 1.1887
 IR Inten    --      6.2189                27.8738                12.0478

                     25                     26                     27
                      A                      A                      A
 Frequencies --   1107.0793              1178.3226              1226.0887
 Red. masses --      1.9727                 1.3300                 2.4400
 Frc consts  --      1.4245                 1.0880                 2.1611
 IR Inten    --     18.6723                 9.9308                20.1406

                     28                     29                     30
                      A                      A                      A
 Frequencies --   1262.0066              1272.5813              1362.8369
 Red. masses --      1.9232                 1.6913                 1.8289
 Frc consts  --      1.8046                 1.6138                 2.0014
 IR Inten    --     27.2352                 5.3760                 2.1772

                     31                     32                     33
                      A                      A                      A
 Frequencies --   1380.9918              1408.8727              1420.4231
 Red. masses --      1.2952                 1.3507                 1.2630
 Frc consts  --      1.4553                 1.5796                 1.5013
 IR Inten    --     17.7271                 7.8604                11.4952

                     34                     35                     36
                      A                      A                      A
 Frequencies --   1455.1713              1491.1559              1508.2166
 Red. masses --      1.4285                 1.0551                 1.0510
 Frc consts  --      1.7822                 1.3822                 1.4086
 IR Inten    --     15.4240                 0.4135                 0.7847

                     37                     38                     39
                      A                      A                      A
 Frequencies --   1510.9318              1529.2181              1638.1888
 Red. masses --      1.0542                 1.0679                 1.0964
 Frc consts  --      1.4179                 1.4714                 1.7335
 IR Inten    --      1.1204                10.3067                52.4225

                     40                     41                     42
                      A                      A                      A
 Frequencies --   1662.3964              1674.2431              2929.8786
 Red. masses --      1.0925                 1.0944                 1.0829
 Frc consts  --      1.7788                 1.8075                 5.4769
 IR Inten    --     46.6623                 8.4095                84.1551

                     43                     44                     45
                      A                      A                      A
 Frequencies --   3029.6478              3045.1421              3091.4993
 Red. masses --      1.0394                 1.0416                 1.1008
 Frc consts  --      5.6208                 5.6906                 6.1988
 IR Inten    --     31.7526                24.0417                41.4538

                     46                     47                     48
                      A                      A                      A
 Frequencies --   3114.1426              3142.4885              3151.3932
 Red. masses --      1.0959                 1.0986                 1.1021
 Frc consts  --      6.2618                 6.3921                 6.4490
 IR Inten    --     22.9542                16.1717                14.7352

                     49                     50                     51
                      A                      A                      A
 Frequencies --   3468.6424              3472.4705              3483.9760
 Red. masses --      1.0503                 1.0494                 1.0496
 Frc consts  --      7.4450                 7.4550                 7.5061
 IR Inten    --      1.6422                17.2073                 0.5224

                     52                     53                     54
                      A                      A                      A
 Frequencies --   3554.0874              3565.4677              3567.2871
 Red. masses --      1.0913                 1.0916                 1.0926
 Frc consts  --      8.1216                 8.1759                 8.1920
 IR Inten    --      0.4278                 0.5171                 3.7885

 - Thermochemistry -
 -------------------
 Temperature   298.150 Kelvin.  Pressure   1.00000 Atm.
 Atom     1 has atomic number  6 and mass  12.00000

 Molecular mass:   103.11095 amu.
 Principal axes and moments of inertia in atomic units:
                           1         2         3
     Eigenvalues --   578.34675 790.29429 951.36201
           X            0.99964  -0.02552  -0.00831
           Y            0.02555   0.99967   0.00319
           Z            0.00823  -0.00340   0.99996
 This molecule is an asymmetric top.
 Rotational symmetry number  1.
 Warning -- assumption of classical behavior for rotation
           may cause significant error
 Rotational temperatures (Kelvin)      0.14976     0.10960     0.09104
 Rotational constants (GHZ):           3.12052     2.28363     1.89701
 Zero-point vibrational energy     483747.5 (Joules/Mol)
                                  115.61842 (Kcal/Mol)
 Warning -- explicit consideration of  14 degrees of freedom as
           vibrations may cause significant error
 Vibrational temperatures:    158.32   317.40   347.97   374.68   387.55
          (Kelvin)            414.46   429.51   486.27   523.52   555.96
                              611.78   705.45   730.31   843.60  1044.69
                             1237.11  1278.57  1318.92  1334.14  1359.05
                             1394.13  1467.70  1511.61  1556.76  1592.84
                             1695.34  1764.07  1815.74  1830.96  1960.82
                             1986.94  2027.05  2043.67  2093.66  2145.44
                             2169.98  2173.89  2200.20  2356.99  2391.81
                             2408.86  4215.44  4358.98  4381.27  4447.97
                             4480.55  4521.33  4534.15  4990.60  4996.10
                             5012.66  5113.53  5129.91  5132.52

 Zero-point correction=                           0.184250 (Hartree/Particle)
 Thermal correction to Energy=                    0.193207
 Thermal correction to Enthalpy=                  0.194151
 Thermal correction to Gibbs Free Energy=         0.152235
 Sum of electronic and zero-point Energies=           -324.338640
 Sum of electronic and thermal Energies=              -324.329683
 Sum of electronic and thermal Enthalpies=            -324.328739
 Sum of electronic and thermal Free Energies=         -324.370655

                     E (Thermal)             CV                S
                      KCal/Mol        Cal/Mol-Kelvin    Cal/Mol-Kelvin
 Total                  121.239             34.540             88.221
 Electronic               0.000              0.000              0.000
 Translational            0.889              2.981             39.809
 Rotational               0.889              2.981             27.566
 Vibrational            119.462             28.578             20.845
 Vibration     1          0.606              1.941              3.268
 Vibration     2          0.647              1.810              1.954
 Vibration     3          0.658              1.776              1.789
 Vibration     4          0.668              1.745              1.659
 Vibration     5          0.674              1.730              1.600
 Vibration     6          0.685              1.696              1.485
 Vibration     7          0.692              1.676              1.425
 Vibration     8          0.718              1.600              1.222
 Vibration     9          0.737              1.547              1.106
 Vibration    10          0.755              1.499              1.014
 Vibration    11          0.787              1.415              0.874
 Vibration    12          0.846              1.272              0.683
 Vibration    13          0.863              1.233              0.639
 Vibration    14          0.943              1.061              0.474

 Optimization completed.
    -- Stationary point found.
 Normal termination of Gaussian 09 at Thu Sep  8 15:17:20 2022.
