 Gaussian 09, Revision E.01,
 Gaussian 09:  ES64L-G09RevE.01 30-Nov-2015

 ----------------------------
 #P OPT Freq B3LYP/6-31G(d,p)
 ----------------------------

 --------
 Frag_894
 --------
 Symbolic Z-matrix:
 Charge =  0 Multiplicity = 1

 SCF Done:  E(RB3LYP) =  -283.947692628     A.U. after   14 cycles
 SCF Done:  E(RB3LYP) =  -283.947731750     A.U. after    9 cycles
 SCF Done:  E(RB3LYP) =  -283.947732700     A.U. after    9 cycles
 SCF Done:  E(RB3LYP) =  -283.947733435     A.U. after    8 cycles
 SCF Done:  E(RB3LYP) =  -283.947733520     A.U. after    8 cycles
 SCF Done:  E(RB3LYP) =  -283.947733568     A.U. after    8 cycles
 Optimization completed.
    -- Stationary point found.
 Normal termination of Gaussian 09 at Thu Sep  8 14:56:38 2022.

 ----------------------------------------------------------------------
 #P Geom=AllCheck Guess=TCheck SCRF=Check GenChk RB3LYP/6-31G(d,p) Freq
 ----------------------------------------------------------------------

 Structure from the checkpoint file:  "B3LYP6-31Gdp.Frag_894.chk"
 --------
 Frag_894
 --------
 Charge =  0 Multiplicity = 1

                         Standard orientation:
 ---------------------------------------------------------------------
 Center     Atomic      Atomic             Coordinates (Angstroms)
 Number     Number       Type             X           Y           Z
 ---------------------------------------------------------------------
      1          6           0        0.412313    1.274273    0.837316
      2          6           0        0.354388    0.000002   -0.013503
      3          6           0        0.412385   -1.274203    0.837412
      4          7           0        1.474757    0.000002   -0.936703
      5          7           0       -0.945722   -0.000088   -0.820863
      6          7           0       -2.035564   -0.000021   -0.238264
      7          1           0        0.356490    2.163724    0.201079
      8          1           0       -0.411910    1.318874    1.555815
      9          1           0        1.354577    1.301676    1.388952
     10          1           0       -0.411830   -1.318786    1.555919
     11          1           0        1.354658   -1.301521    1.389038
     12          1           0        0.356597   -2.163703    0.201241
     13          1           0        1.400851    0.811137   -1.548661
     14          1           0        1.400887   -0.811173   -1.548613
     15          1           0       -1.929136    0.000092    0.808691
 ---------------------------------------------------------------------

 SCF Done:  E(RB3LYP) =  -283.947733568     A.U. after    1 cycles

 The electronic state is 1-A.
 Alpha  occ. eigenvalues --  -14.38463 -14.38168 -14.31900 -10.25592 -10.19193
 Alpha  occ. eigenvalues --  -10.19192  -1.02931  -0.90263  -0.76620  -0.70780
 Alpha  occ. eigenvalues --   -0.67260  -0.57934  -0.52470  -0.49450  -0.46111
 Alpha  occ. eigenvalues --   -0.42589  -0.40650  -0.39554  -0.38674  -0.37528
 Alpha  occ. eigenvalues --   -0.35912  -0.34232  -0.26420  -0.22183
 Alpha virt. eigenvalues --   -0.04552   0.06449   0.08996   0.12393   0.13318
 Alpha virt. eigenvalues --    0.14066   0.14734   0.18664   0.18884   0.20666
 Alpha virt. eigenvalues --    0.20869   0.23841   0.25428   0.27299   0.38981

 Mulliken charges:
               1
     1  C   -0.299144
     2  C    0.179530
     3  C   -0.299139
     4  N   -0.563712
     5  N   -0.170334
     6  N   -0.220565
     7  H    0.114516
     8  H    0.098780
     9  H    0.131663
    10  H    0.098781
    11  H    0.131662
    12  H    0.114517
    13  H    0.240606
    14  H    0.240607
    15  H    0.202232
 Sum of Mulliken charges =  -0.00000

 Dipole moment (field-independent basis, Debye):
    X=              1.1224    Y=              0.0002    Z=              1.4955  Tot=              1.8698
 Quadrupole moment (field-independent basis, Debye-Ang):
   XX=            -45.5572   YY=            -35.1019   ZZ=            -36.1059
   XY=             -0.0006   XZ=             -4.5351   YZ=             -0.0002

  Exact polarizability:  57.883  -0.000  48.060  -3.714   0.001  51.473
 Approx polarizability:  87.881  -0.001  64.521  -8.681   0.001  76.139

                      1                      2                      3
                      A                      A                      A
 Frequencies --     57.9287               218.9632               267.3561
 Red. masses --      3.0456                 1.0598                 1.0468
 Frc consts  --      0.0060                 0.0299                 0.0441
 IR Inten    --     13.9208                 2.0798                 0.0205

                      4                      5                      6
                      A                      A                      A
 Frequencies --    269.6924               283.3742               330.4339
 Red. masses --      1.2719                 2.7983                 1.8763
 Frc consts  --      0.0545                 0.1324                 0.1207
 IR Inten    --     57.5876                 8.8394                 0.7073

                      7                      8                      9
                      A                      A                      A
 Frequencies --    386.0647               432.6936               437.1126
 Red. masses --      2.5786                 2.8135                 2.5352
 Frc consts  --      0.2264                 0.3104                 0.2854
 IR Inten    --      0.4346                25.3833                17.4304

                     10                     11                     12
                      A                      A                      A
 Frequencies --    567.7303               712.8477               832.1186
 Red. masses --      3.0978                 4.4781                 3.0171
 Frc consts  --      0.5883                 1.3407                 1.2308
 IR Inten    --      0.0677                 1.3439                 0.0580

                     13                     14                     15
                      A                      A                      A
 Frequencies --    895.3963               923.7097               950.4664
 Red. masses --      1.6918                 1.8143                 1.2770
 Frc consts  --      0.7991                 0.9121                 0.6797
 IR Inten    --    161.5073                25.3687                10.4829

                     16                     17                     18
                      A                      A                      A
 Frequencies --   1010.8342              1032.9691              1102.7670
 Red. masses --      1.2587                 1.4806                 1.5273
 Frc consts  --      0.7577                 0.9308                 1.0943
 IR Inten    --      0.9303                16.3795                 0.2709

                     19                     20                     21
                      A                      A                      A
 Frequencies --   1176.8493              1295.9815              1363.5195
 Red. masses --      2.0063                 3.2759                 1.7320
 Frc consts  --      1.6372                 3.2417                 1.8972
 IR Inten    --     45.9454                27.5496                 2.2069

                     22                     23                     24
                      A                      A                      A
 Frequencies --   1411.8213              1425.0460              1477.0179
 Red. masses --      1.3278                 1.2348                 1.2529
 Frc consts  --      1.5594                 1.4774                 1.6105
 IR Inten    --      9.3617                10.0712                64.0354

                     25                     26                     27
                      A                      A                      A
 Frequencies --   1492.9845              1503.9040              1509.1984
 Red. masses --      1.0467                 1.0616                 1.0522
 Frc consts  --      1.3746                 1.4147                 1.4121
 IR Inten    --      0.3874                 1.0259                 2.1302

                     28                     29                     30
                      A                      A                      A
 Frequencies --   1520.3413              1675.0888              1683.4433
 Red. masses --      1.0579                 1.9854                 2.0200
 Frc consts  --      1.4407                 3.2822                 3.3729
 IR Inten    --     17.4322                52.6506                 2.3392

                     31                     32                     33
                      A                      A                      A
 Frequencies --   3020.1405              3049.4159              3053.3370
 Red. masses --      1.0685                 1.0357                 1.0371
 Frc consts  --      5.7424                 5.6741                 5.6965
 IR Inten    --     79.2989                21.8811                 9.3176

                     34                     35                     36
                      A                      A                      A
 Frequencies --   3120.3814              3122.6314              3142.5853
 Red. masses --      1.1025                 1.1018                 1.1024
 Frc consts  --      6.3249                 6.3300                 6.4144
 IR Inten    --     10.8786                34.6990                 2.4851

                     37                     38                     39
                      A                      A                      A
 Frequencies --   3146.6910              3479.2149              3559.6627
 Red. masses --      1.1016                 1.0498                 1.0917
 Frc consts  --      6.4265                 7.4870                 8.1500
 IR Inten    --     22.3507                 0.5700                 0.0155

 - Thermochemistry -
 -------------------
 Temperature   298.150 Kelvin.  Pressure   1.00000 Atm.
 Atom     1 has atomic number  6 and mass  12.00000

 Molecular mass:    87.07965 amu.
 Principal axes and moments of inertia in atomic units:
                           1         2         3
     Eigenvalues --   392.86596 614.09651 625.84545
           X            0.99887  -0.00001  -0.04742
           Y            0.00001   1.00000  -0.00003
           Z            0.04742   0.00003   0.99887
 This molecule is an asymmetric top.
 Rotational symmetry number  1.
 Rotational temperatures (Kelvin)      0.22047     0.14104     0.13839
 Rotational constants (GHZ):           4.59378     2.93886     2.88369
 Zero-point vibrational energy     340587.1 (Joules/Mol)
                                   81.40227 (Kcal/Mol)
 Warning -- explicit consideration of  10 degrees of freedom as
           vibrations may cause significant error
 Vibrational temperatures:     83.35   315.04   384.67   388.03   407.71
          (Kelvin)            475.42   555.46   622.55   628.91   816.84
                             1025.63  1197.23  1288.27  1329.01  1367.51
                             1454.36  1486.21  1586.63  1693.22  1864.63
                             1961.80  2031.29  2050.32  2125.10  2148.07
                             2163.78  2171.40  2187.43  2410.08  2422.10
                             4345.30  4387.42  4393.07  4489.53  4492.76
                             4521.47  4527.38  5005.81  5121.55

 Zero-point correction=                           0.129723 (Hartree/Particle)
 Thermal correction to Energy=                    0.137208
 Thermal correction to Enthalpy=                  0.138152
 Thermal correction to Gibbs Free Energy=         0.098813
 Sum of electronic and zero-point Energies=           -283.818011
 Sum of electronic and thermal Energies=              -283.810526
 Sum of electronic and thermal Enthalpies=            -283.809582
 Sum of electronic and thermal Free Energies=         -283.848920

                     E (Thermal)             CV                S
                      KCal/Mol        Cal/Mol-Kelvin    Cal/Mol-Kelvin
 Total                   86.099             26.861             82.795
 Electronic               0.000              0.000              0.000
 Translational            0.889              2.981             39.306
 Rotational               0.889              2.981             26.515
 Vibrational             84.322             20.899             16.974
 Vibration     1          0.596              1.974              4.527
 Vibration     2          0.647              1.812              1.968
 Vibration     3          0.672              1.733              1.613
 Vibration     4          0.674              1.729              1.598
 Vibration     5          0.682              1.704              1.513
 Vibration     6          0.713              1.615              1.258
 Vibration     7          0.755              1.500              1.015
 Vibration     8          0.794              1.399              0.850
 Vibration     9          0.797              1.389              0.836
 Vibration    10          0.924              1.101              0.509

 Optimization completed.
    -- Stationary point found.
 Normal termination of Gaussian 09 at Thu Sep  8 14:56:50 2022.
