 Gaussian 09, Revision E.01,
 Gaussian 09:  ES64L-G09RevE.01 30-Nov-2015

 --------------------------------
 #P OPT=calcfc Freq B3LYP/6-31G**
 --------------------------------

 --------
 Frag_309
 --------
 Symbolic Z-matrix:
 Charge =  0 Multiplicity = 1

 SCF Done:  E(RB3LYP) =  -250.666153795     A.U. after   14 cycles
 SCF Done:  E(RB3LYP) =  -250.676741404     A.U. after   14 cycles
 SCF Done:  E(RB3LYP) =  -250.667792408     A.U. after   14 cycles
 SCF Done:  E(RB3LYP) =  -250.677079372     A.U. after   10 cycles
 SCF Done:  E(RB3LYP) =  -250.679163851     A.U. after   12 cycles
 SCF Done:  E(RB3LYP) =  -250.678790000     A.U. after   13 cycles
 SCF Done:  E(RB3LYP) =  -250.679424462     A.U. after   10 cycles
 SCF Done:  E(RB3LYP) =  -250.675548164     A.U. after   13 cycles
 SCF Done:  E(RB3LYP) =  -250.679542643     A.U. after    9 cycles
 SCF Done:  E(RB3LYP) =  -250.679556364     A.U. after   10 cycles
 SCF Done:  E(RB3LYP) =  -250.679561840     A.U. after    9 cycles
 SCF Done:  E(RB3LYP) =  -250.679563158     A.U. after    7 cycles
 Optimization completed.
    -- Stationary point found.
 Normal termination of Gaussian 09 at Fri Sep 10 21:20:02 2021.

 ----------------------------------------------------------------------
 #P Geom=AllCheck Guess=TCheck SCRF=Check GenChk RB3LYP/6-31G(d,p) Freq
 ----------------------------------------------------------------------

 Structure from the checkpoint file:  "/public/home/users/caep010/.cache/gau_scr/Gau-45802.chk"
 --------
 Frag_309
 --------
 Charge =  0 Multiplicity = 1

                         Standard orientation:
 ---------------------------------------------------------------------
 Center     Atomic      Atomic             Coordinates (Angstroms)
 Number     Number       Type             X           Y           Z
 ---------------------------------------------------------------------
      1          6           0       -1.140967    1.436010   -0.191485
      2          6           0       -0.707237    0.176771   -0.020329
      3          6           0       -1.682923   -0.959299    0.174436
      4          6           0        0.743663   -0.144254   -0.014486
      5          6           0        1.207350   -1.401451   -0.163849
      6          7           0        1.605422    0.961336    0.096299
      7          1           0       -2.201002    1.669525   -0.174885
      8          1           0       -0.461480    2.257139   -0.389760
      9          1           0       -1.644691   -1.663241   -0.665163
     10          1           0       -2.706201   -0.582978    0.244360
     11          1           0       -1.458325   -1.531124    1.080943
     12          1           0        2.271776   -1.614848   -0.141806
     13          1           0        0.546427   -2.234114   -0.360593
     14          1           0        1.320592    1.624336    0.807724
     15          1           0        2.575627    0.699298    0.219367
 ---------------------------------------------------------------------

 SCF Done:  E(RB3LYP) =  -250.679563158     A.U. after    1 cycles

 The electronic state is 1-A.
 Alpha  occ. eigenvalues --  -14.33073 -10.21898 -10.19638 -10.17899 -10.17420
 Alpha  occ. eigenvalues --  -10.16028  -0.90655  -0.79409  -0.71924  -0.68150
 Alpha  occ. eigenvalues --   -0.59674  -0.52081  -0.50315  -0.46517  -0.43682
 Alpha  occ. eigenvalues --   -0.41408  -0.40154  -0.38673  -0.36362  -0.34254
 Alpha  occ. eigenvalues --   -0.33179  -0.25027  -0.20264
 Alpha virt. eigenvalues --   -0.01083   0.08434   0.10183   0.11872   0.13311
 Alpha virt. eigenvalues --    0.14088   0.16729   0.16901   0.18171   0.20520
 Alpha virt. eigenvalues --    0.21429   0.25686   0.30288   0.34578   0.38291

 Mulliken charges:
               1
     1  C   -0.294719
     2  C    0.135294
     3  C   -0.376055
     4  C    0.291851
     5  C   -0.320506
     6  N   -0.647166
     7  H    0.090711
     8  H    0.104832
     9  H    0.122860
    10  H    0.105415
    11  H    0.120235
    12  H    0.076538
    13  H    0.090299
    14  H    0.250519
    15  H    0.249892
 Sum of Mulliken charges =  -0.00000

 Dipole moment (field-independent basis, Debye):
    X=              0.2957    Y=              0.2471    Z=              1.1685  Tot=              1.2304
 Quadrupole moment (field-independent basis, Debye-Ang):
   XX=            -32.7611   YY=            -36.2337   ZZ=            -39.7231
   XY=              1.1236   XZ=              2.0225   YZ=              2.1197

  Exact polarizability:  68.809 -11.030  82.818   0.411   1.192  31.447
 Approx polarizability:  91.321 -26.171 142.310   0.437   1.776  45.309

                      1                      2                      3
                      A                      A                      A
 Frequencies --     91.1664               204.7082               300.7996
 Red. masses --      3.1504                 1.0413                 2.8034
 Frc consts  --      0.0154                 0.0257                 0.1494
 IR Inten    --      0.3927                 0.4612                 0.7672

                      4                      5                      6
                      A                      A                      A
 Frequencies --    341.1211               377.5579               410.0766
 Red. masses --      1.9959                 1.2408                 2.5068
 Frc consts  --      0.1368                 0.1042                 0.2484
 IR Inten    --     12.1281                23.8049                 0.6810

                      7                      8                      9
                      A                      A                      A
 Frequencies --    487.8120               511.2155               612.4405
 Red. masses --      2.2428                 2.8339                 1.8080
 Frc consts  --      0.3144                 0.4364                 0.3995
 IR Inten    --      6.0593                18.6225                39.8025

                     10                     11                     12
                      A                      A                      A
 Frequencies --    650.2440               750.3605               771.1436
 Red. masses --      1.0648                 2.4919                 1.3538
 Frc consts  --      0.2653                 0.8267                 0.4743
 IR Inten    --     87.2906                 6.7512                45.9475

                     13                     14                     15
                      A                      A                      A
 Frequencies --    794.4025               822.7437               934.4233
 Red. masses --      1.4059                 1.6258                 1.3712
 Frc consts  --      0.5228                 0.6484                 0.7054
 IR Inten    --     21.6325                84.3377                35.6754

                     16                     17                     18
                      A                      A                      A
 Frequencies --    961.6256               998.1438              1029.9931
 Red. masses --      1.8655                 1.5518                 1.3435
 Frc consts  --      1.0164                 0.9109                 0.8398
 IR Inten    --      0.8537                 3.5589                 1.3140

                     19                     20                     21
                      A                      A                      A
 Frequencies --   1076.1170              1136.0770              1253.7741
 Red. masses --      1.4781                 1.4753                 2.1279
 Frc consts  --      1.0085                 1.1219                 1.9708
 IR Inten    --      1.2209                 2.7650                15.7857

                     22                     23                     24
                      A                      A                      A
 Frequencies --   1397.6496              1429.4847              1447.1049
 Red. masses --      2.1248                 1.6544                 1.2600
 Frc consts  --      2.4455                 1.9918                 1.5546
 IR Inten    --     18.5689                 1.5024                 6.1070

                     25                     26                     27
                      A                      A                      A
 Frequencies --   1463.1063              1493.8386              1514.7171
 Red. masses --      1.2109                 1.0475                 1.0627
 Frc consts  --      1.5272                 1.3773                 1.4365
 IR Inten    --      1.6657                 6.1575                 9.5565

                     28                     29                     30
                      A                      A                      A
 Frequencies --   1650.0441              1677.6376              1719.8339
 Red. masses --      1.2387                 3.4373                 4.4754
 Frc consts  --      1.9871                 5.6999                 7.7993
 IR Inten    --     37.3155                79.1375                19.7262

                     31                     32                     33
                      A                      A                      A
 Frequencies --   3042.6650              3098.8970              3133.2288
 Red. masses --      1.0379                 1.0992                 1.1019
 Frc consts  --      5.6611                 6.2192                 6.3735
 IR Inten    --     18.3588                19.4231                18.7406

                     34                     35                     36
                      A                      A                      A
 Frequencies --   3167.0537              3173.0896              3254.5688
 Red. masses --      1.0605                 1.0639                 1.1153
 Frc consts  --      6.2672                 6.3113                 6.9606
 IR Inten    --      6.7546                 7.4405                10.0239

                     37                     38                     39
                      A                      A                      A
 Frequencies --   3273.6121              3540.1365              3644.8263
 Red. masses --      1.1112                 1.0481                 1.0966
 Frc consts  --      7.0162                 7.7389                 8.5835
 IR Inten    --     10.0934                 2.7267                 3.5634

 - Thermochemistry -
 -------------------
 Temperature   298.150 Kelvin.  Pressure   1.00000 Atm.
 Atom     1 has atomic number  6 and mass  12.00000

 Molecular mass:    83.07350 amu.
 Principal axes and moments of inertia in atomic units:
                           1         2         3
     Eigenvalues --   361.08770 539.53016 872.19973
           X            0.99983   0.01802   0.00365
           Y           -0.01804   0.99981   0.00671
           Z           -0.00353  -0.00677   0.99997
 This molecule is an asymmetric top.
 Rotational symmetry number  1.
 Rotational temperatures (Kelvin)      0.23987     0.16054     0.09931
 Rotational constants (GHZ):           4.99807     3.34502     2.06918
 Zero-point vibrational energy     344748.4 (Joules/Mol)
                                   82.39686 (Kcal/Mol)
 Warning -- explicit consideration of   9 degrees of freedom as
           vibrations may cause significant error
 Vibrational temperatures:    131.17   294.53   432.78   490.80   543.22
          (Kelvin)            590.01   701.85   735.52   881.16   935.55
                             1079.60  1109.50  1142.97  1183.74  1344.42
                             1383.56  1436.10  1481.93  1548.29  1634.56
                             1803.90  2010.90  2056.71  2082.06  2105.08
                             2149.30  2179.34  2374.04  2413.74  2474.45
                             4377.71  4458.62  4508.01  4556.68  4565.36
                             4682.59  4709.99  5093.46  5244.09

 Zero-point correction=                           0.131308 (Hartree/Particle)
 Thermal correction to Energy=                    0.138202
 Thermal correction to Enthalpy=                  0.139147
 Thermal correction to Gibbs Free Energy=         0.101237
 Sum of electronic and zero-point Energies=           -250.548255
 Sum of electronic and thermal Energies=              -250.541361
 Sum of electronic and thermal Enthalpies=            -250.540417
 Sum of electronic and thermal Free Energies=         -250.578327

                     E (Thermal)             CV                S
                      KCal/Mol        Cal/Mol-Kelvin    Cal/Mol-Kelvin
 Total                   86.723             26.095             79.788
 Electronic               0.000              0.000              0.000
 Translational            0.889              2.981             39.165
 Rotational               0.889              2.981             26.633
 Vibrational             84.946             20.133             13.990
 Vibration     1          0.602              1.955              3.635
 Vibration     2          0.640              1.833              2.090
 Vibration     3          0.693              1.672              1.412
 Vibration     4          0.721              1.593              1.207
 Vibration     5          0.748              1.518              1.049
 Vibration     6          0.774              1.448              0.926
 Vibration     7          0.844              1.277              0.689
 Vibration     8          0.866              1.225              0.631
 Vibration     9          0.972              1.006              0.429

 Optimization completed.
    -- Stationary point found.
 Normal termination of Gaussian 09 at Fri Sep 10 21:20:13 2021.
