 Gaussian 09, Revision E.01,
 Gaussian 09:  ES64L-G09RevE.01 30-Nov-2015

 ----------------------------
 #P OPT Freq B3LYP/6-31G(d,p)
 ----------------------------

 --------
 Frag_564
 --------
 Symbolic Z-matrix:
 Charge =  0 Multiplicity = 1

 SCF Done:  E(RB3LYP) =  -284.362617156     A.U. after   13 cycles
 SCF Done:  E(RB3LYP) =  -284.362700459     A.U. after    9 cycles
 SCF Done:  E(RB3LYP) =  -284.362708141     A.U. after    8 cycles
 SCF Done:  E(RB3LYP) =  -284.362708896     A.U. after    8 cycles
 Optimization completed.
    -- Stationary point found.
 Normal termination of Gaussian 09 at Thu Sep  8 15:11:45 2022.

 ----------------------------------------------------------------------
 #P Geom=AllCheck Guess=TCheck SCRF=Check GenChk RB3LYP/6-31G(d,p) Freq
 ----------------------------------------------------------------------

 Structure from the checkpoint file:  "B3LYP6-31Gdp.Frag_564.chk"
 --------
 Frag_564
 --------
 Charge =  0 Multiplicity = 1

                         Standard orientation:
 ---------------------------------------------------------------------
 Center     Atomic      Atomic             Coordinates (Angstroms)
 Number     Number       Type             X           Y           Z
 ---------------------------------------------------------------------
      1          6           0       -0.560063    1.371290   -0.000029
      2          6           0       -0.392312   -0.120384    0.000107
      3          8           0       -1.526688   -0.881511   -0.000182
      4          7           0        0.700160   -0.784743    0.000170
      5          8           0        1.824697    0.080518   -0.000045
      6          1           0       -1.121436    1.690345   -0.886300
      7          1           0       -1.119481    1.690740    0.887345
      8          1           0        0.410702    1.863694   -0.001151
      9          1           0       -2.291253   -0.292789    0.000620
     10          1           0        2.550523   -0.556285   -0.000359
 ---------------------------------------------------------------------

 SCF Done:  E(RB3LYP) =  -284.362708896     A.U. after    1 cycles

 The electronic state is 1-A.
 Alpha  occ. eigenvalues --  -19.18276 -19.17533 -14.35852 -10.27413 -10.20149
 Alpha  occ. eigenvalues --   -1.07780  -1.05141  -0.84385  -0.73858  -0.60042
 Alpha  occ. eigenvalues --   -0.50266  -0.47996  -0.47203  -0.45583  -0.40313
 Alpha  occ. eigenvalues --   -0.38824  -0.36873  -0.35037  -0.26942  -0.22268
 Alpha virt. eigenvalues --    0.02918   0.05581   0.08152   0.12578   0.16160
 Alpha virt. eigenvalues --    0.16805   0.17098   0.22190   0.32468   0.38177
 Alpha virt. eigenvalues --    0.53312   0.54710   0.58840   0.61264   0.63709

 Mulliken charges:
               1
     1  C   -0.406091
     2  C    0.507470
     3  O   -0.499622
     4  N   -0.243395
     5  O   -0.440545
     6  H    0.129448
     7  H    0.129511
     8  H    0.168375
     9  H    0.321359
    10  H    0.333489
 Sum of Mulliken charges =  -0.00000

 Dipole moment (field-independent basis, Debye):
    X=             -1.1818    Y=              2.1406    Z=              0.0008  Tot=              2.4451
 Quadrupole moment (field-independent basis, Debye-Ang):
   XX=            -20.3521   YY=            -31.6236   ZZ=            -29.7939
   XY=             -4.2743   XZ=             -0.0056   YZ=              0.0003

  Exact polarizability:  51.796  -4.775  34.132  -0.002   0.002  21.869
 Approx polarizability:  78.692  -7.278  47.868  -0.003   0.004  30.281

                      1                      2                      3
                      A                      A                      A
 Frequencies --     71.0800               163.2310               292.5041
 Red. masses --      1.0986                 1.4418                 1.6018
 Frc consts  --      0.0033                 0.0226                 0.0807
 IR Inten    --     15.5950                78.1874                25.9169

                      4                      5                      6
                      A                      A                      A
 Frequencies --    322.0452               361.9543               445.7881
 Red. masses --      3.7988                 1.5316                 3.0976
 Frc consts  --      0.2321                 0.1182                 0.3627
 IR Inten    --      0.7431               118.2735                 1.9449

                      7                      8                      9
                      A                      A                      A
 Frequencies --    513.5897               612.4420               841.9907
 Red. masses --      3.0507                 7.1760                 4.8559
 Frc consts  --      0.4741                 1.5859                 2.0283
 IR Inten    --      1.7537                 3.1982                 6.3639

                     10                     11                     12
                      A                      A                      A
 Frequencies --    995.2723              1025.5153              1065.3930
 Red. masses --      5.8930                 1.5129                 1.5622
 Frc consts  --      3.4393                 0.9374                 1.0448
 IR Inten    --    192.8613                40.1783                 1.3137

                     13                     14                     15
                      A                      A                      A
 Frequencies --   1248.6636              1330.0563              1409.5953
 Red. masses --      1.3357                 2.0140                 1.2893
 Frc consts  --      1.2270                 2.0991                 1.5094
 IR Inten    --      1.6892               305.3260                21.8790

                     16                     17                     18
                      A                      A                      A
 Frequencies --   1421.6844              1493.7657              1505.4703
 Red. masses --      1.7176                 1.0813                 1.0441
 Frc consts  --      2.0454                 1.4216                 1.3942
 IR Inten    --     28.0186                 1.6522                 9.8905

                     19                     20                     21
                      A                      A                      A
 Frequencies --   1778.9192              3041.2297              3096.5927
 Red. masses --      6.6060                 1.0411                 1.1012
 Frc consts  --     12.3170                 5.6734                 6.2213
 IR Inten    --     67.0122                16.7172                14.2209

                     22                     23                     24
                      A                      A                      A
 Frequencies --   3185.4379              3832.2639              3845.0045
 Red. masses --      1.0965                 1.0679                 1.0665
 Frc consts  --      6.5553                 9.2404                 9.2899
 IR Inten    --      0.7738                70.9113                51.8972

 - Thermochemistry -
 -------------------
 Temperature   298.150 Kelvin.  Pressure   1.00000 Atm.
 Atom     1 has atomic number  6 and mass  12.00000

 Molecular mass:    75.03203 amu.
 Principal axes and moments of inertia in atomic units:
                           1         2         3
     Eigenvalues --   195.19388 426.16560 610.03763
           X            0.99825  -0.05921  -0.00002
           Y            0.05921   0.99825   0.00000
           Z            0.00002  -0.00000   1.00000
 This molecule is an asymmetric top.
 Rotational symmetry number  1.
 Rotational temperatures (Kelvin)      0.44373     0.20324     0.14198
 Rotational constants (GHZ):           9.24589     4.23484     2.95841
 Zero-point vibrational energy     202764.0 (Joules/Mol)
                                   48.46175 (Kcal/Mol)
 Warning -- explicit consideration of   8 degrees of freedom as
           vibrations may cause significant error
 Vibrational temperatures:    102.27   234.85   420.85   463.35   520.77
          (Kelvin)            641.39   738.94   881.17  1211.44  1431.97
                             1475.49  1532.86  1796.55  1913.65  2028.09
                             2045.48  2149.19  2166.03  2559.46  4375.65
                             4455.30  4583.13  5513.77  5532.10

 Zero-point correction=                           0.077229 (Hartree/Particle)
 Thermal correction to Energy=                    0.083495
 Thermal correction to Enthalpy=                  0.084439
 Thermal correction to Gibbs Free Energy=         0.047754
 Sum of electronic and zero-point Energies=           -284.285480
 Sum of electronic and thermal Energies=              -284.279214
 Sum of electronic and thermal Enthalpies=            -284.278270
 Sum of electronic and thermal Free Energies=         -284.314955

                     E (Thermal)             CV                S
                      KCal/Mol        Cal/Mol-Kelvin    Cal/Mol-Kelvin
 Total                   52.394             20.597             77.210
 Electronic               0.000              0.000              0.000
 Translational            0.889              2.981             38.862
 Rotational               0.889              2.981             25.432
 Vibrational             50.616             14.636             12.916
 Vibration     1          0.598              1.968              4.123
 Vibration     2          0.623              1.888              2.512
 Vibration     3          0.688              1.688              1.459
 Vibration     4          0.707              1.631              1.300
 Vibration     5          0.736              1.551              1.114
 Vibration     6          0.805              1.370              0.809
 Vibration     7          0.869              1.220              0.625
 Vibration     8          0.972              1.006              0.429

 Optimization completed.
    -- Stationary point found.
 Normal termination of Gaussian 09 at Thu Sep  8 15:11:53 2022.
