 Gaussian 09, Revision E.01,
 Gaussian 09:  ES64L-G09RevE.01 30-Nov-2015

 --------------------------------
 #P OPT=calcfc Freq B3LYP/6-31G**
 --------------------------------

 --------
 Frag_336
 --------
 Symbolic Z-matrix:
 Charge =  0 Multiplicity = 1

 SCF Done:  E(RB3LYP) =  -247.290304461     A.U. after   15 cycles
 SCF Done:  E(RB3LYP) =  -247.299728898     A.U. after   14 cycles
 SCF Done:  E(RB3LYP) =  -247.298948301     A.U. after   14 cycles
 SCF Done:  E(RB3LYP) =  -247.299968219     A.U. after   11 cycles
 SCF Done:  E(RB3LYP) =  -247.300458332     A.U. after   13 cycles
 SCF Done:  E(RB3LYP) =  -247.300384882     A.U. after   13 cycles
 SCF Done:  E(RB3LYP) =  -247.300512707     A.U. after   10 cycles
 SCF Done:  E(RB3LYP) =  -247.300572408     A.U. after   11 cycles
 SCF Done:  E(RB3LYP) =  -247.300579229     A.U. after    9 cycles
 SCF Done:  E(RB3LYP) =  -247.300579757     A.U. after    8 cycles
 Optimization completed.
    -- Stationary point found.
 Normal termination of Gaussian 09 at Fri Sep 10 21:21:24 2021.

 ----------------------------------------------------------------------
 #P Geom=AllCheck Guess=TCheck SCRF=Check GenChk RB3LYP/6-31G(d,p) Freq
 ----------------------------------------------------------------------

 Structure from the checkpoint file:  "/public/home/users/caep010/.cache/gau_scr/Gau-55365.chk"
 --------
 Frag_336
 --------
 Charge =  0 Multiplicity = 1

                         Standard orientation:
 ---------------------------------------------------------------------
 Center     Atomic      Atomic             Coordinates (Angstroms)
 Number     Number       Type             X           Y           Z
 ---------------------------------------------------------------------
      1          6           0       -1.938092    0.111315   -0.124118
      2          6           0       -0.846721   -0.600418    0.166075
      3          6           0        0.566061   -0.131205    0.022537
      4          7           0        0.765678    1.229295    0.023407
      5          8           0        1.483172   -0.928482   -0.124835
      6          1           0       -1.883330    1.132138   -0.492508
      7          1           0       -2.932151   -0.315243   -0.032074
      8          1           0       -0.921353   -1.638389    0.477524
      9          1           0        1.730269    1.527744    0.031470
     10          1           0        0.093952    1.838386    0.463459
 ---------------------------------------------------------------------

 SCF Done:  E(RB3LYP) =  -247.300579757     A.U. after    1 cycles

 The electronic state is 1-A.
 Alpha  occ. eigenvalues --  -19.11254 -14.35594 -10.29044 -10.20730 -10.20499
 Alpha  occ. eigenvalues --   -1.02973  -0.90299  -0.78580  -0.64052  -0.57139
 Alpha  occ. eigenvalues --   -0.53989  -0.47049  -0.46149  -0.40636  -0.40426
 Alpha  occ. eigenvalues --   -0.37830  -0.28430  -0.27186  -0.24910
 Alpha virt. eigenvalues --   -0.03700   0.07029   0.08920   0.12019   0.13059
 Alpha virt. eigenvalues --    0.15198   0.19200   0.28112   0.30167   0.32230
 Alpha virt. eigenvalues --    0.40106   0.51737   0.52895   0.54128   0.59895

 Mulliken charges:
               1
     1  C   -0.235841
     2  C   -0.076861
     3  C    0.542319
     4  N   -0.613834
     5  O   -0.497038
     6  H    0.107028
     7  H    0.117165
     8  H    0.116469
     9  H    0.276643
    10  H    0.263950
 Sum of Mulliken charges =   0.00000

 Dipole moment (field-independent basis, Debye):
    X=             -2.1750    Y=              2.8203    Z=              1.0033  Tot=              3.7002
 Quadrupole moment (field-independent basis, Debye-Ang):
   XX=            -28.8660   YY=            -26.6406   ZZ=            -30.5504
   XY=              4.6605   XZ=              0.7077   YZ=              0.3675

  Exact polarizability:  54.957  -4.680  43.873   0.857  -2.511  19.214
 Approx polarizability:  83.007 -19.754  70.101   1.829  -4.057  27.620

                      1                      2                      3
                      A                      A                      A
 Frequencies --    108.5491               275.6025               387.3635
 Red. masses --      2.4605                 2.9587                 1.2885
 Frc consts  --      0.0171                 0.1324                 0.1139
 IR Inten    --      2.8025                 9.9347               166.1537

                      4                      5                      6
                      A                      A                      A
 Frequencies --    432.1137               523.0267               563.1628
 Red. masses --      1.4655                 3.1565                 1.6513
 Frc consts  --      0.1612                 0.5088                 0.3086
 IR Inten    --     39.7780                 9.4370                12.9311

                      7                      8                      9
                      A                      A                      A
 Frequencies --    596.2946               813.0609               825.3049
 Red. masses --      1.6305                 3.8993                 2.5202
 Frc consts  --      0.3416                 1.5187                 1.0114
 IR Inten    --     25.9435                27.9483                 5.8608

                     10                     11                     12
                      A                      A                      A
 Frequencies --    973.2888              1036.7338              1043.8219
 Red. masses --      1.3658                 1.0890                 1.6094
 Frc consts  --      0.7623                 0.6896                 1.0332
 IR Inten    --     29.1496                15.7410                16.4692

                     13                     14                     15
                      A                      A                      A
 Frequencies --   1118.8124              1308.2241              1365.6910
 Red. masses --      1.5854                 1.3150                 2.9062
 Frc consts  --      1.1692                 1.3260                 3.1936
 IR Inten    --      1.8773                 0.9340               109.3407

                     16                     17                     18
                      A                      A                      A
 Frequencies --   1460.3010              1623.7917              1701.5510
 Red. masses --      1.3198                 1.2589                 4.4650
 Frc consts  --      1.6582                 1.9557                 7.6167
 IR Inten    --     28.0304                99.1767                25.4476

                     19                     20                     21
                      A                      A                      A
 Frequencies --   1793.1838              3158.3106              3199.9563
 Red. masses --      8.2147                 1.0596                 1.0935
 Frc consts  --     15.5630                 6.2275                 6.5973
 IR Inten    --    264.4619                 5.1789                 1.3951

                     22                     23                     24
                      A                      A                      A
 Frequencies --   3244.1555              3594.7114              3727.1322
 Red. masses --      1.1154                 1.0456                 1.1030
 Frc consts  --      6.9163                 7.9609                 9.0278
 IR Inten    --     11.2379                28.7887                29.4300

 - Thermochemistry -
 -------------------
 Temperature   298.150 Kelvin.  Pressure   1.00000 Atm.
 Atom     1 has atomic number  6 and mass  12.00000

 Molecular mass:    71.03711 amu.
 Principal axes and moments of inertia in atomic units:
                           1         2         3
     Eigenvalues --   181.17514 422.89163 593.62507
           X            0.99903   0.04365   0.00542
           Y           -0.04360   0.99902  -0.00822
           Z           -0.00577   0.00798   0.99995
 This molecule is an asymmetric top.
 Rotational symmetry number  1.
 Rotational temperatures (Kelvin)      0.47807     0.20481     0.14591
 Rotational constants (GHZ):           9.96131     4.26762     3.04020
 Zero-point vibrational energy     208593.7 (Joules/Mol)
                                   49.85509 (Kcal/Mol)
 Warning -- explicit consideration of   7 degrees of freedom as
           vibrations may cause significant error
 Vibrational temperatures:    156.18   396.53   557.33   621.71   752.52
          (Kelvin)            810.26   857.93  1169.81  1187.43  1400.34
                             1491.63  1501.83  1609.72  1882.24  1964.92
                             2101.04  2336.27  2448.15  2579.99  4544.10
                             4604.02  4667.61  5171.98  5362.51

 Zero-point correction=                           0.079449 (Hartree/Particle)
 Thermal correction to Energy=                    0.084909
 Thermal correction to Enthalpy=                  0.085853
 Thermal correction to Gibbs Free Energy=         0.051122
 Sum of electronic and zero-point Energies=           -247.221131
 Sum of electronic and thermal Energies=              -247.215671
 Sum of electronic and thermal Enthalpies=            -247.214727
 Sum of electronic and thermal Free Energies=         -247.249458

                     E (Thermal)             CV                S
                      KCal/Mol        Cal/Mol-Kelvin    Cal/Mol-Kelvin
 Total                   53.281             18.911             73.098
 Electronic               0.000              0.000              0.000
 Translational            0.889              2.981             38.699
 Rotational               0.889              2.981             25.323
 Vibrational             51.504             12.949              9.076
 Vibration     1          0.606              1.942              3.295
 Vibration     2          0.677              1.718              1.561
 Vibration     3          0.756              1.497              1.010
 Vibration     4          0.793              1.400              0.852
 Vibration     5          0.878              1.199              0.603
 Vibration     6          0.919              1.111              0.518
 Vibration     7          0.954              1.040              0.456

 Optimization completed.
    -- Stationary point found.
 Normal termination of Gaussian 09 at Fri Sep 10 21:21:31 2021.
