 Gaussian 09, Revision E.01,
 Gaussian 09:  ES64L-G09RevE.01 30-Nov-2015

 ----------------------------
 #P OPT Freq B3LYP/6-31G(d,p)
 ----------------------------

 --------
 Frag_973
 --------
 Symbolic Z-matrix:
 Charge =  0 Multiplicity = 1

 SCF Done:  E(RB3LYP) =  -364.259365175     A.U. after   12 cycles
 SCF Done:  E(RB3LYP) =  -364.259416855     A.U. after   10 cycles
 SCF Done:  E(RB3LYP) =  -364.259412005     A.U. after    9 cycles
 SCF Done:  E(RB3LYP) =  -364.259419017     A.U. after    9 cycles
 SCF Done:  E(RB3LYP) =  -364.259419202     A.U. after    7 cycles
 Optimization completed.
    -- Stationary point found.
 Normal termination of Gaussian 09 at Thu Sep  8 15:00:54 2022.

 ----------------------------------------------------------------------
 #P Geom=AllCheck Guess=TCheck SCRF=Check GenChk RB3LYP/6-31G(d,p) Freq
 ----------------------------------------------------------------------

 Structure from the checkpoint file:  "B3LYP6-31Gdp.Frag_973.chk"
 --------
 Frag_973
 --------
 Charge =  0 Multiplicity = 1

                         Standard orientation:
 ---------------------------------------------------------------------
 Center     Atomic      Atomic             Coordinates (Angstroms)
 Number     Number       Type             X           Y           Z
 ---------------------------------------------------------------------
      1          6           0       -1.387601    1.208629   -0.495253
      2          6           0       -0.622733   -0.033377   -0.017058
      3          6           0       -0.716649   -0.157159    1.518202
      4          7           0       -1.161576   -1.203724   -0.728620
      5          6           0        0.853592    0.065427   -0.466316
      6          8           0        1.418076    1.219556    0.113654
      7          8           0        1.608456   -1.086863   -0.131308
      8          1           0       -1.003741    2.114519   -0.021293
      9          1           0       -2.451764    1.114135   -0.250268
     10          1           0       -1.303630    1.311986   -1.581093
     11          1           0       -1.766649   -0.208300    1.825510
     12          1           0       -0.232824   -1.075435    1.872476
     13          1           0       -0.253685    0.695953    2.023021
     14          1           0       -0.608573   -2.022594   -0.483638
     15          1           0       -2.114686   -1.381744   -0.419387
     16          1           0        0.879887    0.099595   -1.562736
     17          1           0        2.317552    1.299530   -0.231915
     18          1           0        1.697235   -1.084245    0.833446
 ---------------------------------------------------------------------

 SCF Done:  E(RB3LYP) =  -364.259419202     A.U. after    1 cycles

 The electronic state is 1-A.
 Alpha  occ. eigenvalues --  -19.15501 -19.15258 -14.30338 -10.27685 -10.21654
 Alpha  occ. eigenvalues --  -10.17387 -10.16651  -1.06288  -0.99319  -0.88246
 Alpha  occ. eigenvalues --   -0.75092  -0.68635  -0.66794  -0.56298  -0.54279
 Alpha  occ. eigenvalues --   -0.48949  -0.47247  -0.44082  -0.42267  -0.41388
 Alpha  occ. eigenvalues --   -0.39879  -0.37754  -0.37611  -0.35904  -0.33668
 Alpha  occ. eigenvalues --   -0.31933  -0.30277  -0.27366  -0.23033
 Alpha virt. eigenvalues --    0.06624   0.08653   0.10363   0.13448   0.14391
 Alpha virt. eigenvalues --    0.15201   0.16458   0.17955   0.18180   0.20327
 Alpha virt. eigenvalues --    0.21765   0.22351   0.23861   0.24787   0.27007

 Mulliken charges:
               1
     1  C   -0.292634
     2  C    0.116428
     3  C   -0.327307
     4  N   -0.593154
     5  C    0.379850
     6  O   -0.537016
     7  O   -0.545346
     8  H    0.118330
     9  H    0.088482
    10  H    0.109063
    11  H    0.097786
    12  H    0.079990
    13  H    0.121752
    14  H    0.241119
    15  H    0.229085
    16  H    0.101641
    17  H    0.310079
    18  H    0.301852
 Sum of Mulliken charges =  -0.00000

 Dipole moment (field-independent basis, Debye):
    X=              0.2985    Y=              0.0372    Z=              1.3935  Tot=              1.4256
 Quadrupole moment (field-independent basis, Debye-Ang):
   XX=            -38.9543   YY=            -44.4547   ZZ=            -45.0308
   XY=              2.9686   XZ=             -1.0109   YZ=             -4.1261

  Exact polarizability:  60.627   0.602  57.082   0.115  -0.642  54.337
 Approx polarizability:  80.332   0.326  79.823   0.278   1.600  75.446

                      1                      2                      3
                      A                      A                      A
 Frequencies --    110.1076               225.7878               241.4016
 Red. masses --      4.1352                 1.0627                 2.4947
 Frc consts  --      0.0295                 0.0319                 0.0857
 IR Inten    --      0.7642                 0.9152                 1.4663

                      4                      5                      6
                      A                      A                      A
 Frequencies --    252.1092               289.9519               304.5423
 Red. masses --      1.4581                 1.7572                 1.2036
 Frc consts  --      0.0546                 0.0870                 0.0658
 IR Inten    --      0.6122                 1.7153                33.3492

                      7                      8                      9
                      A                      A                      A
 Frequencies --    328.3118               357.6260               365.9414
 Red. masses --      1.2555                 2.2597                 2.4077
 Frc consts  --      0.0797                 0.1703                 0.1900
 IR Inten    --    115.7047                 9.8301                19.3677

                     10                     11                     12
                      A                      A                      A
 Frequencies --    417.9084               435.9778               502.5113
 Red. masses --      1.7909                 1.7269                 3.5844
 Frc consts  --      0.1843                 0.1934                 0.5333
 IR Inten    --     26.5240                20.4173                 9.4813

                     13                     14                     15
                      A                      A                      A
 Frequencies --    554.7170               621.2321               752.4333
 Red. masses --      2.2179                 3.5019                 3.1332
 Frc consts  --      0.4021                 0.7963                 1.0452
 IR Inten    --     81.7573                32.9344                14.0977

                     16                     17                     18
                      A                      A                      A
 Frequencies --    873.6459               919.6107               937.2696
 Red. masses --      1.8062                 1.5440                 1.4959
 Frc consts  --      0.8122                 0.7693                 0.7743
 IR Inten    --     96.9355                73.0147                 1.7152

                     19                     20                     21
                      A                      A                      A
 Frequencies --    979.4975              1016.6210              1046.5463
 Red. masses --      1.7822                 1.4800                 2.6808
 Frc consts  --      1.0075                 0.9012                 1.7300
 IR Inten    --      2.3177                16.7241               138.7761

                     22                     23                     24
                      A                      A                      A
 Frequencies --   1087.3024              1102.8479              1179.4578
 Red. masses --      4.1847                 1.5016                 1.6249
 Frc consts  --      2.9148                 1.0760                 1.3318
 IR Inten    --    106.9863                 7.2964                92.5979

                     25                     26                     27
                      A                      A                      A
 Frequencies --   1261.2489              1279.5649              1301.5096
 Red. masses --      2.0976                 1.6680                 1.6065
 Frc consts  --      1.9659                 1.6091                 1.6034
 IR Inten    --     10.6661                 4.7614                29.6663

                     28                     29                     30
                      A                      A                      A
 Frequencies --   1348.7125              1404.4013              1417.8437
 Red. masses --      1.6413                 1.2829                 1.3646
 Frc consts  --      1.7591                 1.4909                 1.6162
 IR Inten    --      7.0722                 7.5039                 4.6592

                     31                     32                     33
                      A                      A                      A
 Frequencies --   1434.3526              1454.2619              1499.8293
 Red. masses --      1.2318                 1.3905                 1.0511
 Frc consts  --      1.4931                 1.7327                 1.3930
 IR Inten    --     10.0707                55.6713                 2.2265

                     34                     35                     36
                      A                      A                      A
 Frequencies --   1501.7044              1515.8697              1528.5891
 Red. masses --      1.0479                 1.0583                 1.0887
 Frc consts  --      1.3923                 1.4327                 1.4987
 IR Inten    --      0.4765                 3.9703                 8.3220

                     37                     38                     39
                      A                      A                      A
 Frequencies --   1652.4954              3034.2755              3045.9193
 Red. masses --      1.0989                 1.0369                 1.0401
 Frc consts  --      1.7680                 5.6245                 5.6853
 IR Inten    --     33.6510                29.3603                17.4733

                     40                     41                     42
                      A                      A                      A
 Frequencies --   3057.0130              3099.3577              3113.2004
 Red. masses --      1.0852                 1.0998                 1.0993
 Frc consts  --      5.9755                 6.2248                 6.2776
 IR Inten    --     39.4770                34.0762                27.3813

                     43                     44                     45
                      A                      A                      A
 Frequencies --   3124.5738              3147.3835              3483.6005
 Red. masses --      1.1022                 1.1020                 1.0488
 Frc consts  --      6.3402                 6.4319                 7.4991
 IR Inten    --     22.0016                20.5720                 2.1561

                     46                     47                     48
                      A                      A                      A
 Frequencies --   3573.7659              3784.0740              3810.1575
 Red. masses --      1.0929                 1.0649                 1.0660
 Frc consts  --      8.2237                 8.9843                 9.1177
 IR Inten    --      0.1598                13.9230                26.0116

 - Thermochemistry -
 -------------------
 Temperature   298.150 Kelvin.  Pressure   1.00000 Atm.
 Atom     1 has atomic number  6 and mass  12.00000

 Molecular mass:   105.07898 amu.
 Principal axes and moments of inertia in atomic units:
                           1         2         3
     Eigenvalues --   561.71258 782.08462 929.02666
           X            0.99988  -0.01319  -0.00799
           Y            0.01254   0.99699  -0.07655
           Z            0.00898   0.07644   0.99703
 This molecule is an asymmetric top.
 Rotational symmetry number  1.
 Warning -- assumption of classical behavior for rotation
           may cause significant error
 Rotational temperatures (Kelvin)      0.15420     0.11075     0.09323
 Rotational constants (GHZ):           3.21293     2.30760     1.94262
 Zero-point vibrational energy     417359.5 (Joules/Mol)
                                   99.75132 (Kcal/Mol)
 Warning -- explicit consideration of  13 degrees of freedom as
           vibrations may cause significant error
 Vibrational temperatures:    158.42   324.86   347.32   362.73   417.18
          (Kelvin)            438.17   472.37   514.54   526.51   601.28
                              627.27   723.00   798.11   893.81  1082.58
                             1256.98  1323.11  1348.52  1409.28  1462.69
                             1505.74  1564.38  1586.75  1696.97  1814.65
                             1841.01  1872.58  1940.49  2020.62  2039.96
                             2063.71  2092.36  2157.92  2160.62  2181.00
                             2199.30  2377.57  4365.64  4382.39  4398.35
                             4459.28  4479.20  4495.56  4528.38  5012.12
                             5141.85  5444.43  5481.96

 Zero-point correction=                           0.158964 (Hartree/Particle)
 Thermal correction to Energy=                    0.167589
 Thermal correction to Enthalpy=                  0.168533
 Thermal correction to Gibbs Free Energy=         0.127159
 Sum of electronic and zero-point Energies=           -364.100455
 Sum of electronic and thermal Energies=              -364.091830
 Sum of electronic and thermal Enthalpies=            -364.090886
 Sum of electronic and thermal Free Energies=         -364.132260

                     E (Thermal)             CV                S
                      KCal/Mol        Cal/Mol-Kelvin    Cal/Mol-Kelvin
 Total                  105.164             32.891             87.079
 Electronic               0.000              0.000              0.000
 Translational            0.889              2.981             39.866
 Rotational               0.889              2.981             27.503
 Vibrational            103.386             26.929             19.710
 Vibration     1          0.606              1.941              3.267
 Vibration     2          0.650              1.802              1.912
 Vibration     3          0.658              1.777              1.793
 Vibration     4          0.664              1.759              1.716
 Vibration     5          0.686              1.692              1.474
 Vibration     6          0.695              1.665              1.392
 Vibration     7          0.712              1.619              1.268
 Vibration     8          0.733              1.560              1.132
 Vibration     9          0.739              1.542              1.097
 Vibration    10          0.781              1.431              0.899
 Vibration    11          0.796              1.392              0.839
 Vibration    12          0.858              1.244              0.652
 Vibration    13          0.910              1.129              0.534

 Normal termination of Gaussian 09 at Thu Sep  8 15:01:12 2022.
