 Gaussian 09, Revision E.01,
 Gaussian 09:  ES64L-G09RevE.01 30-Nov-2015

 ----------------------------
 #P OPT Freq B3LYP/6-31G(d,p)
 ----------------------------

 --------
 Frag_689
 --------
 Symbolic Z-matrix:
 Charge =  0 Multiplicity = 1

 SCF Done:  E(RB3LYP) =  -302.635966817     A.U. after   15 cycles
 SCF Done:  E(RB3LYP) =  -302.636046376     A.U. after    9 cycles
 SCF Done:  E(RB3LYP) =  -302.636049877     A.U. after    9 cycles
 SCF Done:  E(RB3LYP) =  -302.636050510     A.U. after    8 cycles
 SCF Done:  E(RB3LYP) =  -302.636050666     A.U. after    7 cycles
 Optimization completed.
    -- Stationary point found.
 Normal termination of Gaussian 09 at Thu Sep  8 15:07:07 2022.

 ----------------------------------------------------------------------
 #P Geom=AllCheck Guess=TCheck SCRF=Check GenChk RB3LYP/6-31G(d,p) Freq
 ----------------------------------------------------------------------

 Structure from the checkpoint file:  "B3LYP6-31Gdp.Frag_689.chk"
 --------
 Frag_689
 --------
 Charge =  0 Multiplicity = 1

                         Standard orientation:
 ---------------------------------------------------------------------
 Center     Atomic      Atomic             Coordinates (Angstroms)
 Number     Number       Type             X           Y           Z
 ---------------------------------------------------------------------
      1          6           0        1.568215    1.037961    0.262588
      2          6           0        0.729478    0.031513   -0.005523
      3          8           0        1.124361   -1.251629   -0.289016
      4          6           0       -0.767884    0.168482   -0.016133
      5          7           0       -1.419243    1.246204   -0.263568
      6          7           0       -1.431073   -0.986631    0.328775
      7          1           0        1.189851    2.016605    0.525432
      8          1           0        2.645759    0.906049    0.245411
      9          1           0        2.084173   -1.317380   -0.191802
     10          1           0       -0.775630    2.001911   -0.494213
     11          1           0       -2.421501   -0.980492    0.133467
     12          1           0       -0.944183   -1.858399    0.191792
 ---------------------------------------------------------------------

 SCF Done:  E(RB3LYP) =  -302.636050666     A.U. after    1 cycles

 The electronic state is 1-A.
 Alpha  occ. eigenvalues --  -19.19543 -14.33699 -14.28749 -10.26262 -10.25716
 Alpha  occ. eigenvalues --  -10.18619  -1.07478  -0.93597  -0.84215  -0.76230
 Alpha  occ. eigenvalues --   -0.65797  -0.57253  -0.53501  -0.51036  -0.47275
 Alpha  occ. eigenvalues --   -0.44329  -0.41639  -0.40037  -0.38349  -0.35305
 Alpha  occ. eigenvalues --   -0.26118  -0.24401  -0.22505
 Alpha virt. eigenvalues --   -0.01471   0.05497   0.09276   0.10655   0.12169
 Alpha virt. eigenvalues --    0.14716   0.15942   0.19029   0.25253   0.30184
 Alpha virt. eigenvalues --    0.34695   0.36308   0.42456   0.53509   0.56111

 Mulliken charges:
               1
     1  C   -0.320982
     2  C    0.349757
     3  O   -0.553225
     4  C    0.413730
     5  N   -0.585190
     6  N   -0.602170
     7  H    0.115463
     8  H    0.090006
     9  H    0.322828
    10  H    0.218619
    11  H    0.271541
    12  H    0.279621
 Sum of Mulliken charges =  -0.00000

 Dipole moment (field-independent basis, Debye):
    X=              2.8483    Y=             -1.7598    Z=             -0.1538  Tot=              3.3516
 Quadrupole moment (field-independent basis, Debye-Ang):
   XX=            -31.2526   YY=            -32.2066   ZZ=            -38.4657
   XY=              3.5323   XZ=              0.2530   YZ=              0.2564

  Exact polarizability:  58.725   4.037  59.667   2.363  -0.606  22.996
 Approx polarizability:  81.537   5.650  99.750   5.459  -1.865  34.400

                      1                      2                      3
                      A                      A                      A
 Frequencies --     80.6729               292.4410               339.6951
 Red. masses --      4.4962                 3.6449                 2.1837
 Frc consts  --      0.0172                 0.1837                 0.1485
 IR Inten    --      1.7716                 3.8088                46.1218

                      4                      5                      6
                      A                      A                      A
 Frequencies --    405.9762               416.5388               435.4047
 Red. masses --      1.7398                 1.2379                 1.6640
 Frc consts  --      0.1690                 0.1265                 0.1859
 IR Inten    --     43.4734                69.6460                53.1042

                      7                      8                      9
                      A                      A                      A
 Frequencies --    535.0179               542.2279               582.0085
 Red. masses --      1.3957                 2.5146                 3.0066
 Frc consts  --      0.2354                 0.4356                 0.6000
 IR Inten    --    196.5820                15.5388                31.8202

                     10                     11                     12
                      A                      A                      A
 Frequencies --    717.8827               760.1086               779.9619
 Red. masses --      1.2841                 3.8622                 3.2379
 Frc consts  --      0.3899                 1.3147                 1.1605
 IR Inten    --      5.0938                18.0200                 8.1141

                     13                     14                     15
                      A                      A                      A
 Frequencies --    828.6630               834.4301               972.9520
 Red. masses --      1.2201                 1.3096                 1.8532
 Frc consts  --      0.4936                 0.5373                 1.0336
 IR Inten    --    103.3208                 8.4823                17.9572

                     16                     17                     18
                      A                      A                      A
 Frequencies --   1126.8420              1149.6184              1188.5582
 Red. masses --      1.7961                 1.4171                 1.5656
 Frc consts  --      1.3437                 1.1035                 1.3030
 IR Inten    --     58.6580                12.3460               271.7811

                     19                     20                     21
                      A                      A                      A
 Frequencies --   1344.1316              1432.5138              1470.9743
 Red. masses --      1.9137                 1.5998                 1.7455
 Frc consts  --      2.0371                 1.9342                 2.2252
 IR Inten    --     24.5748                31.5967                51.2653

                     22                     23                     24
                      A                      A                      A
 Frequencies --   1622.1679              1704.2290              1740.2194
 Red. masses --      1.2838                 6.6692                 5.5248
 Frc consts  --      1.9904                11.4125                 9.8578
 IR Inten    --    102.3970               226.5781                24.7401

                     25                     26                     27
                      A                      A                      A
 Frequencies --   3174.5447              3273.8277              3520.2318
 Red. masses --      1.0641                 1.1132                 1.0745
 Frc consts  --      6.3182                 7.0296                 7.8452
 IR Inten    --      4.2352                 4.1006                 0.3081

                     28                     29                     30
                      A                      A                      A
 Frequencies --   3597.7141              3727.5486              3811.5010
 Red. masses --      1.0458                 1.1021                 1.0659
 Frc consts  --      7.9751                 9.0223                 9.1235
 IR Inten    --     32.8393                45.6178                26.6098

 - Thermochemistry -
 -------------------
 Temperature   298.150 Kelvin.  Pressure   1.00000 Atm.
 Atom     1 has atomic number  6 and mass  12.00000

 Molecular mass:    86.04801 amu.
 Principal axes and moments of inertia in atomic units:
                           1         2         3
     Eigenvalues --   334.92895 521.55662 818.45835
           X            0.99607   0.08836   0.00563
           Y           -0.08837   0.99609   0.00109
           Z           -0.00551  -0.00158   0.99998
 This molecule is an asymmetric top.
 Rotational symmetry number  1.
 Rotational temperatures (Kelvin)      0.25860     0.16607     0.10583
 Rotational constants (GHZ):           5.38843     3.46030     2.20505
 Zero-point vibrational energy     253659.8 (Joules/Mol)
                                   60.62614 (Kcal/Mol)
 Warning -- explicit consideration of   9 degrees of freedom as
           vibrations may cause significant error
 Vibrational temperatures:    116.07   420.76   488.74   584.11   599.31
          (Kelvin)            626.45   769.77   780.14   837.38  1032.87
                             1093.63  1122.19  1192.26  1200.56  1399.86
                             1621.27  1654.04  1710.07  1933.90  2061.07
                             2116.40  2333.93  2452.00  2503.78  4567.46
                             4710.30  5064.82  5176.30  5363.10  5483.89

 Zero-point correction=                           0.096614 (Hartree/Particle)
 Thermal correction to Energy=                    0.103009
 Thermal correction to Enthalpy=                  0.103953
 Thermal correction to Gibbs Free Energy=         0.066882
 Sum of electronic and zero-point Energies=           -302.539437
 Sum of electronic and thermal Energies=              -302.533041
 Sum of electronic and thermal Enthalpies=            -302.532097
 Sum of electronic and thermal Free Energies=         -302.569169

                     E (Thermal)             CV                S
                      KCal/Mol        Cal/Mol-Kelvin    Cal/Mol-Kelvin
 Total                   64.639             23.831             78.024
 Electronic               0.000              0.000              0.000
 Translational            0.889              2.981             39.270
 Rotational               0.889              2.981             26.461
 Vibrational             62.862             17.869             12.293
 Vibration     1          0.600              1.962              3.874
 Vibration     2          0.688              1.688              1.460
 Vibration     3          0.720              1.596              1.214
 Vibration     4          0.771              1.457              0.941
 Vibration     5          0.780              1.434              0.904
 Vibration     6          0.796              1.393              0.841
 Vibration     7          0.890              1.173              0.576
 Vibration     8          0.897              1.157              0.561
 Vibration     9          0.939              1.070              0.482

 Optimization completed.
    -- Stationary point found.
 Normal termination of Gaussian 09 at Thu Sep  8 15:07:17 2022.
