 Gaussian 09, Revision E.01,
 Gaussian 09:  ES64L-G09RevE.01 30-Nov-2015

 ----------------------------
 #P OPT Freq B3LYP/6-31G(d,p)
 ----------------------------

 --------
 Frag_644
 --------
 Symbolic Z-matrix:
 Charge =  0 Multiplicity = 1

 SCF Done:  E(RB3LYP) =  -280.561606758     A.U. after   14 cycles
 SCF Done:  E(RB3LYP) =  -280.561693764     A.U. after   10 cycles
 SCF Done:  E(RB3LYP) =  -280.561706085     A.U. after    9 cycles
 SCF Done:  E(RB3LYP) =  -280.561708270     A.U. after    8 cycles
 SCF Done:  E(RB3LYP) =  -280.561708644     A.U. after    8 cycles
 Optimization completed.
    -- Stationary point found.
 Normal termination of Gaussian 09 at Thu Sep  8 15:23:42 2022.

 ----------------------------------------------------------------------
 #P Geom=AllCheck Guess=TCheck SCRF=Check GenChk RB3LYP/6-31G(d,p) Freq
 ----------------------------------------------------------------------

 Structure from the checkpoint file:  "B3LYP6-31Gdp.Frag_644.chk"
 --------
 Frag_644
 --------
 Charge =  0 Multiplicity = 1

                         Standard orientation:
 ---------------------------------------------------------------------
 Center     Atomic      Atomic             Coordinates (Angstroms)
 Number     Number       Type             X           Y           Z
 ---------------------------------------------------------------------
      1          7           0        1.885145   -0.083393    0.088261
      2          7           0        0.657109   -0.762247    0.048052
      3          6           0       -0.395409   -0.048434    0.018717
      4          7           0       -1.681303   -0.599542   -0.107146
      5          8           0       -0.372515    1.323024    0.045014
      6          1           0        2.558004   -0.657049   -0.409273
      7          1           0        1.828012    0.834986   -0.354957
      8          1           0       -1.612072   -1.607103   -0.204273
      9          1           0       -2.271993   -0.377934    0.691994
     10          1           0       -1.176038    1.629776   -0.400080
 ---------------------------------------------------------------------

 SCF Done:  E(RB3LYP) =  -280.561708644     A.U. after    1 cycles

 The electronic state is 1-A.
 Alpha  occ. eigenvalues --  -19.18392 -14.34739 -14.33703 -14.32902 -10.28700
 Alpha  occ. eigenvalues --   -1.07586  -0.95683  -0.90268  -0.77148  -0.59772
 Alpha  occ. eigenvalues --   -0.55079  -0.52635  -0.48749  -0.45692  -0.42286
 Alpha  occ. eigenvalues --   -0.37603  -0.32600  -0.29621  -0.26865  -0.19449
 Alpha virt. eigenvalues --    0.05311   0.06147   0.09471   0.12399   0.14601
 Alpha virt. eigenvalues --    0.16996   0.21300   0.24710   0.35560   0.42986
 Alpha virt. eigenvalues --    0.56440   0.59040   0.62216   0.62538   0.68201

 Mulliken charges:
               1
     1  N   -0.449370
     2  N   -0.359773
     3  C    0.612898
     4  N   -0.637151
     5  O   -0.527312
     6  H    0.256012
     7  H    0.246457
     8  H    0.273531
     9  H    0.261332
    10  H    0.323376
 Sum of Mulliken charges =  -0.00000

 Dipole moment (field-independent basis, Debye):
    X=             -2.0437    Y=              0.6032    Z=             -1.1056  Tot=              2.4006
 Quadrupole moment (field-independent basis, Debye-Ang):
   XX=            -23.7247   YY=            -27.6621   ZZ=            -30.2849
   XY=              0.0574   XZ=             -5.4795   YZ=             -1.3634

  Exact polarizability:  54.718  -2.265  35.210  -1.929  -0.252  19.652
 Approx polarizability:  78.475  -8.630  52.782  -0.421   0.076  27.832

                      1                      2                      3
                      A                      A                      A
 Frequencies --    274.7732               297.6749               317.9765
 Red. masses --      3.0384                 3.0336                 1.1887
 Frc consts  --      0.1352                 0.1584                 0.0708
 IR Inten    --     24.9299                38.2152                37.1368

                      4                      5                      6
                      A                      A                      A
 Frequencies --    354.2428               459.9662               476.2074
 Red. masses --      1.1821                 3.1256                 1.0921
 Frc consts  --      0.0874                 0.3896                 0.1459
 IR Inten    --     12.7502                23.7556               172.6279

                      7                      8                      9
                      A                      A                      A
 Frequencies --    597.3719               654.9624               846.5178
 Red. masses --      5.0839                 4.5271                 1.6670
 Frc consts  --      1.0689                 1.1442                 0.7038
 IR Inten    --     11.3267                 0.5600                 1.1971

                     10                     11                     12
                      A                      A                      A
 Frequencies --    859.5278               915.0147              1090.2329
 Red. masses --      1.6765                 4.6125                 1.8597
 Frc consts  --      0.7297                 2.2753                 1.3024
 IR Inten    --    405.7846                69.2587                79.7516

                     13                     14                     15
                      A                      A                      A
 Frequencies --   1191.1381              1240.7608              1343.4294
 Red. masses --      1.4459                 1.5120                 1.6531
 Frc consts  --      1.2087                 1.3714                 1.7579
 IR Inten    --     21.5595                29.8917                53.3506

                     16                     17                     18
                      A                      A                      A
 Frequencies --   1399.8488              1639.8326              1656.1558
 Red. masses --      2.5065                 1.1416                 1.0982
 Frc consts  --      2.8939                 1.8088                 1.7747
 IR Inten    --    158.9264                57.8172                 8.6329

                     19                     20                     21
                      A                      A                      A
 Frequencies --   1807.6898              3436.8512              3492.4627
 Red. masses --      6.7343                 1.0506                 1.0529
 Frc consts  --     12.9655                 7.3114                 7.5665
 IR Inten    --    133.0224                 5.7936                 3.0226

                     22                     23                     24
                      A                      A                      A
 Frequencies --   3584.9130              3614.0458              3791.3961
 Red. masses --      1.0925                 1.0899                 1.0654
 Frc consts  --      8.2723                 8.3872                 9.0230
 IR Inten    --      1.3913                15.8943                44.6038

 - Thermochemistry -
 -------------------
 Temperature   298.150 Kelvin.  Pressure   1.00000 Atm.
 Atom     1 has atomic number  7 and mass  14.00307

 Molecular mass:    75.04326 amu.
 Principal axes and moments of inertia in atomic units:
                           1         2         3
     Eigenvalues --   175.30902 428.50247 594.84790
           X            0.99960   0.01879  -0.02097
           Y           -0.01908   0.99973  -0.01362
           Z            0.02071   0.01402   0.99969
 This molecule is an asymmetric top.
 Rotational symmetry number  1.
 Rotational temperatures (Kelvin)      0.49406     0.20213     0.14561
 Rotational constants (GHZ):          10.29463     4.21174     3.03395
 Zero-point vibrational energy     211398.0 (Joules/Mol)
                                   50.52534 (Kcal/Mol)
 Warning -- explicit consideration of   7 degrees of freedom as
           vibrations may cause significant error
 Vibrational temperatures:    395.34   428.29   457.50   509.68   661.79
          (Kelvin)            685.16   859.48   942.34  1217.95  1236.67
                             1316.50  1568.60  1713.78  1785.18  1932.89
                             2014.07  2359.35  2382.84  2600.86  4944.86
                             5024.87  5157.88  5199.80  5454.97

 Zero-point correction=                           0.080517 (Hartree/Particle)
 Thermal correction to Energy=                    0.086032
 Thermal correction to Enthalpy=                  0.086977
 Thermal correction to Gibbs Free Energy=         0.052480
 Sum of electronic and zero-point Energies=           -280.481191
 Sum of electronic and thermal Energies=              -280.475676
 Sum of electronic and thermal Enthalpies=            -280.474732
 Sum of electronic and thermal Free Energies=         -280.509228

                     E (Thermal)             CV                S
                      KCal/Mol        Cal/Mol-Kelvin    Cal/Mol-Kelvin
 Total                   53.986             19.803             72.604
 Electronic               0.000              0.000              0.000
 Translational            0.889              2.981             38.862
 Rotational               0.889              2.981             25.305
 Vibrational             52.209             13.841              8.436
 Vibration     1          0.677              1.720              1.566
 Vibration     2          0.691              1.678              1.430
 Vibration     3          0.704              1.639              1.320
 Vibration     4          0.730              1.567              1.147
 Vibration     5          0.818              1.339              0.766
 Vibration     6          0.833              1.303              0.720
 Vibration     7          0.955              1.037              0.454

 Optimization completed.
    -- Stationary point found.
 Normal termination of Gaussian 09 at Thu Sep  8 15:23:50 2022.
