 Gaussian 09, Revision E.01,
 Gaussian 09:  ES64L-G09RevE.01 30-Nov-2015

 ----------------------------
 #P OPT Freq B3LYP/6-31G(d,p)
 ----------------------------

 ---------
 Frag_1142
 ---------
 Symbolic Z-matrix:
 Charge =  0 Multiplicity = 1

 SCF Done:  E(RB3LYP) =  -319.866473328     A.U. after   14 cycles
 SCF Done:  E(RB3LYP) =  -319.866582411     A.U. after   11 cycles
 SCF Done:  E(RB3LYP) =  -319.866592101     A.U. after   10 cycles
 SCF Done:  E(RB3LYP) =  -319.866593008     A.U. after   10 cycles
 SCF Done:  E(RB3LYP) =  -319.866601948     A.U. after    8 cycles
 SCF Done:  E(RB3LYP) =  -319.866604008     A.U. after    8 cycles
 SCF Done:  E(RB3LYP) =  -319.866604391     A.U. after    8 cycles
 SCF Done:  E(RB3LYP) =  -319.866604514     A.U. after    7 cycles
 SCF Done:  E(RB3LYP) =  -319.866604612     A.U. after    7 cycles
 SCF Done:  E(RB3LYP) =  -319.866604623     A.U. after    7 cycles
 Optimization completed.
    -- Stationary point found.
 Normal termination of Gaussian 09 at Thu Sep  8 14:46:03 2022.

 ----------------------------------------------------------------------
 #P Geom=AllCheck Guess=TCheck SCRF=Check GenChk RB3LYP/6-31G(d,p) Freq
 ----------------------------------------------------------------------

 Structure from the checkpoint file:  "B3LYP6-31Gdp.Frag_1142.chk"
 ---------
 Frag_1142
 ---------
 Charge =  0 Multiplicity = 1

                         Standard orientation:
 ---------------------------------------------------------------------
 Center     Atomic      Atomic             Coordinates (Angstroms)
 Number     Number       Type             X           Y           Z
 ---------------------------------------------------------------------
      1          6           0       -1.759571    0.791150   -0.029517
      2          6           0       -0.700961   -0.290741   -0.031324
      3          8           0       -0.957873   -1.484926    0.070431
      4          7           0        0.614035    0.123616   -0.174353
      5          7           0        0.941990    1.464442    0.090356
      6          7           0        1.641188   -0.833350    0.048297
      7          1           0       -1.711420    1.371429    0.896597
      8          1           0       -1.618194    1.495328   -0.851764
      9          1           0       -2.732523    0.305079   -0.104401
     10          1           0        1.604897    1.768055   -0.620378
     11          1           0        1.439097    1.498336    0.982130
     12          1           0        1.209869   -1.578265    0.600854
     13          1           0        1.853970   -1.265964   -0.851544
 ---------------------------------------------------------------------

 SCF Done:  E(RB3LYP) =  -319.866604623     A.U. after    1 cycles

 The electronic state is 1-A.
 Alpha  occ. eigenvalues --  -19.11516 -14.40656 -14.36591 -14.35646 -10.28603
 Alpha  occ. eigenvalues --  -10.18352  -1.05423  -0.99668  -0.88049  -0.77553
 Alpha  occ. eigenvalues --   -0.71095  -0.57216  -0.53422  -0.51574  -0.48563
 Alpha  occ. eigenvalues --   -0.46813  -0.42833  -0.40565  -0.39367  -0.35307
 Alpha  occ. eigenvalues --   -0.30282  -0.28228  -0.25361  -0.23960
 Alpha virt. eigenvalues --    0.02183   0.06973   0.10142   0.13162   0.14336
 Alpha virt. eigenvalues --    0.15602   0.16120   0.17923   0.19065   0.20191
 Alpha virt. eigenvalues --    0.26358   0.34425   0.36673   0.52927   0.54990

 Mulliken charges:
               1
     1  C   -0.362117
     2  C    0.561638
     3  O   -0.509492
     4  N   -0.261024
     5  N   -0.430522
     6  N   -0.452992
     7  H    0.135430
     8  H    0.132630
     9  H    0.131523
    10  H    0.263042
    11  H    0.258100
    12  H    0.268597
    13  H    0.265188
 Sum of Mulliken charges =  -0.00000

 Dipole moment (field-independent basis, Debye):
    X=              1.7229    Y=              1.9132    Z=             -0.3474  Tot=              2.5980
 Quadrupole moment (field-independent basis, Debye-Ang):
   XX=            -34.8993   YY=            -37.3664   ZZ=            -33.3062
   XY=             -2.0545   XZ=             -1.3174   YZ=              0.6888

  Exact polarizability:  52.051   1.399  51.944  -1.206  -0.104  33.537
 Approx polarizability:  67.107   7.854  78.461  -2.835  -1.908  48.505

                      1                      2                      3
                      A                      A                      A
 Frequencies --    113.3186               129.7597               158.4918
 Red. masses --      1.1440                 2.6864                 1.8282
 Frc consts  --      0.0087                 0.0266                 0.0271
 IR Inten    --      0.7507                 5.5981                11.7075

                      4                      5                      6
                      A                      A                      A
 Frequencies --    236.5817               296.4082               352.2917
 Red. masses --      1.4582                 3.3511                 1.1607
 Frc consts  --      0.0481                 0.1735                 0.0849
 IR Inten    --     71.8393                12.8443                11.1026

                      7                      8                      9
                      A                      A                      A
 Frequencies --    419.2894               498.8272               594.8667
 Red. masses --      3.6094                 3.1876                 3.3273
 Frc consts  --      0.3739                 0.4673                 0.6937
 IR Inten    --     24.6916                 7.4048                 9.5283

                     10                     11                     12
                      A                      A                      A
 Frequencies --    613.0100               750.1390               947.5773
 Red. masses --      4.2220                 4.8461                 1.7643
 Frc consts  --      0.9348                 1.6067                 0.9334
 IR Inten    --      5.6799                13.9128               164.7340

                     13                     14                     15
                      A                      A                      A
 Frequencies --    964.1932              1011.7516              1057.7159
 Red. masses --      2.6514                 1.5704                 1.7344
 Frc consts  --      1.4523                 0.9471                 1.1433
 IR Inten    --     39.7618                22.1187                 9.8557

                     16                     17                     18
                      A                      A                      A
 Frequencies --   1131.5227              1284.0104              1317.7327
 Red. masses --      1.9730                 3.0416                 1.1554
 Frc consts  --      1.4884                 2.9545                 1.1821
 IR Inten    --     19.9556                98.0556                14.9260

                     19                     20                     21
                      A                      A                      A
 Frequencies --   1342.0177              1397.9778              1424.6101
 Red. masses --      1.2638                 1.4154                 2.6675
 Frc consts  --      1.3411                 1.6298                 3.1896
 IR Inten    --      6.7073                16.0860               101.0820

                     22                     23                     24
                      A                      A                      A
 Frequencies --   1476.3367              1488.1004              1703.8930
 Red. masses --      1.0941                 1.0514                 1.0843
 Frc consts  --      1.4051                 1.3718                 1.8548
 IR Inten    --      8.8878                 6.9343                29.7624

                     25                     26                     27
                      A                      A                      A
 Frequencies --   1712.7733              1770.8631              3070.9472
 Red. masses --      1.1000                 9.2492                 1.0364
 Frc consts  --      1.9012                17.0892                 5.7586
 IR Inten    --     24.8464               225.5397                 3.2991

                     28                     29                     30
                      A                      A                      A
 Frequencies --   3140.2313              3175.4852              3434.1624
 Red. masses --      1.0986                 1.1057                 1.0480
 Frc consts  --      6.3828                 6.5689                 7.2820
 IR Inten    --      7.9049                10.6184                 7.6287

                     31                     32                     33
                      A                      A                      A
 Frequencies --   3442.9695              3504.7102              3531.0057
 Red. masses --      1.0493                 1.0931                 1.0927
 Frc consts  --      7.3288                 7.9110                 8.0272
 IR Inten    --      3.5245                 4.2375                 0.3477

 - Thermochemistry -
 -------------------
 Temperature   298.150 Kelvin.  Pressure   1.00000 Atm.
 Atom     1 has atomic number  6 and mass  12.00000

 Molecular mass:    89.05891 amu.
 Principal axes and moments of inertia in atomic units:
                           1         2         3
     Eigenvalues --   362.42849 504.08634 833.10078
           X            0.99249  -0.12231  -0.00248
           Y            0.12232   0.99248   0.00473
           Z            0.00189  -0.00500   0.99999
 This molecule is an asymmetric top.
 Rotational symmetry number  1.
 Rotational temperatures (Kelvin)      0.23898     0.17182     0.10397
 Rotational constants (GHZ):           4.97958     3.58022     2.16629
 Zero-point vibrational energy     284074.6 (Joules/Mol)
                                   67.89547 (Kcal/Mol)
 Warning -- explicit consideration of  10 degrees of freedom as
           vibrations may cause significant error
 Vibrational temperatures:    163.04   186.70   228.03   340.39   426.46
          (Kelvin)            506.87   603.26   717.70   855.88   881.98
                             1079.28  1363.35  1387.26  1455.68  1521.82
                             1628.01  1847.40  1895.92  1930.86  2011.38
                             2049.69  2124.12  2141.04  2451.52  2464.30
                             2547.87  4418.40  4518.09  4568.81  4940.99
                             4953.66  5042.49  5080.32

 Zero-point correction=                           0.108198 (Hartree/Particle)
 Thermal correction to Energy=                    0.115499
 Thermal correction to Enthalpy=                  0.116444
 Thermal correction to Gibbs Free Energy=         0.077325
 Sum of electronic and zero-point Energies=           -319.758406
 Sum of electronic and thermal Energies=              -319.751105
 Sum of electronic and thermal Enthalpies=            -319.750161
 Sum of electronic and thermal Free Energies=         -319.789280

                     E (Thermal)             CV                S
                      KCal/Mol        Cal/Mol-Kelvin    Cal/Mol-Kelvin
 Total                   72.477             24.897             82.332
 Electronic               0.000              0.000              0.000
 Translational            0.889              2.981             39.373
 Rotational               0.889              2.981             26.523
 Vibrational             70.699             18.936             16.436
 Vibration     1          0.607              1.938              3.211
 Vibration     2          0.612              1.924              2.950
 Vibration     3          0.621              1.893              2.568
 Vibration     4          0.655              1.785              1.828
 Vibration     5          0.690              1.680              1.437
 Vibration     6          0.729              1.571              1.156
 Vibration     7          0.782              1.428              0.894
 Vibration     8          0.854              1.253              0.661
 Vibration     9          0.953              1.043              0.459
 Vibration    10          0.972              1.004              0.428

 Optimization completed.
    -- Stationary point found.
 Normal termination of Gaussian 09 at Thu Sep  8 14:46:13 2022.
