 Gaussian 09, Revision E.01,
 Gaussian 09:  ES64L-G09RevE.01 30-Nov-2015

 ----------------------------
 #P OPT Freq B3LYP/6-31G(d,p)
 ----------------------------

 ---------
 Frag_1121
 ---------
 Symbolic Z-matrix:
 Charge =  0 Multiplicity = 1

 SCF Done:  E(RB3LYP) =  -343.568800462     A.U. after   13 cycles
 SCF Done:  E(RB3LYP) =  -343.568891612     A.U. after   10 cycles
 SCF Done:  E(RB3LYP) =  -343.568899396     A.U. after    8 cycles
 SCF Done:  E(RB3LYP) =  -343.568902917     A.U. after    8 cycles
 SCF Done:  E(RB3LYP) =  -343.568903662     A.U. after    8 cycles
 SCF Done:  E(RB3LYP) =  -343.568903772     A.U. after    8 cycles
 SCF Done:  E(RB3LYP) =  -343.568903768     A.U. after    7 cycles
 Optimization completed.
    -- Stationary point found.
 Normal termination of Gaussian 09 at Thu Sep  8 14:51:23 2022.

 ----------------------------------------------------------------------
 #P Geom=AllCheck Guess=TCheck SCRF=Check GenChk RB3LYP/6-31G(d,p) Freq
 ----------------------------------------------------------------------

 Structure from the checkpoint file:  "B3LYP6-31Gdp.Frag_1121.chk"
 ---------
 Frag_1121
 ---------
 Charge =  0 Multiplicity = 1

                         Standard orientation:
 ---------------------------------------------------------------------
 Center     Atomic      Atomic             Coordinates (Angstroms)
 Number     Number       Type             X           Y           Z
 ---------------------------------------------------------------------
      1          6           0       -1.813924   -0.769967   -0.406461
      2          6           0       -0.771381   -0.012976   -0.054311
      3          8           0       -0.842173    1.189237    0.592786
      4          6           0        0.677814   -0.394600   -0.302449
      5          8           0        1.323739   -0.710619    0.924318
      6          8           0        1.388200    0.638399   -0.904102
      7          1           0       -1.656778   -1.703349   -0.932777
      8          1           0       -2.840450   -0.482264   -0.197119
      9          1           0       -1.768390    1.445257    0.697732
     10          1           0        0.714261   -1.240945   -1.001117
     11          1           0        0.741421   -1.296055    1.428114
     12          1           0        1.296750    1.406482   -0.319513
 ---------------------------------------------------------------------

 SCF Done:  E(RB3LYP) =  -343.568903768     A.U. after    1 cycles

 The electronic state is 1-A.
 Alpha  occ. eigenvalues --  -19.19217 -19.14892 -19.14726 -10.28914 -10.25422
 Alpha  occ. eigenvalues --  -10.18328  -1.07971  -1.05075  -0.99170  -0.77321
 Alpha  occ. eigenvalues --   -0.67390  -0.61805  -0.53497  -0.51599  -0.49585
 Alpha  occ. eigenvalues --   -0.45184  -0.42602  -0.41098  -0.38315  -0.35620
 Alpha  occ. eigenvalues --   -0.34691  -0.29645  -0.27269  -0.24291
 Alpha virt. eigenvalues --    0.01971   0.05339   0.09758   0.11222   0.12739
 Alpha virt. eigenvalues --    0.14356   0.17591   0.22865   0.24026   0.27143
 Alpha virt. eigenvalues --    0.32547   0.37074   0.51954   0.53695   0.57804

 Mulliken charges:
               1
     1  C   -0.330753
     2  C    0.329594
     3  O   -0.545135
     4  C    0.355020
     5  O   -0.529804
     6  O   -0.513559
     7  H    0.107381
     8  H    0.088168
     9  H    0.322206
    10  H    0.092578
    11  H    0.304183
    12  H    0.320121
 Sum of Mulliken charges =  -0.00000

 Dipole moment (field-independent basis, Debye):
    X=             -3.2653    Y=             -0.1844    Z=              1.0338  Tot=              3.4300
 Quadrupole moment (field-independent basis, Debye-Ang):
   XX=            -35.4604   YY=            -30.1890   ZZ=            -36.7705
   XY=             -1.4496   XZ=             -0.9376   YZ=              0.7750

  Exact polarizability:  49.938   5.879  43.117   1.691   5.361  32.563
 Approx polarizability:  69.847  13.926  63.762   4.566   9.467  47.423

                      1                      2                      3
                      A                      A                      A
 Frequencies --     71.8284               218.2302               260.3787
 Red. masses --      4.6339                 1.4874                 2.0976
 Frc consts  --      0.0141                 0.0417                 0.0838
 IR Inten    --      1.1167                36.6529                44.3434

                      4                      5                      6
                      A                      A                      A
 Frequencies --    267.5449               361.6520               403.4252
 Red. masses --      3.2683                 1.8691                 1.3561
 Frc consts  --      0.1378                 0.1440                 0.1300
 IR Inten    --     16.0312                84.9316               126.3582

                      7                      8                      9
                      A                      A                      A
 Frequencies --    416.8765               539.4764               656.0883
 Red. masses --      1.3925                 3.1750                 3.6570
 Frc consts  --      0.1426                 0.5444                 0.9275
 IR Inten    --     45.8459                54.9426                23.9919

                     10                     11                     12
                      A                      A                      A
 Frequencies --    684.7855               730.5232               828.7418
 Red. masses --      3.2205                 1.2866                 1.4037
 Frc consts  --      0.8898                 0.4045                 0.5680
 IR Inten    --      2.8006                 0.2864                53.6750

                     13                     14                     15
                      A                      A                      A
 Frequencies --    860.7695               980.3637              1050.0855
 Red. masses --      3.3409                 1.8580                 3.8984
 Frc consts  --      1.4584                 1.0521                 2.5327
 IR Inten    --     41.5527                14.7141                79.1051

                     16                     17                     18
                      A                      A                      A
 Frequencies --   1093.1052              1171.2493              1237.5565
 Red. masses --      3.5269                 1.4406                 1.1605
 Frc consts  --      2.4829                 1.1644                 1.0472
 IR Inten    --    245.9383                93.2526               138.7034

                     19                     20                     21
                      A                      A                      A
 Frequencies --   1351.4775              1367.4059              1402.4050
 Red. masses --      1.2295                 1.6717                 2.3684
 Frc consts  --      1.3231                 1.8416                 2.7445
 IR Inten    --     42.7992                11.7450                33.5121

                     22                     23                     24
                      A                      A                      A
 Frequencies --   1442.5784              1477.3898              1736.4185
 Red. masses --      1.2078                 1.2675                 5.8428
 Frc consts  --      1.4809                 1.6300                10.3795
 IR Inten    --     76.6078                67.5826                93.4220

                     25                     26                     27
                      A                      A                      A
 Frequencies --   3044.3186              3164.9628              3259.4436
 Red. masses --      1.0869                 1.0634                 1.1137
 Frc consts  --      5.9349                 6.2761                 6.9714
 IR Inten    --     49.6412                 4.4189                 7.3077

                     28                     29                     30
                      A                      A                      A
 Frequencies --   3781.6697              3807.2892              3817.2109
 Red. masses --      1.0649                 1.0657                 1.0659
 Frc consts  --      8.9725                 9.1020                 9.1512
 IR Inten    --     33.0312                15.1872                32.7659

 - Thermochemistry -
 -------------------
 Temperature   298.150 Kelvin.  Pressure   1.00000 Atm.
 Atom     1 has atomic number  6 and mass  12.00000

 Molecular mass:    90.03169 amu.
 Principal axes and moments of inertia in atomic units:
                           1         2         3
     Eigenvalues --   345.23722 638.98516 699.37254
           X            0.99977   0.01921   0.00971
           Y           -0.02007   0.99505   0.09735
           Z           -0.00779  -0.09752   0.99520
 This molecule is an asymmetric top.
 Rotational symmetry number  1.
 Rotational temperatures (Kelvin)      0.25088     0.13555     0.12385
 Rotational constants (GHZ):           5.22754     2.82439     2.58051
 Zero-point vibrational energy     248136.9 (Joules/Mol)
                                   59.30614 (Kcal/Mol)
 Warning -- explicit consideration of   8 degrees of freedom as
           vibrations may cause significant error
 Vibrational temperatures:    103.34   313.98   374.63   384.94   520.34
          (Kelvin)            580.44   599.79   776.19   943.96   985.25
                             1051.06  1192.37  1238.45  1410.52  1510.84
                             1572.73  1685.16  1780.57  1944.47  1967.39
                             2017.75  2075.55  2125.63  2498.32  4380.09
                             4553.67  4689.61  5440.97  5477.83  5492.11

 Zero-point correction=                           0.094510 (Hartree/Particle)
 Thermal correction to Energy=                    0.101396
 Thermal correction to Enthalpy=                  0.102341
 Thermal correction to Gibbs Free Energy=         0.064070
 Sum of electronic and zero-point Energies=           -343.474393
 Sum of electronic and thermal Energies=              -343.467507
 Sum of electronic and thermal Enthalpies=            -343.466563
 Sum of electronic and thermal Free Energies=         -343.504834

                     E (Thermal)             CV                S
                      KCal/Mol        Cal/Mol-Kelvin    Cal/Mol-Kelvin
 Total                   63.627             24.507             80.547
 Electronic               0.000              0.000              0.000
 Translational            0.889              2.981             39.405
 Rotational               0.889              2.981             26.537
 Vibrational             61.850             18.545             14.606
 Vibration     1          0.598              1.967              4.103
 Vibration     2          0.646              1.813              1.974
 Vibration     3          0.668              1.745              1.659
 Vibration     4          0.673              1.733              1.612
 Vibration     5          0.736              1.551              1.115
 Vibration     6          0.769              1.463              0.950
 Vibration     7          0.780              1.434              0.903
 Vibration     8          0.895              1.163              0.566

 Normal termination of Gaussian 09 at Thu Sep  8 14:51:32 2022.
