 Gaussian 09, Revision E.01,
 Gaussian 09:  ES64L-G09RevE.01 30-Nov-2015

 ----------------------------
 #P OPT Freq B3LYP/6-31G(d,p)
 ----------------------------

 ---------
 Frag_1036
 ---------
 Symbolic Z-matrix:
 Charge =  0 Multiplicity = 1

 SCF Done:  E(RB3LYP) =  -379.019652091     A.U. after   14 cycles
 SCF Done:  E(RB3LYP) =  -379.019737218     A.U. after   12 cycles
 SCF Done:  E(RB3LYP) =  -379.019687153     A.U. after   13 cycles
 SCF Done:  E(RB3LYP) =  -379.019759011     A.U. after   11 cycles
 SCF Done:  E(RB3LYP) =  -379.019761089     A.U. after    9 cycles
 SCF Done:  E(RB3LYP) =  -379.019763444     A.U. after    9 cycles
 SCF Done:  E(RB3LYP) =  -379.019766705     A.U. after   10 cycles
 SCF Done:  E(RB3LYP) =  -379.019768705     A.U. after   10 cycles
 SCF Done:  E(RB3LYP) =  -379.019769377     A.U. after    9 cycles
 Optimization completed.
    -- Stationary point found.
 Normal termination of Gaussian 09 at Thu Sep  8 14:48:22 2022.

 ----------------------------------------------------------------------
 #P Geom=AllCheck Guess=TCheck SCRF=Check GenChk RB3LYP/6-31G(d,p) Freq
 ----------------------------------------------------------------------

 Structure from the checkpoint file:  "B3LYP6-31Gdp.Frag_1036.chk"
 ---------
 Frag_1036
 ---------
 Charge =  0 Multiplicity = 1

                         Standard orientation:
 ---------------------------------------------------------------------
 Center     Atomic      Atomic             Coordinates (Angstroms)
 Number     Number       Type             X           Y           Z
 ---------------------------------------------------------------------
      1          6           0       -1.199602   -0.889836   -1.011497
      2          6           0       -0.595469    0.092097   -0.016304
      3          6           0       -1.011886   -0.171745    1.434807
      4          8           0       -0.894740    1.389460   -0.423145
      5          7           0        0.945039   -0.098185   -0.037515
      6          7           0        1.614304    0.976994   -0.104568
      7          8           0        1.381895   -1.258651    0.071938
      8          1           0       -0.938742   -1.916248   -0.754219
      9          1           0       -2.285687   -0.771793   -0.994361
     10          1           0       -0.843876   -0.661956   -2.018923
     11          1           0       -2.097593   -0.074112    1.506441
     12          1           0       -0.714438   -1.172680    1.754152
     13          1           0       -0.553666    0.568738    2.096673
     14          1           0       -0.138400    1.946938   -0.167786
     15          1           0        2.601509    0.699887   -0.059783
 ---------------------------------------------------------------------

 SCF Done:  E(RB3LYP) =  -379.019769377     A.U. after    1 cycles

 The electronic state is 1-A.
 Alpha  occ. eigenvalues --  -19.16564 -19.15682 -14.52737 -14.37465 -10.30002
 Alpha  occ. eigenvalues --  -10.19295 -10.18866  -1.17077  -1.04807  -0.96069
 Alpha  occ. eigenvalues --   -0.80897  -0.71185  -0.69842  -0.58397  -0.55357
 Alpha  occ. eigenvalues --   -0.52377  -0.50694  -0.46521  -0.44347  -0.41237
 Alpha  occ. eigenvalues --   -0.39821  -0.39665  -0.38566  -0.37085  -0.33820
 Alpha  occ. eigenvalues --   -0.29449  -0.27897  -0.26843
 Alpha virt. eigenvalues --   -0.04961   0.07767   0.10110   0.12782   0.13062
 Alpha virt. eigenvalues --    0.15158   0.15680   0.17409   0.18531   0.19200
 Alpha virt. eigenvalues --    0.20041   0.22883   0.25006   0.27497   0.36482

 Mulliken charges:
               1
     1  C   -0.304681
     2  C    0.353935
     3  C   -0.301119
     4  O   -0.537802
     5  N    0.228035
     6  N   -0.354550
     7  O   -0.438948
     8  H    0.136147
     9  H    0.125308
    10  H    0.126722
    11  H    0.128677
    12  H    0.131523
    13  H    0.115669
    14  H    0.329480
    15  H    0.261604
 Sum of Mulliken charges =  -0.00000

 Dipole moment (field-independent basis, Debye):
    X=             -0.2822    Y=              0.2264    Z=              0.7352  Tot=              0.8194
 Quadrupole moment (field-independent basis, Debye-Ang):
   XX=            -39.9881   YY=            -45.1322   ZZ=            -41.0545
   XY=              4.9181   XZ=             -0.9557   YZ=              1.6821

  Exact polarizability:  59.429   4.241  58.365  -0.156  -0.611  43.116
 Approx polarizability:  80.063   5.579 112.126   0.501  -4.794  56.872

                      1                      2                      3
                      A                      A                      A
 Frequencies --     67.9025               205.8237               248.0173
 Red. masses --      6.1789                 1.0642                 1.3304
 Frc consts  --      0.0168                 0.0266                 0.0482
 IR Inten    --      8.2508                 1.7022                11.4604

                      4                      5                      6
                      A                      A                      A
 Frequencies --    260.1870               288.0501               326.3127
 Red. masses --      1.6925                 2.0170                 1.6975
 Frc consts  --      0.0675                 0.0986                 0.1065
 IR Inten    --      2.9990                22.2026                88.5909

                      7                      8                      9
                      A                      A                      A
 Frequencies --    354.1084               426.0569               450.9964
 Red. masses --      2.8314                 4.6947                 2.3973
 Frc consts  --      0.2092                 0.5021                 0.2873
 IR Inten    --      5.0571                13.3253                 6.9354

                     10                     11                     12
                      A                      A                      A
 Frequencies --    525.2468               591.4045               692.3026
 Red. masses --      4.1862                 3.4674                 3.2509
 Frc consts  --      0.6805                 0.7145                 0.9180
 IR Inten    --      3.0620                33.7957                 7.3323

                     13                     14                     15
                      A                      A                      A
 Frequencies --    759.6832               846.6255               898.6952
 Red. masses --      3.4836                 3.0443                 1.4246
 Frc consts  --      1.1845                 1.2857                 0.6779
 IR Inten    --     30.9716                 0.2286                72.5756

                     16                     17                     18
                      A                      A                      A
 Frequencies --    945.9088              1016.0018              1027.2834
 Red. masses --      1.4742                 1.5754                 1.5390
 Frc consts  --      0.7771                 0.9581                 0.9569
 IR Inten    --      1.2047                26.1431                12.7726

                     19                     20                     21
                      A                      A                      A
 Frequencies --   1142.2915              1223.7886              1262.4767
 Red. masses --      1.5806                 2.7432                 3.1643
 Frc consts  --      1.2152                 2.4206                 2.9715
 IR Inten    --     15.7451                55.5619                54.9503

                     22                     23                     24
                      A                      A                      A
 Frequencies --   1280.9252              1398.9794              1415.1072
 Red. masses --      3.2597                 1.2859                 1.3121
 Frc consts  --      3.1512                 1.4828                 1.5481
 IR Inten    --    158.1655                28.1968                39.8513

                     25                     26                     27
                      A                      A                      A
 Frequencies --   1426.5204              1490.5099              1494.9151
 Red. masses --      1.4609                 1.0713                 1.0479
 Frc consts  --      1.7515                 1.4023                 1.3798
 IR Inten    --     39.9002                 0.8767                 0.5795

                     28                     29                     30
                      A                      A                      A
 Frequencies --   1502.9472              1514.0398              1521.2955
 Red. masses --      1.5177                 1.1741                 1.1247
 Frc consts  --      2.0199                 1.5858                 1.5336
 IR Inten    --      5.2552                21.8227                 5.4764

                     31                     32                     33
                      A                      A                      A
 Frequencies --   1621.2524              3063.3083              3075.4583
 Red. masses --     12.2160                 1.0346                 1.0355
 Frc consts  --     18.9182                 5.7200                 5.7704
 IR Inten    --    206.2911                 9.3063                 6.1058

                     34                     35                     36
                      A                      A                      A
 Frequencies --   3142.9272              3150.8057              3158.6120
 Red. masses --      1.1029                 1.1035                 1.1044
 Frc consts  --      6.4191                 6.4544                 6.4920
 IR Inten    --     13.2269                11.5797                 7.7487

                     37                     38                     39
                      A                      A                      A
 Frequencies --   3178.3500              3439.0015              3699.3214
 Red. masses --      1.1035                 1.0724                 1.0643
 Frc consts  --      6.5679                 7.4725                 8.5811
 IR Inten    --      6.3677                 3.7532                84.8259

 - Thermochemistry -
 -------------------
 Temperature   298.150 Kelvin.  Pressure   1.00000 Atm.
 Atom     1 has atomic number  6 and mass  12.00000

 Molecular mass:   104.05858 amu.
 Principal axes and moments of inertia in atomic units:
                           1         2         3
     Eigenvalues --   518.87400 718.20202 840.86168
           X            0.99329   0.11544  -0.00771
           Y           -0.11477   0.99155   0.06045
           Z            0.01462  -0.05916   0.99814
 This molecule is an asymmetric top.
 Rotational symmetry number  1.
 Warning -- assumption of classical behavior for rotation
           may cause significant error
 Rotational temperatures (Kelvin)      0.16693     0.12060     0.10301
 Rotational constants (GHZ):           3.47819     2.51286     2.14630
 Zero-point vibrational energy     323789.9 (Joules/Mol)
                                   77.38764 (Kcal/Mol)
 Warning -- explicit consideration of  11 degrees of freedom as
           vibrations may cause significant error
 Vibrational temperatures:     97.70   296.13   356.84   374.35   414.44
          (Kelvin)            469.49   509.48   613.00   648.88   755.71
                              850.90   996.07  1093.01  1218.10  1293.02
                             1360.95  1461.80  1478.03  1643.50  1760.76
                             1816.42  1842.96  2012.82  2036.02  2052.44
                             2144.51  2150.85  2162.40  2178.36  2188.80
                             2332.62  4407.41  4424.89  4521.97  4533.30
                             4544.53  4572.93  4947.95  5322.49

 Zero-point correction=                           0.123325 (Hartree/Particle)
 Thermal correction to Energy=                    0.131117
 Thermal correction to Enthalpy=                  0.132062
 Thermal correction to Gibbs Free Energy=         0.091751
 Sum of electronic and zero-point Energies=           -378.896444
 Sum of electronic and thermal Energies=              -378.888652
 Sum of electronic and thermal Enthalpies=            -378.887708
 Sum of electronic and thermal Free Energies=         -378.928018

                     E (Thermal)             CV                S
                      KCal/Mol        Cal/Mol-Kelvin    Cal/Mol-Kelvin
 Total                   82.277             28.449             84.840
 Electronic               0.000              0.000              0.000
 Translational            0.889              2.981             39.837
 Rotational               0.889              2.981             27.241
 Vibrational             80.500             22.488             17.763
 Vibration     1          0.598              1.970              4.213
 Vibration     2          0.640              1.832              2.080
 Vibration     3          0.662              1.766              1.745
 Vibration     4          0.668              1.745              1.661
 Vibration     5          0.685              1.696              1.485
 Vibration     6          0.710              1.623              1.278
 Vibration     7          0.730              1.567              1.148
 Vibration     8          0.788              1.414              0.872
 Vibration     9          0.810              1.359              0.793
 Vibration    10          0.880              1.194              0.598
 Vibration    11          0.949              1.050              0.465

 Optimization completed.
    -- Stationary point found.
 Normal termination of Gaussian 09 at Thu Sep  8 14:48:36 2022.
