 Gaussian 09, Revision E.01,
 Gaussian 09:  ES64L-G09RevE.01 30-Nov-2015

 ----------------------------
 #P OPT Freq B3LYP/6-31G(d,p)
 ----------------------------

 ---------
 Frag_1028
 ---------
 Symbolic Z-matrix:
 Charge =  0 Multiplicity = 1

 SCF Done:  E(RB3LYP) =  -343.155122474     A.U. after   14 cycles
 SCF Done:  E(RB3LYP) =  -343.155189019     A.U. after   11 cycles
 SCF Done:  E(RB3LYP) =  -343.155193832     A.U. after    8 cycles
 SCF Done:  E(RB3LYP) =  -343.155194629     A.U. after    8 cycles
 SCF Done:  E(RB3LYP) =  -343.155194979     A.U. after    7 cycles
 Optimization completed.
    -- Stationary point found.
 Normal termination of Gaussian 09 at Thu Sep  8 14:47:40 2022.

 ----------------------------------------------------------------------
 #P Geom=AllCheck Guess=TCheck SCRF=Check GenChk RB3LYP/6-31G(d,p) Freq
 ----------------------------------------------------------------------

 Structure from the checkpoint file:  "B3LYP6-31Gdp.Frag_1028.chk"
 ---------
 Frag_1028
 ---------
 Charge =  0 Multiplicity = 1

                         Standard orientation:
 ---------------------------------------------------------------------
 Center     Atomic      Atomic             Coordinates (Angstroms)
 Number     Number       Type             X           Y           Z
 ---------------------------------------------------------------------
      1          6           0        1.719269    1.122791   -0.075489
      2          6           0        0.951008    0.029705   -0.019226
      3          8           0        1.438478   -1.246584    0.039649
      4          6           0       -0.580185    0.043786    0.019984
      5          6           0       -1.155465   -1.101249   -0.836223
      6          7           0       -0.982599   -0.185452    1.408507
      7          7           0       -1.035488    1.374772   -0.435638
      8          1           0        2.804062    1.052280   -0.079942
      9          1           0        1.269666    2.104890   -0.097165
     10          1           0        2.402929   -1.202781    0.090522
     11          1           0       -0.819361   -2.073797   -0.474949
     12          1           0       -0.851420   -0.991956   -1.881490
     13          1           0       -2.251125   -1.069059   -0.796845
     14          1           0       -0.741631    0.641991    1.950396
     15          1           0       -1.994282   -0.292843    1.459269
     16          1           0       -0.753617    1.525596   -1.403614
     17          1           0       -2.054189    1.382909   -0.427737
 ---------------------------------------------------------------------

 SCF Done:  E(RB3LYP) =  -343.155194979     A.U. after    1 cycles

 The electronic state is 1-A.
 Alpha  occ. eigenvalues --  -19.16831 -14.31180 -14.30769 -10.24789 -10.23652
 Alpha  occ. eigenvalues --  -10.17123 -10.15796  -1.04934  -0.91865  -0.83174
 Alpha  occ. eigenvalues --   -0.74327  -0.71496  -0.62758  -0.56029  -0.50459
 Alpha  occ. eigenvalues --   -0.47889  -0.47191  -0.45036  -0.42965  -0.41170
 Alpha  occ. eigenvalues --   -0.38837  -0.37257  -0.36245  -0.35371  -0.33843
 Alpha  occ. eigenvalues --   -0.24563  -0.23599  -0.22001
 Alpha virt. eigenvalues --    0.04195   0.07049   0.08354   0.12363   0.13134
 Alpha virt. eigenvalues --    0.14611   0.16605   0.17730   0.18481   0.18669
 Alpha virt. eigenvalues --    0.20341   0.23812   0.26374   0.27237   0.27967

 Mulliken charges:
               1
     1  C   -0.336850
     2  C    0.394662
     3  O   -0.537219
     4  C    0.182671
     5  C   -0.304275
     6  N   -0.562347
     7  N   -0.589784
     8  H    0.069981
     9  H    0.118638
    10  H    0.314108
    11  H    0.140997
    12  H    0.099795
    13  H    0.080662
    14  H    0.243591
    15  H    0.226767
    16  H    0.233989
    17  H    0.224613
 Sum of Mulliken charges =  -0.00000

 Dipole moment (field-independent basis, Debye):
    X=             -0.5200    Y=              0.4467    Z=             -1.0409  Tot=              1.2464
 Quadrupole moment (field-independent basis, Debye-Ang):
   XX=            -32.9476   YY=            -46.8221   ZZ=            -43.2702
   XY=             -2.3149   XZ=              0.0889   YZ=              0.7306

  Exact polarizability:  69.330   5.872  63.061  -0.982  -1.275  47.385
 Approx polarizability:  91.371  11.107  96.724  -2.563  -4.027  65.995

                      1                      2                      3
                      A                      A                      A
 Frequencies --     74.2937               226.8462               272.2654
 Red. masses --      4.1797                 1.5765                 1.7053
 Frc consts  --      0.0136                 0.0478                 0.0745
 IR Inten    --      0.1679                 5.7876                13.5881

                      4                      5                      6
                      A                      A                      A
 Frequencies --    287.3721               297.5522               321.1965
 Red. masses --      1.7038                 1.2349                 1.2529
 Frc consts  --      0.0829                 0.0644                 0.0762
 IR Inten    --      4.3950                 9.8009                52.0789

                      7                      8                      9
                      A                      A                      A
 Frequencies --    374.0856               398.0122               413.0323
 Red. masses --      2.5306                 2.2630                 1.5205
 Frc consts  --      0.2087                 0.2112                 0.1528
 IR Inten    --      6.2568                23.8087                36.7867

                     10                     11                     12
                      A                      A                      A
 Frequencies --    441.3854               511.3198               535.1368
 Red. masses --      1.8993                 2.9656                 2.6105
 Frc consts  --      0.2180                 0.4568                 0.4405
 IR Inten    --     70.5004                11.9534                28.1374

                     13                     14                     15
                      A                      A                      A
 Frequencies --    674.3359               715.7178               754.8265
 Red. masses --      3.0329                 3.0581                 1.2618
 Frc consts  --      0.8126                 0.9230                 0.4236
 IR Inten    --      3.4069                 3.2366                 2.2373

                     16                     17                     18
                      A                      A                      A
 Frequencies --    840.0498               852.5372               898.3175
 Red. masses --      1.3635                 1.9426                 1.6822
 Frc consts  --      0.5669                 0.8319                 0.7998
 IR Inten    --     79.2114                67.6984               166.7332

                     19                     20                     21
                      A                      A                      A
 Frequencies --    937.1143               970.5248               987.2954
 Red. masses --      1.3680                 1.7788                 1.7089
 Frc consts  --      0.7078                 0.9872                 0.9814
 IR Inten    --     25.2149                 0.4399                12.5135

                     22                     23                     24
                      A                      A                      A
 Frequencies --   1045.6808              1094.3518              1169.9634
 Red. masses --      1.6746                 1.6249                 1.7904
 Frc consts  --      1.0788                 1.1465                 1.4440
 IR Inten    --     45.8808                70.6738               127.7272

                     25                     26                     27
                      A                      A                      A
 Frequencies --   1224.9095              1298.3100              1343.6110
 Red. masses --      2.1605                 1.8975                 1.6989
 Frc consts  --      1.9099                 1.8845                 1.8071
 IR Inten    --     31.7080                20.0515                11.4589

                     28                     29                     30
                      A                      A                      A
 Frequencies --   1400.0868              1418.1907              1451.2459
 Red. masses --      1.9671                 1.3016                 1.3107
 Frc consts  --      2.2719                 1.5424                 1.6265
 IR Inten    --     26.5555                 6.9962                21.2173

                     31                     32                     33
                      A                      A                      A
 Frequencies --   1495.8835              1518.8868              1645.8446
 Red. masses --      1.0481                 1.0952                 1.1207
 Frc consts  --      1.3818                 1.4887                 1.7887
 IR Inten    --      0.7385                 2.5310                44.3540

                     34                     35                     36
                      A                      A                      A
 Frequencies --   1661.7961              1727.1272              3041.3582
 Red. masses --      1.1014                 5.3860                 1.0417
 Frc consts  --      1.7921                 9.4661                 5.6772
 IR Inten    --     28.1824                96.4530                26.2445

                     37                     38                     39
                      A                      A                      A
 Frequencies --   3112.5441              3160.9273              3161.9390
 Red. masses --      1.0982                 1.0745                 1.0920
 Frc consts  --      6.2687                 6.3256                 6.4326
 IR Inten    --     29.2173                 9.1956                18.9919

                     40                     41                     42
                      A                      A                      A
 Frequencies --   3284.3604              3466.4469              3476.1501
 Red. masses --      1.1091                 1.0494                 1.0488
 Frc consts  --      7.0487                 7.4294                 7.4672
 IR Inten    --      2.0548                 2.0462                 2.7426

                     43                     44                     45
                      A                      A                      A
 Frequencies --   3556.8406              3569.4909              3811.6974
 Red. masses --      1.0924                 1.0926                 1.0656
 Frc consts  --      8.1422                 8.2022                 9.1221
 IR Inten    --      1.1374                 0.7542                21.5370

 - Thermochemistry -
 -------------------
 Temperature   298.150 Kelvin.  Pressure   1.00000 Atm.
 Atom     1 has atomic number  6 and mass  12.00000

 Molecular mass:   102.07931 amu.
 Principal axes and moments of inertia in atomic units:
                           1         2         3
     Eigenvalues --   539.46592 753.15686 925.10499
           X            0.99800   0.06188   0.01285
           Y           -0.06224   0.99763   0.02936
           Z           -0.01101  -0.03010   0.99949
 This molecule is an asymmetric top.
 Rotational symmetry number  1.
 Warning -- assumption of classical behavior for rotation
           may cause significant error
 Rotational temperatures (Kelvin)      0.16055     0.11500     0.09363
 Rotational constants (GHZ):           3.34542     2.39624     1.95085
 Zero-point vibrational energy     388313.0 (Joules/Mol)
                                   92.80903 (Kcal/Mol)
 Warning -- explicit consideration of  12 degrees of freedom as
           vibrations may cause significant error
 Vibrational temperatures:    106.89   326.38   391.73   413.46   428.11
          (Kelvin)            462.13   538.23   572.65   594.26   635.05
                              735.67   769.94   970.22  1029.76  1086.03
                             1208.64  1226.61  1292.48  1348.30  1396.37
                             1420.50  1504.50  1574.53  1683.31  1762.37
                             1867.98  1933.15  2014.41  2040.46  2088.02
                             2152.24  2185.34  2368.00  2390.95  2484.95
                             4375.83  4478.25  4547.86  4549.32  4725.46
                             4987.44  5001.40  5117.49  5135.69  5484.18

 Zero-point correction=                           0.147901 (Hartree/Particle)
 Thermal correction to Energy=                    0.156162
 Thermal correction to Enthalpy=                  0.157106
 Thermal correction to Gibbs Free Energy=         0.116258
 Sum of electronic and zero-point Energies=           -343.007294
 Sum of electronic and thermal Energies=              -342.999033
 Sum of electronic and thermal Enthalpies=            -342.998089
 Sum of electronic and thermal Free Energies=         -343.038937

                     E (Thermal)             CV                S
                      KCal/Mol        Cal/Mol-Kelvin    Cal/Mol-Kelvin
 Total                   97.993             31.863             85.972
 Electronic               0.000              0.000              0.000
 Translational            0.889              2.981             39.779
 Rotational               0.889              2.981             27.421
 Vibrational             96.215             25.902             18.772
 Vibration     1          0.599              1.966              4.036
 Vibration     2          0.651              1.800              1.904
 Vibration     3          0.675              1.724              1.582
 Vibration     4          0.685              1.697              1.489
 Vibration     5          0.691              1.678              1.431
 Vibration     6          0.707              1.633              1.304
 Vibration     7          0.745              1.525              1.063
 Vibration     8          0.764              1.474              0.970
 Vibration     9          0.777              1.442              0.916
 Vibration    10          0.801              1.380              0.822
 Vibration    11          0.866              1.225              0.630
 Vibration    12          0.890              1.172              0.576

 Optimization completed.
    -- Stationary point found.
 Normal termination of Gaussian 09 at Thu Sep  8 14:47:57 2022.
