 Gaussian 09, Revision E.01,
 Gaussian 09:  ES64L-G09RevE.01 30-Nov-2015

 ----------------------------
 #P OPT Freq B3LYP/6-31G(d,p)
 ----------------------------

 --------
 Frag_768
 --------
 Symbolic Z-matrix:
 Charge =  0 Multiplicity = 1

 SCF Done:  E(RB3LYP) =  -227.418560132     A.U. after   13 cycles
 SCF Done:  E(RB3LYP) =  -227.418642476     A.U. after    9 cycles
 SCF Done:  E(RB3LYP) =  -227.418645868     A.U. after    8 cycles
 SCF Done:  E(RB3LYP) =  -227.418647707     A.U. after    8 cycles
 SCF Done:  E(RB3LYP) =  -227.418648060     A.U. after    8 cycles
 Optimization completed.
    -- Stationary point found.
 Normal termination of Gaussian 09 at Thu Sep  8 15:19:47 2022.

 ----------------------------------------------------------------------
 #P Geom=AllCheck Guess=TCheck SCRF=Check GenChk RB3LYP/6-31G(d,p) Freq
 ----------------------------------------------------------------------

 Structure from the checkpoint file:  "B3LYP6-31Gdp.Frag_768.chk"
 --------
 Frag_768
 --------
 Charge =  0 Multiplicity = 1

                         Standard orientation:
 ---------------------------------------------------------------------
 Center     Atomic      Atomic             Coordinates (Angstroms)
 Number     Number       Type             X           Y           Z
 ---------------------------------------------------------------------
      1          6           0       -1.035511    1.240316   -0.149736
      2          6           0       -0.374517   -0.045238    0.389047
      3          7           0       -0.934101   -1.307082   -0.105647
      4          6           0        1.075604   -0.022713    0.104245
      5          7           0        2.208439    0.027132   -0.142118
      6          1           0       -2.099923    1.237396    0.105328
      7          1           0       -0.938791    1.295198   -1.238413
      8          1           0       -0.579666    2.137163    0.280500
      9          1           0       -0.474413   -0.058728    1.482112
     10          1           0       -1.912475   -1.365008    0.166718
     11          1           0       -0.908560   -1.320567   -1.123221
 ---------------------------------------------------------------------

 SCF Done:  E(RB3LYP) =  -227.418648059     A.U. after    1 cycles

 The electronic state is 1-A.
 Alpha  occ. eigenvalues --  -14.34070 -14.33248 -10.27016 -10.22399 -10.20478
 Alpha  occ. eigenvalues --   -0.92402  -0.89121  -0.76811  -0.66990  -0.54854
 Alpha  occ. eigenvalues --   -0.48747  -0.45203  -0.44774  -0.41130  -0.39216
 Alpha  occ. eigenvalues --   -0.35418  -0.32886  -0.32386  -0.26317
 Alpha virt. eigenvalues --    0.02192   0.03847   0.07856   0.11130   0.12406
 Alpha virt. eigenvalues --    0.14107   0.15243   0.17092   0.18817   0.22286
 Alpha virt. eigenvalues --    0.25951   0.34401   0.51669   0.52443   0.53226

 Mulliken charges:
               1
     1  C   -0.313906
     2  C   -0.020355
     3  N   -0.571916
     4  C    0.359661
     5  N   -0.467987
     6  H    0.111469
     7  H    0.122526
     8  H    0.127899
     9  H    0.152489
    10  H    0.249182
    11  H    0.250939
 Sum of Mulliken charges =  -0.00000

 Dipole moment (field-independent basis, Debye):
    X=             -4.5629    Y=              0.9469    Z=              0.0615  Tot=              4.6605
 Quadrupole moment (field-independent basis, Debye-Ang):
   XX=            -35.5632   YY=            -32.1457   ZZ=            -27.9526
   XY=              0.8541   XZ=              0.9823   YZ=              1.3503

  Exact polarizability:  52.171   1.472  37.071  -2.631   1.160  34.087
 Approx polarizability:  79.603   3.554  48.217  -7.684   1.661  48.973

                      1                      2                      3
                      A                      A                      A
 Frequencies --    193.5352               215.0280               253.8267
 Red. masses --      4.3390                 1.6273                 1.0230
 Frc consts  --      0.0958                 0.0443                 0.0388
 IR Inten    --      3.2626                15.0592                20.7494

                      4                      5                      6
                      A                      A                      A
 Frequencies --    299.6996               379.6790               563.7604
 Red. masses --      1.9037                 2.5675                 3.8530
 Frc consts  --      0.1007                 0.2181                 0.7215
 IR Inten    --     23.3413                 6.4765                 3.4046

                      7                      8                      9
                      A                      A                      A
 Frequencies --    583.4252               784.7277               848.6538
 Red. masses --      5.8277                 3.0707                 1.6147
 Frc consts  --      1.1687                 1.1141                 0.6852
 IR Inten    --      2.2080                 2.0859               167.1960

                     10                     11                     12
                      A                      A                      A
 Frequencies --    939.8757              1027.3075              1086.9526
 Red. masses --      1.5409                 1.4905                 2.9765
 Frc consts  --      0.8020                 0.9268                 2.0719
 IR Inten    --     20.2815                 4.5846                27.0281

                     13                     14                     15
                      A                      A                      A
 Frequencies --   1166.2798              1231.0516              1337.3784
 Red. masses --      1.5020                 1.6545                 1.2824
 Frc consts  --      1.2037                 1.4773                 1.3514
 IR Inten    --     11.4768                 8.5224                 6.9247

                     16                     17                     18
                      A                      A                      A
 Frequencies --   1412.4668              1420.1453              1502.6875
 Red. masses --      1.3541                 1.2207                 1.0456
 Frc consts  --      1.5917                 1.4506                 1.3910
 IR Inten    --     11.7606                 2.4910                 3.1194

                     19                     20                     21
                      A                      A                      A
 Frequencies --   1510.6365              1666.5369              2369.0633
 Red. masses --      1.0607                 1.0881                12.6654
 Frc consts  --      1.4262                 1.7805                41.8814
 IR Inten    --      3.6902                22.9926                 2.0027

                     22                     23                     24
                      A                      A                      A
 Frequencies --   3047.0561              3049.7327              3127.1026
 Red. masses --      1.0403                 1.0777                 1.1036
 Frc consts  --      5.6905                 5.9057                 6.3585
 IR Inten    --     10.9060                10.9758                20.8211

                     25                     26                     27
                      A                      A                      A
 Frequencies --   3131.0050              3490.0663              3581.4907
 Red. masses --      1.1036                 1.0490                 1.0934
 Frc consts  --      6.3740                 7.5284                 8.2635
 IR Inten    --     20.2489                 0.3167                 0.9100

 - Thermochemistry -
 -------------------
 Temperature   298.150 Kelvin.  Pressure   1.00000 Atm.
 Atom     1 has atomic number  6 and mass  12.00000

 Molecular mass:    70.05310 amu.
 Principal axes and moments of inertia in atomic units:
                           1         2         3
     Eigenvalues --   220.03407 451.82076 616.17887
           X            0.99974  -0.02160   0.00717
           Y            0.02156   0.99975   0.00593
           Z           -0.00730  -0.00577   0.99996
 This molecule is an asymmetric top.
 Rotational symmetry number  1.
 Rotational temperatures (Kelvin)      0.39364     0.19170     0.14057
 Rotational constants (GHZ):           8.20210     3.99437     2.92892
 Zero-point vibrational energy     240564.1 (Joules/Mol)
                                   57.49619 (Kcal/Mol)
 Warning -- explicit consideration of   7 degrees of freedom as
           vibrations may cause significant error
 Vibrational temperatures:    278.45   309.38   365.20   431.20   546.27
          (Kelvin)            811.12   839.42  1129.05  1221.02  1352.27
                             1478.06  1563.88  1678.01  1771.21  1924.19
                             2032.22  2043.27  2162.03  2173.47  2397.77
                             3408.55  4384.03  4387.88  4499.20  4504.81
                             5021.42  5152.96

 Zero-point correction=                           0.091626 (Hartree/Particle)
 Thermal correction to Energy=                    0.097473
 Thermal correction to Enthalpy=                  0.098417
 Thermal correction to Gibbs Free Energy=         0.063039
 Sum of electronic and zero-point Energies=           -227.327022
 Sum of electronic and thermal Energies=              -227.321176
 Sum of electronic and thermal Enthalpies=            -227.320231
 Sum of electronic and thermal Free Energies=         -227.355609

                     E (Thermal)             CV                S
                      KCal/Mol        Cal/Mol-Kelvin    Cal/Mol-Kelvin
 Total                   61.165             20.023             74.458
 Electronic               0.000              0.000              0.000
 Translational            0.889              2.981             38.657
 Rotational               0.889              2.981             25.619
 Vibrational             59.387             14.061             10.182
 Vibration     1          0.635              1.849              2.194
 Vibration     2          0.645              1.818              2.001
 Vibration     3          0.665              1.756              1.704
 Vibration     4          0.692              1.674              1.419
 Vibration     5          0.750              1.513              1.040
 Vibration     6          0.920              1.110              0.516
 Vibration     7          0.940              1.067              0.479

 Optimization completed.
    -- Stationary point found.
 Normal termination of Gaussian 09 at Thu Sep  8 15:19:55 2022.
