 Gaussian 09, Revision E.01,
 Gaussian 09:  ES64L-G09RevE.01 30-Nov-2015

 ----------------------------
 #P OPT Freq B3LYP/6-31G(d,p)
 ----------------------------

 --------
 Frag_670
 --------
 Symbolic Z-matrix:
 Charge =  0 Multiplicity = 1

 SCF Done:  E(RB3LYP) =  -264.520924295     A.U. after   14 cycles
 SCF Done:  E(RB3LYP) =  -264.521024308     A.U. after    9 cycles
 SCF Done:  E(RB3LYP) =  -264.521027727     A.U. after    8 cycles
 SCF Done:  E(RB3LYP) =  -264.521027553     A.U. after    8 cycles
 Optimization completed.
    -- Stationary point found.
 Normal termination of Gaussian 09 at Thu Sep  8 15:14:12 2022.

 ----------------------------------------------------------------------
 #P Geom=AllCheck Guess=TCheck SCRF=Check GenChk RB3LYP/6-31G(d,p) Freq
 ----------------------------------------------------------------------

 Structure from the checkpoint file:  "B3LYP6-31Gdp.Frag_670.chk"
 --------
 Frag_670
 --------
 Charge =  0 Multiplicity = 1

                         Standard orientation:
 ---------------------------------------------------------------------
 Center     Atomic      Atomic             Coordinates (Angstroms)
 Number     Number       Type             X           Y           Z
 ---------------------------------------------------------------------
      1          6           0       -1.563419   -0.778826   -0.000147
      2          7           0       -0.334272   -0.007078    0.000028
      3          7           0       -0.412031    1.393705    0.000073
      4          6           0        0.910526   -0.594596    0.000762
      5          8           0        1.980255   -0.025697   -0.000317
      6          1           0       -2.167850   -0.558856   -0.890068
      7          1           0       -1.329527   -1.846529   -0.000220
      8          1           0       -2.167999   -0.559019    0.889725
      9          1           0       -0.924247    1.701967    0.825083
     10          1           0       -0.923325    1.702082   -0.825467
     11          1           0        0.812393   -1.699919   -0.000911
 ---------------------------------------------------------------------

 SCF Done:  E(RB3LYP) =  -264.521027553     A.U. after    1 cycles

 The electronic state is 1-A.
 Alpha  occ. eigenvalues --  -19.10937 -14.39283 -14.36422 -10.27797 -10.23688
 Alpha  occ. eigenvalues --   -1.03553  -0.98271  -0.82568  -0.71607  -0.59434
 Alpha  occ. eigenvalues --   -0.52467  -0.51511  -0.47702  -0.44274  -0.42914
 Alpha  occ. eigenvalues --   -0.39968  -0.37561  -0.27185  -0.24811  -0.24584
 Alpha virt. eigenvalues --    0.03366   0.05708   0.11216   0.11592   0.13710
 Alpha virt. eigenvalues --    0.14933   0.16238   0.17765   0.23454   0.30216
 Alpha virt. eigenvalues --    0.36775   0.48775   0.50113   0.51398   0.59689

 Mulliken charges:
               1
     1  C   -0.171956
     2  N   -0.316679
     3  N   -0.418240
     4  C    0.425108
     5  O   -0.442601
     6  H    0.116092
     7  H    0.126308
     8  H    0.116063
     9  H    0.256492
    10  H    0.256524
    11  H    0.052886
 Sum of Mulliken charges =  -0.00000

 Dipole moment (field-independent basis, Debye):
    X=             -5.1329    Y=             -0.8280    Z=              0.0002  Tot=              5.1993
 Quadrupole moment (field-independent basis, Debye-Ang):
   XX=            -34.4545   YY=            -27.2530   ZZ=            -28.5429
   XY=             -3.1516   XZ=              0.0017   YZ=             -0.0015

  Exact polarizability:  49.399  -0.795  41.573  -0.003   0.001  27.540
 Approx polarizability:  73.556   1.892  55.720  -0.011  -0.003  38.276

                      1                      2                      3
                      A                      A                      A
 Frequencies --     94.4486               238.5742               275.5349
 Red. masses --      2.3511                 1.1307                 1.2022
 Frc consts  --      0.0124                 0.0379                 0.0538
 IR Inten    --      5.0412                 4.2004                27.8432

                      4                      5                      6
                      A                      A                      A
 Frequencies --    316.7871               325.6079               415.5136
 Red. masses --      5.5109                 2.3522                 2.4955
 Frc consts  --      0.3258                 0.1469                 0.2538
 IR Inten    --      2.5982                22.8315                 7.0991

                      7                      8                      9
                      A                      A                      A
 Frequencies --    656.7768               830.4777               964.2454
 Red. masses --      4.6492                 2.3822                 2.2762
 Frc consts  --      1.1816                 0.9680                 1.2469
 IR Inten    --      9.4622                99.2179               108.7949

                     10                     11                     12
                      A                      A                      A
 Frequencies --   1022.8860              1073.9681              1151.1845
 Red. masses --      1.5937                 1.5015                 1.2678
 Frc consts  --      0.9825                 1.0204                 0.9899
 IR Inten    --      1.0763                46.8354                 0.4170

                     13                     14                     15
                      A                      A                      A
 Frequencies --   1239.0492              1327.1132              1407.4826
 Red. masses --      5.2065                 1.1678                 3.0166
 Frc consts  --      4.7095                 1.2118                 3.5209
 IR Inten    --     12.9172                 4.1532                58.6432

                     16                     17                     18
                      A                      A                      A
 Frequencies --   1444.4152              1476.1560              1491.3305
 Red. masses --      1.2820                 1.1959                 1.0430
 Frc consts  --      1.5759                 1.5353                 1.3667
 IR Inten    --      4.2500                 1.4712                 9.3888

                     19                     20                     21
                      A                      A                      A
 Frequencies --   1532.3500              1690.6137              1838.9615
 Red. masses --      1.0873                 1.1459                 7.2501
 Frc consts  --      1.5043                 1.9296                14.4457
 IR Inten    --     10.6116                 3.6786               403.9862

                     22                     23                     24
                      A                      A                      A
 Frequencies --   2934.8650              3014.3978              3064.4526
 Red. masses --      1.0837                 1.0366                 1.1054
 Frc consts  --      5.4995                 5.5498                 6.1159
 IR Inten    --     95.9445                59.8089                41.3136

                     25                     26                     27
                      A                      A                      A
 Frequencies --   3129.3111              3452.5935              3541.3718
 Red. masses --      1.0983                 1.0452                 1.0979
 Frc consts  --      6.3367                 7.3406                 8.1123
 IR Inten    --     19.0298                 2.7867                 0.0042

 - Thermochemistry -
 -------------------
 Temperature   298.150 Kelvin.  Pressure   1.00000 Atm.
 Atom     1 has atomic number  6 and mass  12.00000

 Molecular mass:    74.04801 amu.
 Principal axes and moments of inertia in atomic units:
                           1         2         3
     Eigenvalues --   194.60335 435.53530 608.93331
           X            0.99998   0.00688  -0.00000
           Y           -0.00688   0.99998   0.00003
           Z            0.00000  -0.00003   1.00000
 This molecule is an asymmetric top.
 Rotational symmetry number  1.
 Rotational temperatures (Kelvin)      0.44508     0.19887     0.14224
 Rotational constants (GHZ):           9.27395     4.14373     2.96377
 Zero-point vibrational energy     238956.9 (Joules/Mol)
                                   57.11206 (Kcal/Mol)
 Warning -- explicit consideration of   6 degrees of freedom as
           vibrations may cause significant error
 Vibrational temperatures:    135.89   343.25   396.43   455.79   468.48
          (Kelvin)            597.83   944.95  1194.87  1387.33  1471.70
                             1545.20  1656.30  1782.71  1909.42  2025.05
                             2078.19  2123.86  2145.69  2204.71  2432.41
                             2645.85  4222.61  4337.04  4409.06  4502.38
                             4967.51  5095.24

 Zero-point correction=                           0.091014 (Hartree/Particle)
 Thermal correction to Energy=                    0.097011
 Thermal correction to Enthalpy=                  0.097955
 Thermal correction to Gibbs Free Energy=         0.061977
 Sum of electronic and zero-point Energies=           -264.430014
 Sum of electronic and thermal Energies=              -264.424017
 Sum of electronic and thermal Enthalpies=            -264.423073
 Sum of electronic and thermal Free Energies=         -264.459050

                     E (Thermal)             CV                S
                      KCal/Mol        Cal/Mol-Kelvin    Cal/Mol-Kelvin
 Total                   60.875             19.742             75.721
 Electronic               0.000              0.000              0.000
 Translational            0.889              2.981             38.822
 Rotational               0.889              2.981             25.449
 Vibrational             59.098             13.781             11.450
 Vibration     1          0.603              1.953              3.566
 Vibration     2          0.657              1.782              1.813
 Vibration     3          0.677              1.719              1.561
 Vibration     4          0.704              1.642              1.327
 Vibration     5          0.710              1.624              1.282
 Vibration     6          0.779              1.437              0.907

 Optimization completed.
    -- Stationary point found.
 Normal termination of Gaussian 09 at Thu Sep  8 15:14:20 2022.
