 Gaussian 09, Revision E.01,
 Gaussian 09:  ES64L-G09RevE.01 30-Nov-2015

 ----------------------------
 #P OPT Freq B3LYP/6-31G(d,p)
 ----------------------------

 --------
 Frag_598
 --------
 Symbolic Z-matrix:
 Charge =  0 Multiplicity = 1

 SCF Done:  E(RB3LYP) =  -209.180745715     A.U. after   13 cycles
 SCF Done:  E(RB3LYP) =  -209.180796678     A.U. after    9 cycles
 SCF Done:  E(RB3LYP) =  -209.180799589     A.U. after    8 cycles
 Optimization completed.
    -- Stationary point found.
 Normal termination of Gaussian 09 at Thu Sep  8 15:16:05 2022.

 ----------------------------------------------------------------------
 #P Geom=AllCheck Guess=TCheck SCRF=Check GenChk RB3LYP/6-31G(d,p) Freq
 ----------------------------------------------------------------------

 Structure from the checkpoint file:  "B3LYP6-31Gdp.Frag_598.chk"
 --------
 Frag_598
 --------
 Charge =  0 Multiplicity = 1

                         Standard orientation:
 ---------------------------------------------------------------------
 Center     Atomic      Atomic             Coordinates (Angstroms)
 Number     Number       Type             X           Y           Z
 ---------------------------------------------------------------------
      1          6           0       -1.466934   -0.414252   -0.001490
      2          7           0       -0.581536    0.742894   -0.000642
      3          6           0        0.667702    0.579020    0.000562
      4          8           0        1.308759   -0.631869    0.002144
      5          1           0       -0.963212   -1.383045   -0.090751
      6          1           0       -2.053166   -0.408804    0.924631
      7          1           0       -2.179102   -0.308050   -0.826961
      8          1           0        1.328597    1.449846   -0.000274
      9          1           0        2.262956   -0.483862   -0.013736
 ---------------------------------------------------------------------

 SCF Done:  E(RB3LYP) =  -209.180799589     A.U. after    1 cycles

 The electronic state is 1-A.
 Alpha  occ. eigenvalues --  -19.18800 -14.31121 -10.27257 -10.19581  -1.06888
 Alpha  occ. eigenvalues --   -0.89806  -0.70008  -0.59026  -0.54996  -0.46477
 Alpha  occ. eigenvalues --   -0.42980  -0.39504  -0.38346  -0.36853  -0.25852
 Alpha  occ. eigenvalues --   -0.25090
 Alpha virt. eigenvalues --    0.03093   0.05717   0.13680   0.14290   0.18184
 Alpha virt. eigenvalues --    0.18443   0.20590   0.28323   0.35731   0.50899
 Alpha virt. eigenvalues --    0.55963   0.56628   0.60785   0.62103   0.66092

 Mulliken charges:
               1
     1  C   -0.195532
     2  N   -0.398202
     3  C    0.306116
     4  O   -0.483569
     5  H    0.115291
     6  H    0.119600
     7  H    0.118205
     8  H    0.096102
     9  H    0.321989
 Sum of Mulliken charges =  -0.00000

 Dipole moment (field-independent basis, Debye):
    X=              2.2659    Y=             -0.5351    Z=             -0.0155  Tot=              2.3283
 Quadrupole moment (field-independent basis, Debye-Ang):
   XX=            -16.7703   YY=            -26.5048   ZZ=            -24.6295
   XY=              2.7340   XZ=             -0.0874   YZ=              0.0061

  Exact polarizability:  47.437   1.108  29.160  -0.095  -0.010  20.433
 Approx polarizability:  68.498  -4.134  41.020  -0.182  -0.022  27.899

                      1                      2                      3
                      A                      A                      A
 Frequencies --     38.4326               289.9859               345.0116
 Red. masses --      1.0818                 3.4812                 1.2361
 Frc consts  --      0.0009                 0.1725                 0.0867
 IR Inten    --      0.1330                13.4387               151.4890

                      4                      5                      6
                      A                      A                      A
 Frequencies --    501.0634               704.0874               939.7260
 Red. masses --      1.9777                 3.9941                 1.5019
 Frc consts  --      0.2925                 1.1666                 0.7814
 IR Inten    --      0.1148                 2.9754                 1.8134

                      7                      8                      9
                      A                      A                      A
 Frequencies --    955.4442              1117.2671              1141.3951
 Red. masses --      4.2830                 2.9508                 1.3552
 Frc consts  --      2.3036                 2.1702                 1.0402
 IR Inten    --     13.8104                60.3669                 1.0991

                     10                     11                     12
                      A                      A                      A
 Frequencies --   1157.8882              1273.6486              1436.5290
 Red. masses --      1.4700                 1.4933                 1.1637
 Frc consts  --      1.1612                 1.4272                 1.4149
 IR Inten    --     52.4964               212.6114                 2.8588

                     13                     14                     15
                      A                      A                      A
 Frequencies --   1448.2248              1509.3002              1513.5761
 Red. masses --      1.1754                 1.0521                 1.0530
 Frc consts  --      1.4525                 1.4121                 1.4213
 IR Inten    --      6.5511                 5.2802                 5.8472

                     16                     17                     18
                      A                      A                      A
 Frequencies --   1806.3359              3030.9688              3095.0300
 Red. masses --      7.5723                 1.0319                 1.1018
 Frc consts  --     14.5572                 5.5853                 6.2187
 IR Inten    --    193.7169                46.6086                27.2323

                     19                     20                     21
                      A                      A                      A
 Frequencies --   3105.6787              3118.5787              3829.6282
 Red. masses --      1.1049                 1.0914                 1.0667
 Frc consts  --      6.2790                 6.2536                 9.2176
 IR Inten    --     25.1974                38.2838                51.2437

 - Thermochemistry -
 -------------------
 Temperature   298.150 Kelvin.  Pressure   1.00000 Atm.
 Atom     1 has atomic number  6 and mass  12.00000

 Molecular mass:    59.03711 amu.
 Principal axes and moments of inertia in atomic units:
                           1         2         3
     Eigenvalues --    92.98545 292.73282 374.58066
           X            0.99783   0.06580  -0.00049
           Y           -0.06580   0.99783   0.00029
           Z            0.00051  -0.00026   1.00000
 This molecule is an asymmetric top.
 Rotational symmetry number  1.
 Rotational temperatures (Kelvin)      0.93148     0.29588     0.23123
 Rotational constants (GHZ):          19.40886     6.16515     4.81803
 Zero-point vibrational energy     193542.6 (Joules/Mol)
                                   46.25780 (Kcal/Mol)
 Warning -- explicit consideration of   4 degrees of freedom as
           vibrations may cause significant error
 Vibrational temperatures:     55.30   417.22   496.39   720.92  1013.02
          (Kelvin)           1352.05  1374.67  1607.50  1642.21  1665.94
                             1832.49  2066.84  2083.67  2171.54  2177.70
                             2598.91  4360.88  4453.05  4468.37  4486.93
                             5509.97

 Zero-point correction=                           0.073716 (Hartree/Particle)
 Thermal correction to Energy=                    0.078733
 Thermal correction to Enthalpy=                  0.079677
 Thermal correction to Gibbs Free Energy=         0.045743
 Sum of electronic and zero-point Energies=           -209.107083
 Sum of electronic and thermal Energies=              -209.102067
 Sum of electronic and thermal Enthalpies=            -209.101123
 Sum of electronic and thermal Free Energies=         -209.135057

                     E (Thermal)             CV                S
                      KCal/Mol        Cal/Mol-Kelvin    Cal/Mol-Kelvin
 Total                   49.405             15.426             71.419
 Electronic               0.000              0.000              0.000
 Translational            0.889              2.981             38.147
 Rotational               0.889              2.981             23.837
 Vibrational             47.628              9.465              9.435
 Vibration     1          0.594              1.982              5.338
 Vibration     2          0.686              1.692              1.474
 Vibration     3          0.723              1.585              1.189
 Vibration     4          0.856              1.248              0.655

 Normal termination of Gaussian 09 at Thu Sep  8 15:16:11 2022.
