 Gaussian 09, Revision E.01,
 Gaussian 09:  ES64L-G09RevE.01 30-Nov-2015

 ----------------------------
 #P OPT Freq B3LYP/6-31G(d,p)
 ----------------------------

 --------
 Frag_700
 --------
 Symbolic Z-matrix:
 Charge =  0 Multiplicity = 1

 SCF Done:  E(RB3LYP) =  -245.817496248     A.U. after   12 cycles
 SCF Done:  E(RB3LYP) =  -245.817529275     A.U. after   10 cycles
 SCF Done:  E(RB3LYP) =  -245.817537378     A.U. after    8 cycles
 SCF Done:  E(RB3LYP) =  -245.817540617     A.U. after    9 cycles
 SCF Done:  E(RB3LYP) =  -245.817541259     A.U. after    8 cycles
 SCF Done:  E(RB3LYP) =  -245.817541334     A.U. after    7 cycles
 Optimization completed.
    -- Stationary point found.
 Normal termination of Gaussian 09 at Thu Sep  8 14:59:27 2022.

 ----------------------------------------------------------------------
 #P Geom=AllCheck Guess=TCheck SCRF=Check GenChk RB3LYP/6-31G(d,p) Freq
 ----------------------------------------------------------------------

 Structure from the checkpoint file:  "B3LYP6-31Gdp.Frag_700.chk"
 --------
 Frag_700
 --------
 Charge =  0 Multiplicity = 1

                         Standard orientation:
 ---------------------------------------------------------------------
 Center     Atomic      Atomic             Coordinates (Angstroms)
 Number     Number       Type             X           Y           Z
 ---------------------------------------------------------------------
      1          6           0        0.685829    1.378173    0.086850
      2          7           0        0.392449    0.007631   -0.332711
      3          6           0        1.533024   -0.863336   -0.067390
      4          7           0       -0.745369   -0.467929    0.480222
      5          7           0       -1.980168   -0.144051   -0.149768
      6          1           0        1.489515    1.776818   -0.539291
      7          1           0       -0.198983    2.001618   -0.070301
      8          1           0        0.978221    1.448355    1.147281
      9          1           0        1.801905   -0.912626    1.002489
     10          1           0        1.314618   -1.877655   -0.420504
     11          1           0        2.397272   -0.494107   -0.625544
     12          1           0       -0.684340   -1.483658    0.418385
     13          1           0       -2.239131    0.792246    0.150449
     14          1           0       -1.840582   -0.109572   -1.163936
 ---------------------------------------------------------------------

 SCF Done:  E(RB3LYP) =  -245.817541334     A.U. after    1 cycles

 The electronic state is 1-A.
 Alpha  occ. eigenvalues --  -14.36512 -14.34815 -14.33502 -10.20735 -10.20054
 Alpha  occ. eigenvalues --   -0.99198  -0.87841  -0.73462  -0.70476  -0.60705
 Alpha  occ. eigenvalues --   -0.49964  -0.49198  -0.47242  -0.44803  -0.41381
 Alpha  occ. eigenvalues --   -0.39127  -0.38529  -0.36620  -0.28984  -0.25180
 Alpha  occ. eigenvalues --   -0.19836
 Alpha virt. eigenvalues --    0.07777   0.09749   0.11925   0.13384   0.15759
 Alpha virt. eigenvalues --    0.15997   0.16947   0.18093   0.18560   0.21017
 Alpha virt. eigenvalues --    0.22302   0.24120   0.25518   0.51782   0.52689

 Mulliken charges:
               1
     1  C   -0.134677
     2  N   -0.324722
     3  C   -0.170816
     4  N   -0.276846
     5  N   -0.453034
     6  H    0.106243
     7  H    0.093724
     8  H    0.094099
     9  H    0.097208
    10  H    0.105261
    11  H    0.116426
    12  H    0.260103
    13  H    0.255207
    14  H    0.231823
 Sum of Mulliken charges =  -0.00000

 Dipole moment (field-independent basis, Debye):
    X=              1.2533    Y=              0.4739    Z=             -0.7509  Tot=              1.5360
 Quadrupole moment (field-independent basis, Debye-Ang):
   XX=            -33.1931   YY=            -28.8644   ZZ=            -34.2792
   XY=             -2.8403   XZ=              1.5577   YZ=              0.0868

  Exact polarizability:  53.708  -1.467  46.462   2.017  -0.075  37.982
 Approx polarizability:  68.902  -1.241  61.210   1.898  -0.756  54.553

                      1                      2                      3
                      A                      A                      A
 Frequencies --     82.9125               248.0444               263.6478
 Red. masses --      2.5051                 1.1607                 1.0679
 Frc consts  --      0.0101                 0.0421                 0.0437
 IR Inten    --      4.0224                 0.6619                 0.5535

                      4                      5                      6
                      A                      A                      A
 Frequencies --    315.8245               356.6350               410.6656
 Red. masses --      2.1849                 1.3147                 2.2451
 Frc consts  --      0.1284                 0.0985                 0.2231
 IR Inten    --      4.0528                23.2307                 2.3582

                      7                      8                      9
                      A                      A                      A
 Frequencies --    476.9776               526.1343               772.5094
 Red. masses --      1.9328                 2.8151                 3.3082
 Frc consts  --      0.2591                 0.4591                 1.1632
 IR Inten    --     29.5232                12.7135                33.7335

                     10                     11                     12
                      A                      A                      A
 Frequencies --    908.7064               940.3852              1027.6084
 Red. masses --      3.4136                 2.3092                 1.5148
 Frc consts  --      1.6608                 1.2032                 0.9424
 IR Inten    --     84.4248               101.9608                15.2295

                     13                     14                     15
                      A                      A                      A
 Frequencies --   1046.6928              1113.6204              1146.3103
 Red. masses --      1.4972                 1.2552                 2.0541
 Frc consts  --      0.9664                 0.9172                 1.5903
 IR Inten    --     15.1467                 6.5981                37.0686

                     16                     17                     18
                      A                      A                      A
 Frequencies --   1197.4756              1253.4777              1265.8129
 Red. masses --      1.5946                 2.0394                 1.8274
 Frc consts  --      1.3472                 1.8879                 1.7251
 IR Inten    --      5.0200                 7.8053                 7.9587

                     19                     20                     21
                      A                      A                      A
 Frequencies --   1344.0358              1440.8905              1469.1791
 Red. masses --      1.4762                 1.1779                 1.1856
 Frc consts  --      1.5711                 1.4408                 1.5078
 IR Inten    --     11.4678                 0.6449                 0.1833

                     22                     23                     24
                      A                      A                      A
 Frequencies --   1490.2480              1503.1829              1507.8277
 Red. masses --      1.0492                 1.0454                 1.0501
 Frc consts  --      1.3728                 1.3917                 1.4066
 IR Inten    --     11.5009                 3.9380                 3.2089

                     25                     26                     27
                      A                      A                      A
 Frequencies --   1524.7427              1531.5983              1690.2407
 Red. masses --      1.0519                 1.1236                 1.0640
 Frc consts  --      1.4409                 1.5529                 1.7910
 IR Inten    --      9.8544                 3.6447                17.5743

                     28                     29                     30
                      A                      A                      A
 Frequencies --   2963.9666              2985.8208              3070.7543
 Red. masses --      1.0540                 1.0510                 1.0824
 Frc consts  --      5.4554                 5.5207                 6.0136
 IR Inten    --     65.2732                76.2192                34.7131

                     31                     32                     33
                      A                      A                      A
 Frequencies --   3089.1919              3122.5700              3127.1309
 Red. masses --      1.0828                 1.1026                 1.1006
 Frc consts  --      6.0880                 6.3344                 6.3411
 IR Inten    --     32.4688                10.8652                39.0044

                     34                     35                     36
                      A                      A                      A
 Frequencies --   3403.9481              3476.6650              3546.8193
 Red. masses --      1.0535                 1.0758                 1.0868
 Frc consts  --      7.1917                 7.6612                 8.0551
 IR Inten    --     14.6680                 1.7621                 0.5918

 - Thermochemistry -
 -------------------
 Temperature   298.150 Kelvin.  Pressure   1.00000 Atm.
 Atom     1 has atomic number  6 and mass  12.00000

 Molecular mass:    75.07965 amu.
 Principal axes and moments of inertia in atomic units:
                           1         2         3
     Eigenvalues --   220.82542 470.06151 619.55421
           X            0.99943  -0.03070   0.01410
           Y            0.03059   0.99950   0.00808
           Z           -0.01434  -0.00764   0.99987
 This molecule is an asymmetric top.
 Rotational symmetry number  1.
 Rotational temperatures (Kelvin)      0.39223     0.18426     0.13980
 Rotational constants (GHZ):           8.17271     3.83937     2.91297
 Zero-point vibrational energy     332814.6 (Joules/Mol)
                                   79.54459 (Kcal/Mol)
 Warning -- explicit consideration of   8 degrees of freedom as
           vibrations may cause significant error
 Vibrational temperatures:    119.29   356.88   379.33   454.40   513.12
          (Kelvin)            590.86   686.26   756.99  1111.47  1307.42
                             1353.00  1478.50  1505.96  1602.25  1649.28
                             1722.90  1803.47  1821.22  1933.77  2073.12
                             2113.82  2144.13  2162.74  2169.43  2193.76
                             2203.63  2431.88  4264.48  4295.92  4418.13
                             4444.65  4492.68  4499.24  4897.52  5002.14
                             5103.08

 Zero-point correction=                           0.126762 (Hartree/Particle)
 Thermal correction to Energy=                    0.133204
 Thermal correction to Enthalpy=                  0.134149
 Thermal correction to Gibbs Free Energy=         0.097366
 Sum of electronic and zero-point Energies=           -245.690779
 Sum of electronic and thermal Energies=              -245.684337
 Sum of electronic and thermal Enthalpies=            -245.683393
 Sum of electronic and thermal Free Energies=         -245.720175

                     E (Thermal)             CV                S
                      KCal/Mol        Cal/Mol-Kelvin    Cal/Mol-Kelvin
 Total                   83.587             22.641             77.416
 Electronic               0.000              0.000              0.000
 Translational            0.889              2.981             38.864
 Rotational               0.889              2.981             25.667
 Vibrational             81.810             16.679             12.885
 Vibration     1          0.600              1.961              3.821
 Vibration     2          0.662              1.766              1.744
 Vibration     3          0.670              1.740              1.637
 Vibration     4          0.703              1.643              1.332
 Vibration     5          0.732              1.562              1.137
 Vibration     6          0.775              1.447              0.924
 Vibration     7          0.834              1.301              0.718
 Vibration     8          0.881              1.192              0.596

 Optimization completed.
    -- Stationary point found.
 Normal termination of Gaussian 09 at Thu Sep  8 14:59:38 2022.
