 Gaussian 09, Revision E.01,
 Gaussian 09:  ES64L-G09RevE.01 30-Nov-2015

 ----------------------------
 #P OPT Freq B3LYP/6-31G(d,p)
 ----------------------------

 --------
 Frag_837
 --------
 Symbolic Z-matrix:
 Charge =  0 Multiplicity = 1

 SCF Done:  E(RB3LYP) =  -188.097990855     A.U. after   13 cycles
 SCF Done:  E(RB3LYP) =  -188.098041706     A.U. after   11 cycles
 SCF Done:  E(RB3LYP) =  -188.097811336     A.U. after   12 cycles
 SCF Done:  E(RB3LYP) =  -188.098065825     A.U. after    8 cycles
 SCF Done:  E(RB3LYP) =  -188.098069371     A.U. after    9 cycles
 SCF Done:  E(RB3LYP) =  -188.098073332     A.U. after    9 cycles
 SCF Done:  E(RB3LYP) =  -188.098075835     A.U. after    8 cycles
 SCF Done:  E(RB3LYP) =  -188.098076281     A.U. after    8 cycles
 SCF Done:  E(RB3LYP) =  -188.098076316     A.U. after    7 cycles
 Optimization completed.
    -- Stationary point found.
 Normal termination of Gaussian 09 at Thu Sep  8 15:22:37 2022.

 ----------------------------------------------------------------------
 #P Geom=AllCheck Guess=TCheck SCRF=Check GenChk RB3LYP/6-31G(d,p) Freq
 ----------------------------------------------------------------------

 Structure from the checkpoint file:  "B3LYP6-31Gdp.Frag_837.chk"
 --------
 Frag_837
 --------
 Charge =  0 Multiplicity = 1

                         Standard orientation:
 ---------------------------------------------------------------------
 Center     Atomic      Atomic             Coordinates (Angstroms)
 Number     Number       Type             X           Y           Z
 ---------------------------------------------------------------------
      1          7           0        1.945506   -0.292545   -0.021425
      2          6           0        0.853720    0.099497   -0.009086
      3          6           0       -0.528318    0.602008    0.047491
      4          7           0       -1.487087   -0.491232   -0.115990
      5          1           0       -0.623667    1.187158    0.978383
      6          1           0       -0.659130    1.307784   -0.780867
      7          1           0       -1.451349   -1.110471    0.689610
      8          1           0       -2.427192   -0.107063   -0.155656
 ---------------------------------------------------------------------

 SCF Done:  E(RB3LYP) =  -188.098076316     A.U. after    1 cycles

 The electronic state is 1-A.
 Alpha  occ. eigenvalues --  -14.34470 -14.33516 -10.26847 -10.22833  -0.92226
 Alpha  occ. eigenvalues --   -0.89347  -0.73201  -0.54436  -0.49453  -0.47941
 Alpha  occ. eigenvalues --   -0.43426  -0.35875  -0.33243  -0.32780  -0.26644
 Alpha virt. eigenvalues --    0.01592   0.03959   0.08456   0.11306   0.13090
 Alpha virt. eigenvalues --    0.16696   0.18361   0.23530   0.31723   0.52967
 Alpha virt. eigenvalues --    0.54450   0.56310   0.58617   0.64796   0.67944

 Mulliken charges:
               1
     1  N   -0.460863
     2  C    0.352039
     3  C   -0.114619
     4  N   -0.584105
     5  H    0.134900
     6  H    0.161293
     7  H    0.257343
     8  H    0.254012
 Sum of Mulliken charges =  -0.00000

 Dipole moment (field-independent basis, Debye):
    X=             -4.0074    Y=              1.7467    Z=              1.2684  Tot=              4.5518
 Quadrupole moment (field-independent basis, Debye-Ang):
   XX=            -26.8880   YY=            -22.8979   ZZ=            -23.4473
   XY=              0.4657   XZ=             -1.5485   YZ=             -1.9550

  Exact polarizability:  41.727  -3.225  26.677   0.289  -0.944  22.245
 Approx polarizability:  63.760  -9.328  37.501   0.881  -1.279  30.450

                      1                      2                      3
                      A                      A                      A
 Frequencies --    210.9846               251.0752               385.3058
 Red. masses --      2.0095                 1.7797                 3.2213
 Frc consts  --      0.0527                 0.0661                 0.2818
 IR Inten    --     14.0676                33.7426                 8.1247

                      4                      5                      6
                      A                      A                      A
 Frequencies --    572.0556               829.5011               878.2773
 Red. masses --      6.3885                 1.3405                 2.8430
 Frc consts  --      1.2318                 0.5434                 1.2921
 IR Inten    --      6.4990               141.9324                14.6326

                      7                      8                      9
                      A                      A                      A
 Frequencies --   1004.5882              1090.6084              1193.5005
 Red. masses --      2.0124                 2.4028                 1.1862
 Frc consts  --      1.1966                 1.6839                 0.9955
 IR Inten    --     21.9351                 8.7685                 0.3055

                     10                     11                     12
                      A                      A                      A
 Frequencies --   1316.6955              1426.9972              1501.8339
 Red. masses --      1.1825                 1.4069                 1.0753
 Frc consts  --      1.2079                 1.6879                 1.4289
 IR Inten    --      8.3257                16.2750                 2.0883

                     13                     14                     15
                      A                      A                      A
 Frequencies --   1669.2367              2375.3944              2969.6347
 Red. masses --      1.0864                12.6164                 1.0724
 Frc consts  --      1.7835                41.9428                 5.5719
 IR Inten    --     23.3721                 1.5197                47.5407

                     16                     17                     18
                      A                      A                      A
 Frequencies --   3076.8013              3504.5935              3595.2159
 Red. masses --      1.0880                 1.0494                 1.0939
 Frc consts  --      6.0682                 7.5938                 8.3303
 IR Inten    --      7.9158                 0.4752                 1.8608

 - Thermochemistry -
 -------------------
 Temperature   298.150 Kelvin.  Pressure   1.00000 Atm.
 Atom     1 has atomic number  7 and mass  14.00307

 Molecular mass:    56.03745 amu.
 Principal axes and moments of inertia in atomic units:
                           1         2         3
     Eigenvalues --    56.08397 381.21560 421.16282
           X            0.99997   0.00120  -0.00769
           Y           -0.00160   0.99861  -0.05272
           Z            0.00762   0.05273   0.99858
 This molecule is an asymmetric top.
 Rotational symmetry number  1.
 Rotational temperatures (Kelvin)      1.54436     0.22720     0.20565
 Rotational constants (GHZ):          32.17927     4.73417     4.28514
 Zero-point vibrational energy     166593.7 (Joules/Mol)
                                   39.81686 (Kcal/Mol)
 Warning -- explicit consideration of   4 degrees of freedom as
           vibrations may cause significant error
 Vibrational temperatures:    303.56   361.24   554.37   823.06  1193.47
          (Kelvin)           1263.64  1445.38  1569.14  1717.18  1894.43
                             2053.13  2160.80  2401.66  3417.66  4272.64
                             4426.83  5042.32  5172.71

 Zero-point correction=                           0.063452 (Hartree/Particle)
 Thermal correction to Energy=                    0.068046
 Thermal correction to Enthalpy=                  0.068990
 Thermal correction to Gibbs Free Energy=         0.036882
 Sum of electronic and zero-point Energies=           -188.034624
 Sum of electronic and thermal Energies=              -188.030030
 Sum of electronic and thermal Enthalpies=            -188.029086
 Sum of electronic and thermal Free Energies=         -188.061194

                     E (Thermal)             CV                S
                      KCal/Mol        Cal/Mol-Kelvin    Cal/Mol-Kelvin
 Total                   42.700             14.498             67.577
 Electronic               0.000              0.000              0.000
 Translational            0.889              2.981             37.992
 Rotational               0.889              2.981             23.714
 Vibrational             40.922              8.537              5.872
 Vibration     1          0.643              1.824              2.035
 Vibration     2          0.663              1.761              1.723
 Vibration     3          0.754              1.502              1.018
 Vibration     4          0.928              1.092              0.500

 Optimization completed.
    -- Stationary point found.
 Normal termination of Gaussian 09 at Thu Sep  8 15:22:43 2022.
