 Gaussian 09, Revision E.01,
 Gaussian 09:  ES64L-G09RevE.01 30-Nov-2015

 ----------------------------
 #P OPT Freq B3LYP/6-31G(d,p)
 ----------------------------

 --------
 Frag_681
 --------
 Symbolic Z-matrix:
 Charge =  0 Multiplicity = 1

 SCF Done:  E(RB3LYP) =  -287.803924290     A.U. after   14 cycles
 SCF Done:  E(RB3LYP) =  -287.803984015     A.U. after   11 cycles
 SCF Done:  E(RB3LYP) =  -287.803987490     A.U. after    8 cycles
 SCF Done:  E(RB3LYP) =  -287.803989052     A.U. after    8 cycles
 SCF Done:  E(RB3LYP) =  -287.803989084     A.U. after    7 cycles
 SCF Done:  E(RB3LYP) =  -287.803989235     A.U. after    7 cycles
 SCF Done:  E(RB3LYP) =  -287.803989228     A.U. after    7 cycles
 Optimization completed.
    -- Stationary point found.
 Normal termination of Gaussian 09 at Thu Sep  8 15:04:57 2022.

 ----------------------------------------------------------------------
 #P Geom=AllCheck Guess=TCheck SCRF=Check GenChk RB3LYP/6-31G(d,p) Freq
 ----------------------------------------------------------------------

 Structure from the checkpoint file:  "B3LYP6-31Gdp.Frag_681.chk"
 --------
 Frag_681
 --------
 Charge =  0 Multiplicity = 1

                         Standard orientation:
 ---------------------------------------------------------------------
 Center     Atomic      Atomic             Coordinates (Angstroms)
 Number     Number       Type             X           Y           Z
 ---------------------------------------------------------------------
      1          6           0       -2.176479    0.096249   -0.020424
      2          6           0       -0.997163    0.512495    0.436524
      3          6           0        0.354710   -0.016914   -0.001961
      4          6           0        1.269589    1.130766   -0.455967
      5          7           0        1.038265   -0.756142    1.073081
      6          8           0        0.141357   -0.930186   -1.067320
      7          1           0       -2.238841   -0.659615   -0.795461
      8          1           0       -3.106796    0.502628    0.365383
      9          1           0       -0.947894    1.278981    1.210239
     10          1           0        2.258572    0.735763   -0.709124
     11          1           0        1.391129    1.887902    0.327030
     12          1           0        0.841232    1.611312   -1.338009
     13          1           0        1.389645   -0.117820    1.783198
     14          1           0        0.366185   -1.369960    1.530013
     15          1           0        0.944114   -1.470294   -1.095318
 ---------------------------------------------------------------------

 SCF Done:  E(RB3LYP) =  -287.803989228     A.U. after    1 cycles

 The electronic state is 1-A.
 Alpha  occ. eigenvalues --  -19.13612 -14.32118 -10.26722 -10.18197 -10.17514
 Alpha  occ. eigenvalues --  -10.17340  -1.02367  -0.87594  -0.76639  -0.72024
 Alpha  occ. eigenvalues --   -0.61698  -0.55056  -0.51212  -0.48474  -0.45276
 Alpha  occ. eigenvalues --   -0.43512  -0.41393  -0.38267  -0.37341  -0.35115
 Alpha  occ. eigenvalues --   -0.33771  -0.28304  -0.26202  -0.23905
 Alpha virt. eigenvalues --    0.02102   0.07355   0.11528   0.13019   0.14322
 Alpha virt. eigenvalues --    0.15444   0.17047   0.17809   0.18314   0.20811
 Alpha virt. eigenvalues --    0.22834   0.24767   0.27241   0.31539   0.36284

 Mulliken charges:
               1
     1  C   -0.237397
     2  C   -0.045732
     3  C    0.345006
     4  C   -0.311402
     5  N   -0.595430
     6  O   -0.550375
     7  H    0.122281
     8  H    0.091385
     9  H    0.072588
    10  H    0.106291
    11  H    0.089950
    12  H    0.125769
    13  H    0.236145
    14  H    0.244381
    15  H    0.306539
 Sum of Mulliken charges =  -0.00000

 Dipole moment (field-independent basis, Debye):
    X=              0.5992    Y=              0.5347    Z=              1.5286  Tot=              1.7267
 Quadrupole moment (field-independent basis, Debye-Ang):
   XX=            -36.8214   YY=            -36.4814   ZZ=            -35.7166
   XY=              0.3575   XZ=             -1.0731   YZ=              0.9499

  Exact polarizability:  66.567   1.827  46.820   3.854   4.779  46.867
 Approx polarizability:  91.962   4.496  65.114  10.867   9.653  66.889

                      1                      2                      3
                      A                      A                      A
 Frequencies --    105.5563               237.1380               261.2382
 Red. masses --      2.6221                 1.0598                 1.1558
 Frc consts  --      0.0172                 0.0351                 0.0465
 IR Inten    --      1.1017                22.0887                 8.1679

                      4                      5                      6
                      A                      A                      A
 Frequencies --    288.1247               319.2930               356.1868
 Red. masses --      2.3380                 1.9740                 1.8805
 Frc consts  --      0.1144                 0.1186                 0.1406
 IR Inten    --     12.4127                 0.1914                19.7419

                      7                      8                      9
                      A                      A                      A
 Frequencies --    403.2196               433.9490               514.4624
 Red. masses --      1.4924                 2.6101                 2.2933
 Frc consts  --      0.1430                 0.2896                 0.3576
 IR Inten    --     52.6170                 9.4181                41.8601

                     10                     11                     12
                      A                      A                      A
 Frequencies --    575.3594               705.0592               756.7650
 Red. masses --      2.8068                 1.8239                 3.3315
 Frc consts  --      0.5474                 0.5342                 1.1241
 IR Inten    --      6.4481                20.8914                 7.9056

                     13                     14                     15
                      A                      A                      A
 Frequencies --    882.1890               926.7130               956.1152
 Red. masses --      1.6526                 1.9963                 1.3656
 Frc consts  --      0.7578                 1.0101                 0.7355
 IR Inten    --    164.4796                10.2374                30.1748

                     16                     17                     18
                      A                      A                      A
 Frequencies --    979.3953              1010.9654              1035.4030
 Red. masses --      1.4340                 1.9143                 1.0936
 Frc consts  --      0.8104                 1.1527                 0.6908
 IR Inten    --     32.4134                44.5729                14.3791

                     19                     20                     21
                      A                      A                      A
 Frequencies --   1050.0897              1144.7701              1234.3245
 Red. masses --      1.3666                 1.8012                 2.8349
 Frc consts  --      0.8879                 1.3908                 2.5448
 IR Inten    --     13.4979                46.6728                97.0380

                     22                     23                     24
                      A                      A                      A
 Frequencies --   1306.9437              1348.0643              1367.1367
 Red. masses --      1.5122                 1.4843                 1.5755
 Frc consts  --      1.5218                 1.5892                 1.7350
 IR Inten    --     25.3202                13.7519                31.3275

                     25                     26                     27
                      A                      A                      A
 Frequencies --   1415.5705              1455.4842              1503.1128
 Red. masses --      1.3051                 1.2378                 1.0563
 Frc consts  --      1.5409                 1.5449                 1.4061
 IR Inten    --     12.0450                19.0316                 3.1583

                     28                     29                     30
                      A                      A                      A
 Frequencies --   1507.0434              1656.6599              1725.1873
 Red. masses --      1.0668                 1.1099                 4.8821
 Frc consts  --      1.4275                 1.7948                 8.5611
 IR Inten    --      2.3849                36.8836                 1.5801

                     31                     32                     33
                      A                      A                      A
 Frequencies --   3044.1568              3114.1656              3144.1549
 Red. masses --      1.0374                 1.1012                 1.0808
 Frc consts  --      5.6642                 6.2919                 6.2953
 IR Inten    --     16.9012                25.1856                14.2807

                     34                     35                     36
                      A                      A                      A
 Frequencies --   3149.1070              3166.9888              3257.8464
 Red. masses --      1.1011                 1.0704                 1.1153
 Frc consts  --      6.4337                 6.3252                 6.9740
 IR Inten    --     17.9980                11.7622                 7.3739

                     37                     38                     39
                      A                      A                      A
 Frequencies --   3486.6555              3578.7882              3797.1110
 Red. masses --      1.0494                 1.0929                 1.0652
 Frc consts  --      7.5166                 8.2472                 9.0488
 IR Inten    --      0.1329                 0.4794                25.3751

 - Thermochemistry -
 -------------------
 Temperature   298.150 Kelvin.  Pressure   1.00000 Atm.
 Atom     1 has atomic number  6 and mass  12.00000

 Molecular mass:    87.06841 amu.
 Principal axes and moments of inertia in atomic units:
                           1         2         3
     Eigenvalues --   371.57119 650.11653 661.20552
           X            0.99953   0.02766  -0.01360
           Y           -0.02943   0.98750  -0.15483
           Z            0.00915   0.15516   0.98785
 This molecule is an asymmetric top.
 Rotational symmetry number  1.
 Rotational temperatures (Kelvin)      0.23310     0.13323     0.13099
 Rotational constants (GHZ):           4.85705     2.77603     2.72947
 Zero-point vibrational energy     342134.9 (Joules/Mol)
                                   81.77221 (Kcal/Mol)
 Warning -- explicit consideration of  10 degrees of freedom as
           vibrations may cause significant error
 Vibrational temperatures:    151.87   341.19   375.86   414.55   459.39
          (Kelvin)            512.47   580.14   624.36   740.20   827.81
                             1014.42  1088.81  1269.27  1333.33  1375.63
                             1409.13  1454.55  1489.71  1510.84  1647.07
                             1775.92  1880.40  1939.56  1967.00  2036.69
                             2094.11  2162.64  2168.30  2383.56  2482.16
                             4379.86  4480.58  4523.73  4530.86  4556.58
                             4687.31  5016.51  5149.07  5463.19

 Zero-point correction=                           0.130312 (Hartree/Particle)
 Thermal correction to Energy=                    0.137584
 Thermal correction to Enthalpy=                  0.138528
 Thermal correction to Gibbs Free Energy=         0.100015
 Sum of electronic and zero-point Energies=           -287.673677
 Sum of electronic and thermal Energies=              -287.666405
 Sum of electronic and thermal Enthalpies=            -287.665461
 Sum of electronic and thermal Free Energies=         -287.703974

                     E (Thermal)             CV                S
                      KCal/Mol        Cal/Mol-Kelvin    Cal/Mol-Kelvin
 Total                   86.335             27.112             81.057
 Electronic               0.000              0.000              0.000
 Translational            0.889              2.981             39.305
 Rotational               0.889              2.981             26.571
 Vibrational             84.558             21.150             15.181
 Vibration     1          0.605              1.945              3.349
 Vibration     2          0.656              1.784              1.824
 Vibration     3          0.669              1.744              1.653
 Vibration     4          0.685              1.696              1.485
 Vibration     5          0.705              1.637              1.314
 Vibration     6          0.732              1.563              1.139
 Vibration     7          0.769              1.463              0.951
 Vibration     8          0.795              1.396              0.846
 Vibration     9          0.870              1.218              0.623
 Vibration    10          0.932              1.085              0.494

 Optimization completed.
    -- Stationary point found.
 Normal termination of Gaussian 09 at Thu Sep  8 15:05:10 2022.
