 Gaussian 09, Revision E.01,
 Gaussian 09:  ES64L-G09RevE.01 30-Nov-2015

 ----------------------------
 #P OPT Freq B3LYP/6-31G(d,p)
 ----------------------------

 ---------
 Frag_1139
 ---------
 Symbolic Z-matrix:
 Charge =  0 Multiplicity = 1

 SCF Done:  E(RB3LYP) =  -395.919369181     A.U. after   12 cycles
 SCF Done:  E(RB3LYP) =  -395.919414602     A.U. after   10 cycles
 SCF Done:  E(RB3LYP) =  -395.919377462     A.U. after   10 cycles
 SCF Done:  E(RB3LYP) =  -395.919435694     A.U. after   10 cycles
 SCF Done:  E(RB3LYP) =  -395.919437088     A.U. after    6 cycles
 Optimization completed.
    -- Stationary point found.
 Normal termination of Gaussian 09 at Thu Sep  8 14:50:15 2022.

 ----------------------------------------------------------------------
 #P Geom=AllCheck Guess=TCheck SCRF=Check GenChk RB3LYP/6-31G(d,p) Freq
 ----------------------------------------------------------------------

 Structure from the checkpoint file:  "B3LYP6-31Gdp.Frag_1139.chk"
 ---------
 Frag_1139
 ---------
 Charge =  0 Multiplicity = 1

                         Standard orientation:
 ---------------------------------------------------------------------
 Center     Atomic      Atomic             Coordinates (Angstroms)
 Number     Number       Type             X           Y           Z
 ---------------------------------------------------------------------
      1          6           0       -1.396025    1.391561    0.016019
      2          6           0       -0.786837   -0.019878   -0.025343
      3          7           0       -1.224868   -0.859069    1.109300
      4          7           0       -1.289355   -0.684535   -1.228401
      5          6           0        0.795350    0.026787    0.020766
      6          7           0        1.414769   -1.290214   -0.163786
      7          7           0        1.269928    0.845620   -1.090768
      8          7           0        1.198164    0.594304    1.315207
      9          1           0       -2.486167    1.311712    0.053608
     10          1           0       -1.138287    1.965056   -0.880341
     11          1           0       -1.036063    1.941009    0.889560
     12          1           0       -1.317399   -0.280249    1.941404
     13          1           0       -2.165274   -1.184531    0.891586
     14          1           0       -0.936995   -1.640476   -1.245301
     15          1           0       -0.882882   -0.215092   -2.036051
     16          1           0        1.230391   -1.619771   -1.109692
     17          1           0        0.952995   -1.940133    0.471712
     18          1           0        1.155529    1.826171   -0.847963
     19          1           0        2.269127    0.680586   -1.197741
     20          1           0        0.883176   -0.032994    2.055174
     21          1           0        2.216460    0.555150    1.354533
 ---------------------------------------------------------------------

 SCF Done:  E(RB3LYP) =  -395.919437088     A.U. after    1 cycles

 The electronic state is 1-A.
 Alpha  occ. eigenvalues --  -14.31453 -14.31204 -14.30722 -14.30671 -14.30565
 Alpha  occ. eigenvalues --  -10.25697 -10.23597 -10.16413  -0.95295  -0.90184
 Alpha  occ. eigenvalues --   -0.84259  -0.83254  -0.82276  -0.71245  -0.62734
 Alpha  occ. eigenvalues --   -0.55174  -0.52131  -0.49427  -0.48894  -0.47552
 Alpha  occ. eigenvalues --   -0.45465  -0.43117  -0.40796  -0.40174  -0.39491
 Alpha  occ. eigenvalues --   -0.38134  -0.35940  -0.35601  -0.26120  -0.25762
 Alpha  occ. eigenvalues --   -0.24541  -0.23555  -0.22823
 Alpha virt. eigenvalues --    0.06154   0.10385   0.10712   0.12525   0.14115
 Alpha virt. eigenvalues --    0.14601   0.15611   0.16284   0.17395   0.18225
 Alpha virt. eigenvalues --    0.18833   0.19693   0.20505   0.24245   0.25681

 Mulliken charges:
               1
     1  C   -0.312958
     2  C    0.261699
     3  N   -0.623478
     4  N   -0.594010
     5  C    0.346663
     6  N   -0.598853
     7  N   -0.605257
     8  N   -0.589209
     9  H    0.102654
    10  H    0.100144
    11  H    0.114178
    12  H    0.241848
    13  H    0.249955
    14  H    0.221169
    15  H    0.251764
    16  H    0.227288
    17  H    0.247101
    18  H    0.249121
    19  H    0.242780
    20  H    0.234549
    21  H    0.232852
 Sum of Mulliken charges =  -0.00000

 Dipole moment (field-independent basis, Debye):
    X=              0.3629    Y=             -0.1002    Z=              0.5582  Tot=              0.6733
 Quadrupole moment (field-independent basis, Debye-Ang):
   XX=            -50.5539   YY=            -49.4084   ZZ=            -48.4994
   XY=              1.6258   XZ=             -3.0378   YZ=             -0.0542

  Exact polarizability:  69.603   1.016  66.489  -1.413   0.043  67.598
 Approx polarizability:  92.655   2.641  94.087  -1.898  -0.371  98.634

                      1                      2                      3
                      A                      A                      A
 Frequencies --    104.3720               247.3370               251.8115
 Red. masses --      3.5081                 1.1697                 2.1823
 Frc consts  --      0.0225                 0.0422                 0.0815
 IR Inten    --      0.7574                32.5755                11.2944

                      4                      5                      6
                      A                      A                      A
 Frequencies --    261.6352               282.1820               330.8704
 Red. masses --      1.3672                 1.8572                 1.5987
 Frc consts  --      0.0551                 0.0871                 0.1031
 IR Inten    --     14.1521                 7.6352                14.4506

                      7                      8                      9
                      A                      A                      A
 Frequencies --    345.9936               353.7746               364.8602
 Red. masses --      1.3735                 2.3444                 1.6302
 Frc consts  --      0.0969                 0.1729                 0.1279
 IR Inten    --     32.6128                 7.5055                 4.1277

                     10                     11                     12
                      A                      A                      A
 Frequencies --    382.2109               389.4369               419.4800
 Red. masses --      1.5096                 1.2683                 2.0244
 Frc consts  --      0.1299                 0.1133                 0.2099
 IR Inten    --     44.7344                 2.6103                 2.8903

                     13                     14                     15
                      A                      A                      A
 Frequencies --    455.3100               459.8013               535.9401
 Red. masses --      2.2939                 1.7198                 3.2913
 Frc consts  --      0.2802                 0.2142                 0.5570
 IR Inten    --     33.2473                33.4285                11.2660

                     16                     17                     18
                      A                      A                      A
 Frequencies --    553.9018               560.8750               694.2106
 Red. masses --      3.2752                 2.4326                 3.1610
 Frc consts  --      0.5921                 0.4509                 0.8975
 IR Inten    --      0.8119                26.2447                10.9855

                     19                     20                     21
                      A                      A                      A
 Frequencies --    855.8720               880.5324               912.7430
 Red. masses --      2.3101                 1.9813                 1.6929
 Frc consts  --      0.9970                 0.9051                 0.8310
 IR Inten    --    101.5613                32.2631               250.2756

                     22                     23                     24
                      A                      A                      A
 Frequencies --    932.7519               947.4108               970.8351
 Red. masses --      1.7719                 1.4819                 1.3994
 Frc consts  --      0.9083                 0.7837                 0.7771
 IR Inten    --     47.8247               177.3914               104.4276

                     25                     26                     27
                      A                      A                      A
 Frequencies --    987.8149              1013.6004              1036.1405
 Red. masses --      1.7260                 1.4035                 1.8176
 Frc consts  --      0.9923                 0.8496                 1.1497
 IR Inten    --     64.3514               121.0674                26.0024

                     28                     29                     30
                      A                      A                      A
 Frequencies --   1055.5201              1074.2976              1101.8546
 Red. masses --      1.5765                 1.4599                 1.5263
 Frc consts  --      1.0349                 0.9927                 1.0918
 IR Inten    --     18.2151                37.1969                13.0574

                     31                     32                     33
                      A                      A                      A
 Frequencies --   1217.3592              1289.7294              1306.4322
 Red. masses --      2.0808                 1.8586                 2.1051
 Frc consts  --      1.8168                 1.8215                 2.1169
 IR Inten    --     83.5995                28.2845                15.1028

                     34                     35                     36
                      A                      A                      A
 Frequencies --   1330.7689              1365.6757              1397.4006
 Red. masses --      2.0928                 1.7240                 1.9005
 Frc consts  --      2.1836                 1.8944                 2.1866
 IR Inten    --     12.5311                 5.8526                13.9352

                     37                     38                     39
                      A                      A                      A
 Frequencies --   1413.1866              1500.1374              1522.6384
 Red. masses --      1.4281                 1.0571                 1.0522
 Frc consts  --      1.6804                 1.4016                 1.4373
 IR Inten    --     16.3972                 0.3020                 4.6446

                     40                     41                     42
                      A                      A                      A
 Frequencies --   1640.4982              1656.2835              1660.9257
 Red. masses --      1.0964                 1.1076                 1.0963
 Frc consts  --      1.7386                 1.7902                 1.7819
 IR Inten    --     54.0847                51.9954                 5.0793

                     43                     44                     45
                      A                      A                      A
 Frequencies --   1669.7877              1680.7901              3050.5944
 Red. masses --      1.0961                 1.0937                 1.0353
 Frc consts  --      1.8006                 1.8205                 5.6765
 IR Inten    --     21.1153                27.9115                19.4322

                     46                     47                     48
                      A                      A                      A
 Frequencies --   3119.8063              3141.5307              3465.4996
 Red. masses --      1.1012                 1.1038                 1.0501
 Frc consts  --      6.3151                 6.4183                 7.4304
 IR Inten    --     26.7234                16.3704                 1.4075

                     49                     50                     51
                      A                      A                      A
 Frequencies --   3470.4743              3476.4944              3484.7512
 Red. masses --      1.0488                 1.0490                 1.0502
 Frc consts  --      7.4428                 7.4695                 7.5137
 IR Inten    --      3.7604                 2.4419                 1.1727

                     52                     53                     54
                      A                      A                      A
 Frequencies --   3492.9658              3542.0191              3561.6680
 Red. masses --      1.0505                 1.0903                 1.0921
 Frc consts  --      7.5515                 8.0595                 8.1623
 IR Inten    --      0.0419                 0.1318                 5.0613

                     55                     56                     57
                      A                      A                      A
 Frequencies --   3565.2210              3566.9712              3584.2071
 Red. masses --      1.0914                 1.0913                 1.0911
 Frc consts  --      8.1733                 8.1805                 8.2586
 IR Inten    --      2.9648                 0.6489                 2.1267

 - Thermochemistry -
 -------------------
 Temperature   298.150 Kelvin.  Pressure   1.00000 Atm.
 Atom     1 has atomic number  6 and mass  12.00000

 Molecular mass:   119.11710 amu.
 Principal axes and moments of inertia in atomic units:
                           1         2         3
     Eigenvalues --   728.096271021.987321026.93168
           X            0.99962  -0.01994  -0.01912
           Y            0.02232   0.99080   0.13349
           Z            0.01629  -0.13387   0.99087
 This molecule is an asymmetric top.
 Rotational symmetry number  1.
 Warning -- assumption of classical behavior for rotation
           may cause significant error
 Rotational temperatures (Kelvin)      0.11896     0.08475     0.08434
 Rotational constants (GHZ):           2.47871     1.76591     1.75741
 Zero-point vibrational energy     502055.9 (Joules/Mol)
                                  119.99424 (Kcal/Mol)
 Warning -- explicit consideration of  17 degrees of freedom as
           vibrations may cause significant error
 Vibrational temperatures:    150.17   355.86   362.30   376.43   406.00
          (Kelvin)            476.05   497.81   509.00   524.95   549.92
                              560.31   603.54   655.09   661.55   771.10
                              796.94   806.97   998.81  1231.41  1266.89
                             1313.23  1342.02  1363.11  1396.81  1421.24
                             1458.34  1490.77  1518.66  1545.67  1585.32
                             1751.51  1855.63  1879.66  1914.68  1964.90
                             2010.55  2033.26  2158.36  2190.73  2360.31
                             2383.02  2389.70  2402.45  2418.28  4389.12
                             4488.70  4519.96  4986.07  4993.23  5001.89
                             5013.77  5025.59  5096.17  5124.44  5129.55
                             5132.07  5156.87

 Zero-point correction=                           0.191223 (Hartree/Particle)
 Thermal correction to Energy=                    0.200845
 Thermal correction to Enthalpy=                  0.201789
 Thermal correction to Gibbs Free Energy=         0.158563
 Sum of electronic and zero-point Energies=           -395.728214
 Sum of electronic and thermal Energies=              -395.718592
 Sum of electronic and thermal Enthalpies=            -395.717648
 Sum of electronic and thermal Free Energies=         -395.760874

                     E (Thermal)             CV                S
                      KCal/Mol        Cal/Mol-Kelvin    Cal/Mol-Kelvin
 Total                  126.032             38.749             90.977
 Electronic               0.000              0.000              0.000
 Translational            0.889              2.981             40.240
 Rotational               0.889              2.981             28.126
 Vibrational            124.255             32.787             22.611
 Vibration     1          0.605              1.946              3.371
 Vibration     2          0.661              1.767              1.749
 Vibration     3          0.664              1.760              1.718
 Vibration     4          0.669              1.743              1.651
 Vibration     5          0.681              1.707              1.520
 Vibration     6          0.713              1.614              1.256
 Vibration     7          0.724              1.583              1.184
 Vibration     8          0.730              1.568              1.149
 Vibration     9          0.738              1.545              1.101
 Vibration    10          0.752              1.508              1.030
 Vibration    11          0.757              1.493              1.002
 Vibration    12          0.782              1.428              0.894
 Vibration    13          0.814              1.349              0.780
 Vibration    14          0.818              1.339              0.767
 Vibration    15          0.891              1.171              0.574
 Vibration    16          0.909              1.131              0.536
 Vibration    17          0.917              1.116              0.522

 Normal termination of Gaussian 09 at Thu Sep  8 14:50:39 2022.
