 Gaussian 09, Revision D.01,
 Gaussian 09:  ES64L-G09RevD.01 24-Apr-2013

 -------------------------
 #P OPT Freq B3LYP/6-31G**
 -------------------------

 ------
 Frag_5
 ------
 Symbolic Z-matrix:
 Charge =  0 Multiplicity = 1

 SCF Done:  E(RB3LYP) =  -210.158817773     A.U. after   15 cycles
 SCF Done:  E(RB3LYP) =  -210.158817782     A.U. after    8 cycles
 Optimization completed.
    -- Stationary point found.
 Normal termination of Gaussian 09 at Fri Jul 23 03:25:08 2021.

 ----------------------------------------------------------------------
 #P Geom=AllCheck Guess=TCheck SCRF=Check GenChk RB3LYP/6-31G(d,p) Freq
 ----------------------------------------------------------------------

 Structure from the checkpoint file:  "/vol2/users/liuj201281/HOFBenchmark/IsodesmicSplit/Sample60/Ring26/Running/Gau-195081.chk"
 ------
 Frag_5
 ------
 Charge =  0 Multiplicity = 1

                         Standard orientation:
 ---------------------------------------------------------------------
 Center     Atomic      Atomic             Coordinates (Angstroms)
 Number     Number       Type             X           Y           Z
 ---------------------------------------------------------------------
      1          6           0       -0.954978    1.340542   -0.000013
      2          6           0       -0.395295    0.122100    0.000069
      3          6           0       -1.170015   -1.174452   -0.000054
      4          6           0        1.039617    0.003649    0.000025
      5          7           0        2.195219   -0.131210    0.000046
      6          1           0       -2.034474    1.453026   -0.000261
      7          1           0       -0.356455    2.244488   -0.000055
      8          1           0       -0.922780   -1.776459   -0.880815
      9          1           0       -0.924354   -1.775614    0.881733
     10          1           0       -2.244447   -0.978000   -0.001089
 ---------------------------------------------------------------------

 SCF Done:  E(RB3LYP) =  -210.158817782     A.U. after    1 cycles

 The electronic state is 1-A.
 Alpha  occ. eigenvalues --  -14.33734 -10.24810 -10.22927 -10.21831 -10.20969
 Alpha  occ. eigenvalues --   -0.90595  -0.83128  -0.71779  -0.63876  -0.51155
 Alpha  occ. eigenvalues --   -0.46713  -0.44284  -0.41613  -0.39706  -0.36017
 Alpha  occ. eigenvalues --   -0.35820  -0.33099  -0.27720
 Alpha virt. eigenvalues --   -0.04550   0.03350   0.09186   0.09488   0.11696
 Alpha virt. eigenvalues --    0.14017   0.17571   0.18326   0.18845   0.28036
 Alpha virt. eigenvalues --    0.32461   0.36294   0.49030   0.49974   0.52375

 Mulliken charges:
               1
     1  C   -0.228626
     2  C    0.121763
     3  C   -0.353520
     4  C    0.278328
     5  N   -0.470100
     6  H    0.117381
     7  H    0.130544
     8  H    0.141202
     9  H    0.141214
    10  H    0.121814
 Sum of Mulliken charges =   0.00000

 Dipole moment (field-independent basis, Debye):
    X=             -3.8756    Y=              0.2384    Z=             -0.0002  Tot=              3.8830
 Quadrupole moment (field-independent basis, Debye-Ang):
   XX=            -35.8925   YY=            -26.4966   ZZ=            -30.3043
   XY=              0.5576   XZ=              0.0003   YZ=             -0.0003

  Exact polarizability:  59.566  -7.608  49.439   0.002  -0.002  24.629
 Approx polarizability:  99.143 -21.238  73.706   0.004  -0.003  34.527

                      1                      2                      3
                      A                      A                      A
 Frequencies --    175.5339               193.3484               290.1256
 Red. masses --      1.0422                 4.5273                 4.6307
 Frc consts  --      0.0189                 0.0997                 0.2297
 IR Inten    --      0.9312                 4.1336                 0.8245

                      4                      5                      6
                      A                      A                      A
 Frequencies --    387.6025               557.0066               593.2438
 Red. masses --      2.3960                 2.4367                 5.5059
 Frc consts  --      0.2121                 0.4454                 1.1417
 IR Inten    --      0.4925                 8.1280                 1.5223

                      7                      8                      9
                      A                      A                      A
 Frequencies --    756.3571               769.3267               958.1449
 Red. masses --      1.2790                 4.4792                 1.3366
 Frc consts  --      0.4311                 1.5620                 0.7229
 IR Inten    --      0.2856                 1.6845                35.5024

                     10                     11                     12
                      A                      A                      A
 Frequencies --    969.5108              1036.8086              1078.0638
 Red. masses --      1.7975                 1.3812                 1.4456
 Frc consts  --      0.9954                 0.8748                 0.9899
 IR Inten    --      0.5382                 4.9312                 0.9342

                     13                     14                     15
                      A                      A                      A
 Frequencies --   1292.5162              1425.4436              1451.5199
 Red. masses --      3.1594                 1.2171                 1.2290
 Frc consts  --      3.1097                 1.4570                 1.5256
 IR Inten    --      7.4594                 2.0992                 0.6678

                     16                     17                     18
                      A                      A                      A
 Frequencies --   1489.1739              1506.5837              1702.4138
 Red. masses --      1.0424                 1.0530                 4.8168
 Frc consts  --      1.3620                 1.4082                 8.2250
 IR Inten    --      7.3915                12.9850                 5.6954

                     19                     20                     21
                      A                      A                      A
 Frequencies --   2343.9057              3049.9613              3111.4286
 Red. masses --     12.6830                 1.0359                 1.1014
 Frc consts  --     41.0536                 5.6777                 6.2822
 IR Inten    --      9.3305                11.0245                10.4829

                     22                     23                     24
                      A                      A                      A
 Frequencies --   3144.1223              3171.7086              3266.2339
 Red. masses --      1.1030                 1.0605                 1.1178
 Frc consts  --      6.4246                 6.2856                 7.0262
 IR Inten    --     10.5354                 1.2166                 3.4419

 - Thermochemistry -
 -------------------
 Temperature   298.150 Kelvin.  Pressure   1.00000 Atm.
 Atom     1 has atomic number  6 and mass  12.00000

 Molecular mass:    67.04220 amu.
 Principal axes and moments of inertia in atomic units:
                           1         2         3
     Eigenvalues --   194.87838 434.90860 618.60637
           X            0.99965   0.02658  -0.00003
           Y           -0.02658   0.99965  -0.00001
           Z            0.00003   0.00001   1.00000
 This molecule is an asymmetric top.
 Rotational symmetry number  1.
 Rotational temperatures (Kelvin)      0.44445     0.19915     0.14001
 Rotational constants (GHZ):           9.26086     4.14970     2.91743
 Zero-point vibrational energy     207672.2 (Joules/Mol)
                                   49.63485 (Kcal/Mol)
 Warning -- explicit consideration of   6 degrees of freedom as
           vibrations may cause significant error
 Vibrational temperatures:    252.55   278.18   417.43   557.67   801.41
          (Kelvin)            853.54  1088.23  1106.89  1378.56  1394.91
                             1491.73  1551.09  1859.64  2050.89  2088.41
                             2142.59  2167.64  2449.39  3372.35  4388.21
                             4476.65  4523.69  4563.38  4699.38

 Zero-point correction=                           0.079098 (Hartree/Particle)
 Thermal correction to Energy=                    0.084565
 Thermal correction to Enthalpy=                  0.085509
 Thermal correction to Gibbs Free Energy=         0.050840
 Sum of electronic and zero-point Energies=           -210.079720
 Sum of electronic and thermal Energies=              -210.074253
 Sum of electronic and thermal Enthalpies=            -210.073308
 Sum of electronic and thermal Free Energies=         -210.107978

                     E (Thermal)             CV                S
                      KCal/Mol        Cal/Mol-Kelvin    Cal/Mol-Kelvin
 Total                   53.065             18.474             72.968
 Electronic               0.000              0.000              0.000
 Translational            0.889              2.981             38.526
 Rotational               0.889              2.981             25.464
 Vibrational             51.288             12.512              8.977
 Vibration     1          0.627              1.873              2.375
 Vibration     2          0.635              1.849              2.195
 Vibration     3          0.686              1.692              1.473
 Vibration     4          0.756              1.497              1.009
 Vibration     5          0.913              1.124              0.530
 Vibration     6          0.951              1.046              0.461

 Optimization completed.
    -- Stationary point found.
 Normal termination of Gaussian 09 at Fri Jul 23 03:25:17 2021.
