 Gaussian 09, Revision D.01,
 Gaussian 09:  ES64L-G09RevD.01 24-Apr-2013

 -------------------------
 #P OPT Freq B3LYP/6-31G**
 -------------------------

 -------
 Frag_74
 -------
 Symbolic Z-matrix:
 Charge =  0 Multiplicity = 1

 SCF Done:  E(RB3LYP) =  -264.474949601     A.U. after   14 cycles
 Optimization completed.
    -- Stationary point found.
 Normal termination of Gaussian 09 at Thu Jul 22 16:43:11 2021.

 ----------------------------------------------------------------------
 #P Geom=AllCheck Guess=TCheck SCRF=Check GenChk RB3LYP/6-31G(d,p) Freq
 ----------------------------------------------------------------------

 Structure from the checkpoint file:  "/vol2/users/liuj201281/HOFBenchmark/IsodesmicSplit/Sample60/Ring26/Running/Gau-368899.chk"
 -------
 Frag_74
 -------
 Charge =  0 Multiplicity = 1

                         Standard orientation:
 ---------------------------------------------------------------------
 Center     Atomic      Atomic             Coordinates (Angstroms)
 Number     Number       Type             X           Y           Z
 ---------------------------------------------------------------------
      1          6           0       -1.866102   -0.144929    0.000010
      2          7           0       -0.559299   -0.787323    0.000010
      3          7           0        0.384197    0.064782   -0.000090
      4          6           0        1.761200   -0.482612    0.000010
      5          8           0        0.276891    1.315581    0.000010
      6          1           0       -2.621598   -0.930732    0.000010
      7          1           0       -1.989905    0.499771   -0.879390
      8          1           0       -1.989905    0.499771    0.879510
      9          1           0        1.713605   -1.568912    0.000010
     10          1           0        2.263998   -0.100710   -0.889190
     11          1           0        2.263798   -0.100810    0.889410
 ---------------------------------------------------------------------

 SCF Done:  E(RB3LYP) =  -264.474949601     A.U. after    1 cycles

 The electronic state is 1-A.
 Alpha  occ. eigenvalues --  -19.14592 -14.51410 -14.36468 -10.23766 -10.20823
 Alpha  occ. eigenvalues --   -1.15147  -0.95303  -0.80947  -0.70915  -0.57593
 Alpha  occ. eigenvalues --   -0.51570  -0.50793  -0.49974  -0.43392  -0.43082
 Alpha  occ. eigenvalues --   -0.40269  -0.38397  -0.29926  -0.26397  -0.25507
 Alpha virt. eigenvalues --   -0.03570   0.10574   0.12642   0.12921   0.14774
 Alpha virt. eigenvalues --    0.15526   0.17409   0.18118   0.19751   0.27220
 Alpha virt. eigenvalues --    0.38547   0.48848   0.51672   0.53092   0.56150

 Mulliken charges:
               1
     1  C   -0.185299
     2  N   -0.259906
     3  N    0.229137
     4  C   -0.169388
     5  O   -0.459259
     6  H    0.118558
     7  H    0.133427
     8  H    0.133412
     9  H    0.150085
    10  H    0.154614
    11  H    0.154618
 Sum of Mulliken charges =   0.00000

 Dipole moment (field-independent basis, Debye):
    X=              0.9178    Y=             -1.2908    Z=              0.0000  Tot=              1.5838
 Quadrupole moment (field-independent basis, Debye-Ang):
   XX=            -23.4494   YY=            -35.1259   ZZ=            -29.2575
   XY=             -2.0113   XZ=              0.0001   YZ=             -0.0001

  Exact polarizability:  53.100   3.972  41.523  -0.001   0.000  28.293
 Approx polarizability:  68.691  17.302  82.981  -0.001   0.000  39.161

                      1                      2                      3
                      A                      A                      A
 Frequencies --    135.1718               196.0050               255.3910
 Red. masses --      1.1172                 1.0709                 2.4629
 Frc consts  --      0.0120                 0.0242                 0.0946
 IR Inten    --      1.7738                 0.4986                 7.1867

                      4                      5                      6
                      A                      A                      A
 Frequencies --    321.5659               462.8715               642.8485
 Red. masses --      3.0648                 3.3726                 4.1124
 Frc consts  --      0.1867                 0.4257                 1.0013
 IR Inten    --     16.3479                 5.5681                 5.3357

                      7                      8                      9
                      A                      A                      A
 Frequencies --    656.6982               934.6993              1030.4624
 Red. masses --      4.1575                 3.1018                 3.1693
 Frc consts  --      1.0564                 1.5966                 1.9828
 IR Inten    --     14.1154                 4.9297                11.0101

                     10                     11                     12
                      A                      A                      A
 Frequencies --   1093.4663              1131.8732              1152.1409
 Red. masses --      1.3945                 1.8529                 1.4200
 Frc consts  --      0.9824                 1.3986                 1.1106
 IR Inten    --      1.4972                 4.1799                 0.2215

                     13                     14                     15
                      A                      A                      A
 Frequencies --   1194.6615              1392.6165              1429.4106
 Red. masses --      1.8501                 6.4849                 1.2695
 Frc consts  --      1.5558                 7.4100                 1.5283
 IR Inten    --      2.2186                40.1059                12.1395

                     16                     17                     18
                      A                      A                      A
 Frequencies --   1433.4741              1477.6124              1489.0198
 Red. masses --      1.2528                 1.1060                 1.0469
 Frc consts  --      1.5168                 1.4227                 1.3676
 IR Inten    --     23.9675                12.0743                 0.3853

                     19                     20                     21
                      A                      A                      A
 Frequencies --   1489.5343              1490.0773              1619.3831
 Red. masses --      1.0429                 1.0656                 5.0940
 Frc consts  --      1.3632                 1.3940                 7.8706
 IR Inten    --     16.9354                19.7662               142.4453

                     22                     23                     24
                      A                      A                      A
 Frequencies --   3027.1993              3080.8936              3089.2961
 Red. masses --      1.0361                 1.1010                 1.0303
 Frc consts  --      5.5940                 6.1573                 5.7937
 IR Inten    --     16.2029                17.9511                 7.5525

                     25                     26                     27
                      A                      A                      A
 Frequencies --   3160.1496              3175.9996              3211.4866
 Red. masses --      1.1015                 1.1057                 1.1086
 Frc consts  --      6.4813                 6.5710                 6.7366
 IR Inten    --     19.4662                 4.0389                 2.0710

 - Thermochemistry -
 -------------------
 Temperature   298.150 Kelvin.  Pressure   1.00000 Atm.
 Atom     1 has atomic number  6 and mass  12.00000

 Molecular mass:    74.04801 amu.
 Principal axes and moments of inertia in atomic units:
                           1         2         3
     Eigenvalues --   165.56481 421.85711 564.90240
           X            0.99931  -0.03715   0.00000
           Y            0.03715   0.99931   0.00000
           Z            0.00000   0.00000   1.00000
 This molecule is an asymmetric top.
 Rotational symmetry number  1.
 Rotational temperatures (Kelvin)      0.52314     0.20532     0.15333
 Rotational constants (GHZ):          10.90051     4.27809     3.19478
 Zero-point vibrational energy     237901.4 (Joules/Mol)
                                   56.85980 (Kcal/Mol)
 Warning -- explicit consideration of   5 degrees of freedom as
           vibrations may cause significant error
 Vibrational temperatures:    194.48   282.01   367.45   462.66   665.97
          (Kelvin)            924.91   944.84  1344.82  1482.60  1573.25
                             1628.51  1657.67  1718.85  2003.66  2056.60
                             2062.45  2125.95  2142.36  2143.10  2143.89
                             2329.93  4355.46  4432.71  4444.80  4546.74
                             4569.55  4620.61

 Zero-point correction=                           0.090612 (Hartree/Particle)
 Thermal correction to Energy=                    0.096286
 Thermal correction to Enthalpy=                  0.097230
 Thermal correction to Gibbs Free Energy=         0.062039
 Sum of electronic and zero-point Energies=           -264.384338
 Sum of electronic and thermal Energies=              -264.378664
 Sum of electronic and thermal Enthalpies=            -264.377720
 Sum of electronic and thermal Free Energies=         -264.412910

                     E (Thermal)             CV                S
                      KCal/Mol        Cal/Mol-Kelvin    Cal/Mol-Kelvin
 Total                   60.420             18.748             74.065
 Electronic               0.000              0.000              0.000
 Translational            0.889              2.981             38.822
 Rotational               0.889              2.981             25.182
 Vibrational             58.643             12.787             10.060
 Vibration     1          0.613              1.918              2.871
 Vibration     2          0.636              1.845              2.170
 Vibration     3          0.666              1.754              1.693
 Vibration     4          0.707              1.632              1.302
 Vibration     5          0.821              1.332              0.758

 Optimization completed.
    -- Stationary point found.
 Normal termination of Gaussian 09 at Thu Jul 22 16:44:00 2021.
