 Gaussian 09, Revision E.01,
 Gaussian 09:  ES64L-G09RevE.01 30-Nov-2015

 -------------------------
 #P OPT Freq B3LYP/6-31G**
 -------------------------

 --------
 Frag_255
 --------
 Symbolic Z-matrix:
 Charge =  0 Multiplicity = 1

 SCF Done:  E(RB3LYP) =  -246.028163613     A.U. after   15 cycles
 SCF Done:  E(RB3LYP) =  -246.037457186     A.U. after   12 cycles
 SCF Done:  E(RB3LYP) =  -246.039232166     A.U. after   12 cycles
 SCF Done:  E(RB3LYP) =  -246.039588281     A.U. after   12 cycles
 SCF Done:  E(RB3LYP) =  -246.039629844     A.U. after    9 cycles
 SCF Done:  E(RB3LYP) =  -246.039549781     A.U. after   11 cycles
 SCF Done:  E(RB3LYP) =  -246.039638969     A.U. after   10 cycles
 SCF Done:  E(RB3LYP) =  -246.039639648     A.U. after    8 cycles
 Optimization completed.
    -- Stationary point found.
 Normal termination of Gaussian 09 at Sat Aug 21 01:38:54 2021.

 ----------------------------------------------------------------------
 #P Geom=AllCheck Guess=TCheck SCRF=Check GenChk RB3LYP/6-31G(d,p) Freq
 ----------------------------------------------------------------------

 Structure from the checkpoint file:  "/public/home/users/caep010/.cache/gau_scr/Gau-174769.chk"
 --------
 Frag_255
 --------
 Charge =  0 Multiplicity = 1

                         Standard orientation:
 ---------------------------------------------------------------------
 Center     Atomic      Atomic             Coordinates (Angstroms)
 Number     Number       Type             X           Y           Z
 ---------------------------------------------------------------------
      1          6           0        0.155613    1.176273   -0.000144
      2          6           0       -1.057450    0.431238    0.000175
      3          7           0       -0.851380   -0.864938   -0.000134
      4          8           0        0.539567   -1.012337    0.000001
      5          6           0        1.108880    0.206657    0.000099
      6          1           0        0.287637    2.246692   -0.000263
      7          1           0       -2.075728    0.798293    0.000244
      8          1           0        2.188958    0.223269    0.000167
 ---------------------------------------------------------------------

 SCF Done:  E(RB3LYP) =  -246.039639648     A.U. after    1 cycles

 The electronic state is 1-A.
 Alpha  occ. eigenvalues --  -19.24024 -14.38392 -10.26123 -10.22989 -10.20498
 Alpha  occ. eigenvalues --   -1.14369  -0.86972  -0.79636  -0.62629  -0.59783
 Alpha  occ. eigenvalues --   -0.54489  -0.46789  -0.45788  -0.42177  -0.39105
 Alpha  occ. eigenvalues --   -0.30931  -0.30367  -0.26881
 Alpha virt. eigenvalues --   -0.01586   0.05576   0.09887   0.11074   0.14741
 Alpha virt. eigenvalues --    0.16362   0.19034   0.26413   0.38064   0.38563
 Alpha virt. eigenvalues --    0.51905   0.52243   0.54176   0.56758   0.57423

 Mulliken charges:
               1
     1  C   -0.190945
     2  C    0.109665
     3  N   -0.166059
     4  O   -0.322157
     5  C    0.199603
     6  H    0.110511
     7  H    0.125146
     8  H    0.134236
 Sum of Mulliken charges =  -0.00000

 Dipole moment (field-independent basis, Debye):
    X=              1.0053    Y=              2.7902    Z=              0.0004  Tot=              2.9658
 Quadrupole moment (field-independent basis, Debye-Ang):
   XX=            -23.9303   YY=            -28.9683   ZZ=            -29.4567
   XY=             -1.6658   XZ=             -0.0003   YZ=             -0.0004

  Exact polarizability:  45.461  -0.761  40.062   0.000  -0.001  16.594
 Approx polarizability:  75.502  -3.150  73.217   0.002   0.001  24.732

                      1                      2                      3
                      A                      A                      A
 Frequencies --    606.6031               645.7602               786.2364
 Red. masses --      3.3012                 5.4869                 1.2216
 Frc consts  --      0.7157                 1.3481                 0.4449
 IR Inten    --     12.5148                 2.7405                45.4031

                      4                      5                      6
                      A                      A                      A
 Frequencies --    869.1018               887.4958               908.4410
 Red. masses --      1.3127                 5.8012                 1.3201
 Frc consts  --      0.5842                 2.6922                 0.6419
 IR Inten    --      0.0106                25.5876                 4.2196

                      7                      8                      9
                      A                      A                      A
 Frequencies --    919.3075               932.4487              1051.7905
 Red. masses --      4.9350                 6.3513                 1.5016
 Frc consts  --      2.4573                 3.2536                 0.9788
 IR Inten    --      1.1950                10.3014                 5.2612

                     10                     11                     12
                      A                      A                      A
 Frequencies --   1132.0959              1161.4895              1255.5938
 Red. masses --      2.7320                 1.5809                 1.7513
 Frc consts  --      2.0630                 1.2565                 1.6267
 IR Inten    --      7.9628                19.0152                 6.2268

                     13                     14                     15
                      A                      A                      A
 Frequencies --   1412.2509              1477.2426              1615.3834
 Red. masses --      2.5231                 5.8303                 4.7243
 Frc consts  --      2.9649                 7.4962                 7.2634
 IR Inten    --      5.6750                31.0191                 8.5780

                     16                     17                     18
                      A                      A                      A
 Frequencies --   3254.3775              3277.2836              3300.8739
 Red. masses --      1.0949                 1.0920                 1.1087
 Frc consts  --      6.8322                 6.9106                 7.1173
 IR Inten    --      1.9885                 0.0127                 0.0892

 - Thermochemistry -
 -------------------
 Temperature   298.150 Kelvin.  Pressure   1.00000 Atm.
 Atom     1 has atomic number  6 and mass  12.00000

 Molecular mass:    69.02146 amu.
 Principal axes and moments of inertia in atomic units:
                           1         2         3
     Eigenvalues --   184.17777 188.52173 372.69949
           X            0.88303  -0.46932  -0.00000
           Y            0.46932   0.88303  -0.00001
           Z            0.00001   0.00000   1.00000
 This molecule is an asymmetric top.
 Rotational symmetry number  1.
 Rotational temperatures (Kelvin)      0.47027     0.45944     0.23240
 Rotational constants (GHZ):           9.79891     9.57312     4.84235
 Zero-point vibrational energy     152486.6 (Joules/Mol)
                                   36.44518 (Kcal/Mol)
 Warning -- explicit consideration of   1 degrees of freedom as
           vibrations may cause significant error
 Vibrational temperatures:    872.77   929.10  1131.22  1250.44  1276.91
          (Kelvin)           1307.04  1322.68  1341.58  1513.29  1628.83
                             1671.12  1806.52  2031.91  2125.42  2324.17
                             4682.32  4715.27  4749.22

 Zero-point correction=                           0.058079 (Hartree/Particle)
 Thermal correction to Energy=                    0.061655
 Thermal correction to Enthalpy=                  0.062599
 Thermal correction to Gibbs Free Energy=         0.031876
 Sum of electronic and zero-point Energies=           -245.981561
 Sum of electronic and thermal Energies=              -245.977985
 Sum of electronic and thermal Enthalpies=            -245.977040
 Sum of electronic and thermal Free Energies=         -246.007764

                     E (Thermal)             CV                S
                      KCal/Mol        Cal/Mol-Kelvin    Cal/Mol-Kelvin
 Total                   38.689             12.283             64.662
 Electronic               0.000              0.000              0.000
 Translational            0.889              2.981             38.613
 Rotational               0.889              2.981             24.074
 Vibrational             36.912              6.322              1.975
 Vibration     1          0.965              1.018              0.438

 Optimization completed.
    -- Stationary point found.
 Normal termination of Gaussian 09 at Sat Aug 21 01:39:00 2021.
