 Gaussian 09, Revision D.01,
 Gaussian 09:  ES64L-G09RevD.01 24-Apr-2013

 -------------------------
 #P OPT Freq B3LYP/6-31G**
 -------------------------

 -------
 Frag_47
 -------
 Symbolic Z-matrix:
 Charge =  0 Multiplicity = 1

 SCF Done:  E(RB3LYP) =  -300.370967532     A.U. after   15 cycles
 Optimization completed.
    -- Stationary point found.
 Normal termination of Gaussian 09 at Fri Jul 23 05:04:51 2021.

 ----------------------------------------------------------------------
 #P Geom=AllCheck Guess=TCheck SCRF=Check GenChk RB3LYP/6-31G(d,p) Freq
 ----------------------------------------------------------------------

 Structure from the checkpoint file:  "/vol2/users/liuj201281/HOFBenchmark/IsodesmicSplit/Sample60/Ring26/Running/Gau-2934.chk"
 -------
 Frag_47
 -------
 Charge =  0 Multiplicity = 1

                         Standard orientation:
 ---------------------------------------------------------------------
 Center     Atomic      Atomic             Coordinates (Angstroms)
 Number     Number       Type             X           Y           Z
 ---------------------------------------------------------------------
      1          7           0        1.871330    0.028437   -0.000078
      2          6           0        0.696241   -0.749480    0.000122
      3          7           0       -0.640571    0.058101    0.000022
      4          8           0       -1.669361   -0.606314   -0.000078
      5          8           0       -0.565689    1.281502    0.000022
      6          1           0        1.932221    0.622938    0.819923
      7          1           0        1.932321    0.622438   -0.820378
      8          1           0        0.611550   -1.378081   -0.888178
      9          1           0        0.611550   -1.377681    0.888723
 ---------------------------------------------------------------------

 SCF Done:  E(RB3LYP) =  -300.370967532     A.U. after    1 cycles

 The electronic state is 1-A.
 Alpha  occ. eigenvalues --  -19.18825 -19.18452 -14.56280 -14.35404 -10.27951
 Alpha  occ. eigenvalues --   -1.22402  -1.05663  -0.93172  -0.75920  -0.61869
 Alpha  occ. eigenvalues --   -0.56094  -0.54626  -0.51383  -0.50797  -0.46654
 Alpha  occ. eigenvalues --   -0.40996  -0.32781  -0.31406  -0.29941  -0.26944
 Alpha virt. eigenvalues --   -0.06318   0.06482   0.11116   0.11516   0.12496
 Alpha virt. eigenvalues --    0.16898   0.22403   0.27352   0.37912   0.48793
 Alpha virt. eigenvalues --    0.50819   0.53824   0.61152   0.66220   0.67011

 Mulliken charges:
               1
     1  N   -0.557440
     2  C    0.016931
     3  N    0.428850
     4  O   -0.369325
     5  O   -0.380192
     6  H    0.266180
     7  H    0.266181
     8  H    0.164407
     9  H    0.164408
 Sum of Mulliken charges =   0.00000

 Dipole moment (field-independent basis, Debye):
    X=              2.5756    Y=             -0.5689    Z=             -0.0001  Tot=              2.6376
 Quadrupole moment (field-independent basis, Debye-Ang):
   XX=            -34.2921   YY=            -29.8343   ZZ=            -25.2909
   XY=              2.0300   XZ=             -0.0013   YZ=              0.0001

  Exact polarizability:  36.645   5.010  35.839   0.000   0.001  23.525
 Approx polarizability:  54.347  17.098  67.525   0.001   0.002  33.152

                      1                      2                      3
                      A                      A                      A
 Frequencies --     58.7300               287.4306               320.5094
 Red. masses --      2.1507                 4.5026                 1.2266
 Frc consts  --      0.0044                 0.2192                 0.0742
 IR Inten    --      0.5596                17.4126                65.5486

                      4                      5                      6
                      A                      A                      A
 Frequencies --    476.9629               577.4167               648.6834
 Red. masses --      6.3659                 2.7755                 3.9310
 Frc consts  --      0.8533                 0.5452                 0.9746
 IR Inten    --     31.1342                 0.0030                12.7785

                      7                      8                      9
                      A                      A                      A
 Frequencies --    816.5992               860.0378               930.1931
 Red. masses --      1.7039                13.1445                 1.3588
 Frc consts  --      0.6694                 5.7284                 0.6927
 IR Inten    --    312.7717                13.3144                 0.4884

                     10                     11                     12
                      A                      A                      A
 Frequencies --   1216.8909              1218.3831              1340.8471
 Red. masses --      3.1329                 1.2416                 1.2767
 Frc consts  --      2.7334                 1.0859                 1.3524
 IR Inten    --     22.6008                 0.1308                30.5395

                     13                     14                     15
                      A                      A                      A
 Frequencies --   1382.0660              1429.8480              1489.0988
 Red. masses --      1.2302                 6.8939                 1.1907
 Frc consts  --      1.3844                 8.3042                 1.5557
 IR Inten    --      0.0404                92.9976                 0.9141

                     16                     17                     18
                      A                      A                      A
 Frequencies --   1682.2613              1692.2196              3105.2156
 Red. masses --     11.0076                 1.1099                 1.0589
 Frc consts  --     18.3540                 1.8726                 6.0158
 IR Inten    --    227.2058                49.2714                 9.1923

                     19                     20                     21
                      A                      A                      A
 Frequencies --   3166.4594              3538.0799              3623.2605
 Red. masses --      1.1109                 1.0492                 1.0944
 Frc consts  --      6.5627                 7.7382                 8.4651
 IR Inten    --      3.8876                 7.5126                11.0159

 - Thermochemistry -
 -------------------
 Temperature   298.150 Kelvin.  Pressure   1.00000 Atm.
 Atom     1 has atomic number  7 and mass  14.00307

 Molecular mass:    76.02728 amu.
 Principal axes and moments of inertia in atomic units:
                           1         2         3
     Eigenvalues --   165.93862 432.78052 577.67229
           X            0.99997   0.00827   0.00000
           Y           -0.00827   0.99997   0.00000
           Z            0.00000   0.00000   1.00000
 This molecule is an asymmetric top.
 Rotational symmetry number  1.
 Rotational temperatures (Kelvin)      0.52196     0.20013     0.14994
 Rotational constants (GHZ):          10.87596     4.17011     3.12416
 Zero-point vibrational energy     178609.6 (Joules/Mol)
                                   42.68872 (Kcal/Mol)
 Warning -- explicit consideration of   5 degrees of freedom as
           vibrations may cause significant error
 Vibrational temperatures:     84.50   413.55   461.14   686.24   830.77
          (Kelvin)            933.31  1174.90  1237.40  1338.34  1750.83
                             1752.98  1929.18  1988.48  2057.23  2142.48
                             2420.40  2434.72  4467.71  4555.82  5090.50
                             5213.06

 Zero-point correction=                           0.068029 (Hartree/Particle)
 Thermal correction to Energy=                    0.073308
 Thermal correction to Enthalpy=                  0.074253
 Thermal correction to Gibbs Free Energy=         0.039259
 Sum of electronic and zero-point Energies=           -300.302939
 Sum of electronic and thermal Energies=              -300.297659
 Sum of electronic and thermal Enthalpies=            -300.296715
 Sum of electronic and thermal Free Energies=         -300.331708

                     E (Thermal)             CV                S
                      KCal/Mol        Cal/Mol-Kelvin    Cal/Mol-Kelvin
 Total                   46.002             17.099             73.650
 Electronic               0.000              0.000              0.000
 Translational            0.889              2.981             38.901
 Rotational               0.889              2.981             25.232
 Vibrational             44.224             11.137              9.517
 Vibration     1          0.596              1.974              4.499
 Vibration     2          0.685              1.697              1.489
 Vibration     3          0.706              1.634              1.308
 Vibration     4          0.834              1.301              0.718
 Vibration     5          0.934              1.080              0.490

 Optimization completed.
    -- Stationary point found.
 Normal termination of Gaussian 09 at Fri Jul 23 05:05:03 2021.
