 Gaussian 09, Revision E.01,
 Gaussian 09:  ES64L-G09RevE.01 30-Nov-2015

 ----------------------------
 #P OPT Freq B3LYP/6-31G(d,p)
 ----------------------------

 --------
 Frag_463
 --------
 Symbolic Z-matrix:
 Charge =  0 Multiplicity = 1

 SCF Done:  E(RB3LYP) =  -267.885398500     A.U. after   15 cycles
 SCF Done:  E(RB3LYP) =  -267.885461549     A.U. after    9 cycles
 SCF Done:  E(RB3LYP) =  -267.885464370     A.U. after    8 cycles
 SCF Done:  E(RB3LYP) =  -267.885464980     A.U. after    8 cycles
 Optimization completed.
    -- Stationary point found.
 Normal termination of Gaussian 09 at Thu Sep  8 15:11:26 2022.

 ----------------------------------------------------------------------
 #P Geom=AllCheck Guess=TCheck SCRF=Check GenChk RB3LYP/6-31G(d,p) Freq
 ----------------------------------------------------------------------

 Structure from the checkpoint file:  "B3LYP6-31Gdp.Frag_463.chk"
 --------
 Frag_463
 --------
 Charge =  0 Multiplicity = 1

                         Standard orientation:
 ---------------------------------------------------------------------
 Center     Atomic      Atomic             Coordinates (Angstroms)
 Number     Number       Type             X           Y           Z
 ---------------------------------------------------------------------
      1          6           0        1.255126    1.436190   -0.000057
      2          6           0        0.659008    0.054069    0.000014
      3          6           0        1.504383   -1.177055    0.000072
      4          7           0       -0.651027   -0.161391   -0.000031
      5          6           0       -1.606502    0.964508    0.000069
      6          7           0       -1.145162   -1.400233   -0.000102
      7          1           0        2.343419    1.347407   -0.000202
      8          1           0        0.990210    2.032849    0.884204
      9          1           0        0.989980    2.032853   -0.884242
     10          1           0        1.272999   -1.806786   -0.870274
     11          1           0        2.567948   -0.928971    0.000415
     12          1           0        1.272440   -1.807017    0.870095
     13          1           0       -1.107255    1.930079   -0.000234
     14          1           0       -2.232842    0.877573    0.891043
     15          1           0       -2.233333    0.877274   -0.890527
     16          1           0       -2.162329   -1.290167    0.000070
 ---------------------------------------------------------------------

 SCF Done:  E(RB3LYP) =  -267.885464980     A.U. after    1 cycles

 The electronic state is 1-A.
 Alpha  occ. eigenvalues --  -14.42835 -14.28560 -10.23274 -10.20851 -10.19321
 Alpha  occ. eigenvalues --  -10.16764  -1.01164  -0.80211  -0.76055  -0.70078
 Alpha  occ. eigenvalues --   -0.67821  -0.53051  -0.50276  -0.47722  -0.47659
 Alpha  occ. eigenvalues --   -0.42133  -0.42125  -0.39430  -0.38655  -0.37758
 Alpha  occ. eigenvalues --   -0.35637  -0.33598  -0.24885  -0.16042
 Alpha virt. eigenvalues --    0.00466   0.08186   0.11372   0.11951   0.14124
 Alpha virt. eigenvalues --    0.15285   0.15895   0.15960   0.17432   0.19582
 Alpha virt. eigenvalues --    0.19979   0.20637   0.24554   0.27459   0.34436

 Mulliken charges:
               1
     1  C   -0.373583
     2  C    0.239439
     3  C   -0.339016
     4  N   -0.186521
     5  C   -0.201868
     6  N   -0.469074
     7  H    0.120164
     8  H    0.117923
     9  H    0.117924
    10  H    0.134583
    11  H    0.085890
    12  H    0.134601
    13  H    0.129951
    14  H    0.143405
    15  H    0.143393
    16  H    0.202789
 Sum of Mulliken charges =  -0.00000

 Dipole moment (field-independent basis, Debye):
    X=             -0.4541    Y=              3.4264    Z=              0.0004  Tot=              3.4564
 Quadrupole moment (field-independent basis, Debye-Ang):
   XX=            -32.9467   YY=            -41.5463   ZZ=            -39.0433
   XY=             -2.7013   XZ=             -0.0009   YZ=             -0.0007

  Exact polarizability:  81.863   7.991  65.690   0.000   0.001  40.224
 Approx polarizability: 133.445  32.503 103.193   0.002   0.004  57.564

                      1                      2                      3
                      A                      A                      A
 Frequencies --     79.9764               103.3241               116.7956
 Red. masses --      1.1676                 1.0951                 1.5701
 Frc consts  --      0.0044                 0.0069                 0.0126
 IR Inten    --      0.8051                 0.5841                 5.7047

                      4                      5                      6
                      A                      A                      A
 Frequencies --    205.3520               282.5571               312.4378
 Red. masses --      1.3003                 2.5452                 2.9374
 Frc consts  --      0.0323                 0.1197                 0.1689
 IR Inten    --      0.2995                 1.7437                 5.4160

                      7                      8                      9
                      A                      A                      A
 Frequencies --    402.6154               459.1668               493.0898
 Red. masses --      2.4775                 1.4667                 2.7441
 Frc consts  --      0.2366                 0.1822                 0.3931
 IR Inten    --      0.3508                52.3091                 1.2561

                     10                     11                     12
                      A                      A                      A
 Frequencies --    569.4944               622.5238               738.9633
 Red. masses --      4.0583                 2.0566                 3.8128
 Frc consts  --      0.7755                 0.4696                 1.2267
 IR Inten    --     16.1482                 7.6340                 1.2713

                     13                     14                     15
                      A                      A                      A
 Frequencies --    928.5208               999.9526              1003.6513
 Red. masses --      2.3317                 1.2431                 1.3514
 Frc consts  --      1.1844                 0.7323                 0.8020
 IR Inten    --     33.5657                 0.0094                 8.8007

                     16                     17                     18
                      A                      A                      A
 Frequencies --   1076.2850              1076.6495              1143.5043
 Red. masses --      1.4818                 1.5015                 1.3771
 Frc consts  --      1.0113                 1.0255                 1.0609
 IR Inten    --      0.4692                 7.8175                 0.0014

                     19                     20                     21
                      A                      A                      A
 Frequencies --   1156.9977              1257.4450              1346.2768
 Red. masses --      1.9929                 4.3732                 2.9213
 Frc consts  --      1.5718                 4.0740                 3.1195
 IR Inten    --     11.5641               116.8407                24.8147

                     22                     23                     24
                      A                      A                      A
 Frequencies --   1410.1306              1429.1949              1439.5548
 Red. masses --      1.4761                 1.4422                 1.2698
 Frc consts  --      1.7293                 1.7357                 1.5505
 IR Inten    --     85.9505                12.1726                 2.8329

                     25                     26                     27
                      A                      A                      A
 Frequencies --   1449.5028              1466.3358              1490.9776
 Red. masses --      1.1666                 1.0434                 1.0429
 Frc consts  --      1.4441                 1.3219                 1.3659
 IR Inten    --      4.2080                 3.5260                13.8200

                     28                     29                     30
                      A                      A                      A
 Frequencies --   1499.0869              1500.1095              1512.9733
 Red. masses --      1.1408                 1.0691                 1.0434
 Frc consts  --      1.5105                 1.4175                 1.4072
 IR Inten    --     14.9475                 1.4085                 0.1917

                     31                     32                     33
                      A                      A                      A
 Frequencies --   1520.1658              1681.0464              3002.6699
 Red. masses --      1.0546                 3.3228                 1.0428
 Frc consts  --      1.4359                 5.5323                 5.5395
 IR Inten    --      7.9716                30.5738                57.5606

                     34                     35                     36
                      A                      A                      A
 Frequencies --   3016.3478              3041.6525              3052.1146
 Red. masses --      1.0391                 1.1017                 1.0979
 Frc consts  --      5.5701                 6.0052                 6.0260
 IR Inten    --     23.0858                34.7178                14.8868

                     37                     38                     39
                      A                      A                      A
 Frequencies --   3072.5807              3128.6778              3138.1885
 Red. masses --      1.0351                 1.0965                 1.0967
 Frc consts  --      5.7577                 6.3238                 6.3632
 IR Inten    --     22.5960                 1.9859                33.6907

                     40                     41                     42
                      A                      A                      A
 Frequencies --   3143.5390              3197.4696              3438.0196
 Red. masses --      1.1053                 1.1012                 1.0750
 Frc consts  --      6.4354                 6.6334                 7.4867
 IR Inten    --      9.8955                10.1490                 5.2036

 - Thermochemistry -
 -------------------
 Temperature   298.150 Kelvin.  Pressure   1.00000 Atm.
 Atom     1 has atomic number  6 and mass  12.00000

 Molecular mass:    86.08440 amu.
 Principal axes and moments of inertia in atomic units:
                           1         2         3
     Eigenvalues --   390.37520 517.38946 874.18491
           X            0.99645  -0.08424  -0.00000
           Y            0.08424   0.99645  -0.00000
           Z            0.00000   0.00000   1.00000
 This molecule is an asymmetric top.
 Rotational symmetry number  1.
 Rotational temperatures (Kelvin)      0.22187     0.16741     0.09908
 Rotational constants (GHZ):           4.62309     3.48817     2.06448
 Zero-point vibrational energy     370877.7 (Joules/Mol)
                                   88.64191 (Kcal/Mol)
 Warning -- explicit consideration of  10 degrees of freedom as
           vibrations may cause significant error
 Vibrational temperatures:    115.07   148.66   168.04   295.46   406.54
          (Kelvin)            449.53   579.27   660.64   709.45   819.37
                              895.67  1063.20  1335.93  1438.71  1444.03
                             1548.53  1549.06  1645.25  1664.66  1809.18
                             1936.99  2028.86  2056.29  2071.20  2085.51
                             2109.73  2145.18  2156.85  2158.32  2176.83
                             2187.18  2418.65  4320.17  4339.85  4376.25
                             4391.31  4420.75  4501.46  4515.15  4522.85
                             4600.44  4946.54

 Zero-point correction=                           0.141260 (Hartree/Particle)
 Thermal correction to Energy=                    0.149211
 Thermal correction to Enthalpy=                  0.150155
 Thermal correction to Gibbs Free Energy=         0.109459
 Sum of electronic and zero-point Energies=           -267.744205
 Sum of electronic and thermal Energies=              -267.736254
 Sum of electronic and thermal Enthalpies=            -267.735310
 Sum of electronic and thermal Free Energies=         -267.776006

                     E (Thermal)             CV                S
                      KCal/Mol        Cal/Mol-Kelvin    Cal/Mol-Kelvin
 Total                   93.631             27.367             85.651
 Electronic               0.000              0.000              0.000
 Translational            0.889              2.981             39.271
 Rotational               0.889              2.981             26.671
 Vibrational             91.854             21.406             19.709
 Vibration     1          0.600              1.963              3.891
 Vibration     2          0.605              1.947              3.391
 Vibration     3          0.608              1.935              3.153
 Vibration     4          0.640              1.832              2.085
 Vibration     5          0.682              1.706              1.518
 Vibration     6          0.701              1.650              1.349
 Vibration     7          0.768              1.464              0.953
 Vibration     8          0.817              1.341              0.769
 Vibration     9          0.849              1.265              0.676
 Vibration    10          0.926              1.097              0.505

 Optimization completed.
    -- Stationary point found.
 Normal termination of Gaussian 09 at Thu Sep  8 15:11:38 2022.
