 Gaussian 09, Revision E.01,
 Gaussian 09:  ES64L-G09RevE.01 30-Nov-2015

 ----------------------------
 #P OPT Freq B3LYP/6-31G(d,p)
 ----------------------------

 --------
 Frag_880
 --------
 Symbolic Z-matrix:
 Charge =  0 Multiplicity = 1

 SCF Done:  E(RB3LYP) =  -155.984684366     A.U. after   13 cycles
 SCF Done:  E(RB3LYP) =  -155.984757599     A.U. after    9 cycles
 SCF Done:  E(RB3LYP) =  -155.984703522     A.U. after    9 cycles
 SCF Done:  E(RB3LYP) =  -155.984757690     A.U. after    9 cycles
 SCF Done:  E(RB3LYP) =  -155.984758771     A.U. after    8 cycles
 SCF Done:  E(RB3LYP) =  -155.984757068     A.U. after    9 cycles
 SCF Done:  E(RB3LYP) =  -155.984759401     A.U. after    8 cycles
 Optimization completed.
    -- Stationary point found.
 Normal termination of Gaussian 09 at Thu Sep  8 15:03:02 2022.

 ----------------------------------------------------------------------
 #P Geom=AllCheck Guess=TCheck SCRF=Check GenChk RB3LYP/6-31G(d,p) Freq
 ----------------------------------------------------------------------

 Structure from the checkpoint file:  "B3LYP6-31Gdp.Frag_880.chk"
 --------
 Frag_880
 --------
 Charge =  0 Multiplicity = 1

                         Standard orientation:
 ---------------------------------------------------------------------
 Center     Atomic      Atomic             Coordinates (Angstroms)
 Number     Number       Type             X           Y           Z
 ---------------------------------------------------------------------
      1          6           0       -1.942498   -0.213625   -0.000004
      2          6           0       -0.693812    0.174054    0.000017
      3          6           0        0.556624    0.560364   -0.000012
      4          6           0        1.749023   -0.365789   -0.000001
      5          1           0       -2.487101   -0.381919   -0.926681
      6          1           0       -2.487122   -0.381935    0.926657
      7          1           0        0.765149    1.631263    0.000013
      8          1           0        1.438015   -1.412868   -0.000101
      9          1           0        2.377578   -0.192211   -0.881659
     10          1           0        2.377453   -0.192349    0.881775
 ---------------------------------------------------------------------

 SCF Done:  E(RB3LYP) =  -155.984759401     A.U. after    1 cycles

 The electronic state is 1-A.
 Alpha  occ. eigenvalues --  -10.19470 -10.19333 -10.18655 -10.18572  -0.79555
 Alpha  occ. eigenvalues --   -0.73104  -0.64840  -0.50883  -0.45798  -0.43496
 Alpha  occ. eigenvalues --   -0.41088  -0.40859  -0.37259  -0.25758  -0.24597
 Alpha virt. eigenvalues --    0.02420   0.02963   0.12793   0.13726   0.15127
 Alpha virt. eigenvalues --    0.17243   0.17331   0.21836   0.27317   0.32337
 Alpha virt. eigenvalues --    0.38604   0.44530   0.53222   0.53903   0.57141

 Mulliken charges:
               1
     1  C   -0.410655
     2  C    0.287355
     3  C   -0.250565
     4  C   -0.332721
     5  H    0.120267
     6  H    0.120264
     7  H    0.110787
     8  H    0.118251
     9  H    0.118507
    10  H    0.118510
 Sum of Mulliken charges =   0.00000

 Dipole moment (field-independent basis, Debye):
    X=              0.4108    Y=             -0.0392    Z=              0.0000  Tot=              0.4127
 Quadrupole moment (field-independent basis, Debye-Ang):
   XX=            -22.4247   YY=            -25.0853   ZZ=            -25.0911
   XY=              0.9596   XZ=              0.0001   YZ=              0.0000

  Exact polarizability:  71.873   8.843  30.414  -0.000  -0.000  28.030
 Approx polarizability: 106.490  19.171  42.442  -0.000  -0.000  37.234

                      1                      2                      3
                      A                      A                      A
 Frequencies --    170.4127               214.2504               352.5396
 Red. masses --      1.1193                 3.0243                 2.0398
 Frc consts  --      0.0192                 0.0818                 0.1494
 IR Inten    --      0.6419                 0.6843                 4.3849

                      4                      5                      6
                      A                      A                      A
 Frequencies --    539.7079               578.1645               868.5649
 Red. masses --      1.3489                 3.7215                 1.3353
 Frc consts  --      0.2315                 0.7329                 0.5935
 IR Inten    --      4.4342                 5.3299                49.0633

                      7                      8                      9
                      A                      A                      A
 Frequencies --    884.3537               898.5604              1027.9390
 Red. masses --      2.1587                 1.0780                 1.5205
 Frc consts  --      0.9947                 0.5128                 0.9466
 IR Inten    --      5.4383                14.9187                 0.0164

                     10                     11                     12
                      A                      A                      A
 Frequencies --   1062.7024              1097.0665              1157.3312
 Red. masses --      1.4272                 1.8338                 1.6903
 Frc consts  --      0.9496                 1.3004                 1.3339
 IR Inten    --      0.1888                 2.9842                 0.0294

                     13                     14                     15
                      A                      A                      A
 Frequencies --   1372.9808              1419.5817              1488.0390
 Red. masses --      1.3890                 1.2473                 1.2619
 Frc consts  --      1.5427                 1.4810                 1.6463
 IR Inten    --      8.3320                 2.9045                 5.2326

                     16                     17                     18
                      A                      A                      A
 Frequencies --   1497.7974              1518.6333              2076.7780
 Red. masses --      1.0444                 1.2311                10.0046
 Frc consts  --      1.3805                 1.6728                25.4232
 IR Inten    --      5.1425                 2.0591                30.1299

                     19                     20                     21
                      A                      A                      A
 Frequencies --   3034.8351              3088.0235              3127.2641
 Red. masses --      1.0372                 1.1012                 1.0890
 Frc consts  --      5.6285                 6.1872                 6.2750
 IR Inten    --     37.2713                24.8529                 0.4766

                     22                     23                     24
                      A                      A                      A
 Frequencies --   3133.1397              3142.8435              3205.5232
 Red. masses --      1.0599                 1.0971                 1.1153
 Frc consts  --      6.1301                 6.3848                 6.7518
 IR Inten    --      7.3053                25.6611                 5.9364

 - Thermochemistry -
 -------------------
 Temperature   298.150 Kelvin.  Pressure   1.00000 Atm.
 Atom     1 has atomic number  6 and mass  12.00000

 Molecular mass:    54.04695 amu.
 Principal axes and moments of inertia in atomic units:
                           1         2         3
     Eigenvalues --    52.24090 432.97529 461.66226
           X            1.00000   0.00156   0.00000
           Y           -0.00156   1.00000   0.00000
           Z           -0.00000  -0.00000   1.00000
 This molecule is an asymmetric top.
 Rotational symmetry number  1.
 Rotational temperatures (Kelvin)      1.65797     0.20004     0.18761
 Rotational constants (GHZ):          34.54652     4.16823     3.90922
 Zero-point vibrational energy     221052.1 (Joules/Mol)
                                   52.83273 (Kcal/Mol)
 Warning -- explicit consideration of   5 degrees of freedom as
           vibrations may cause significant error
 Vibrational temperatures:    245.19   308.26   507.23   776.52   831.85
          (Kelvin)           1249.67  1272.39  1292.83  1478.97  1528.99
                             1578.43  1665.14  1975.41  2042.46  2140.95
                             2154.99  2184.97  2988.02  4366.45  4442.97
                             4499.43  4507.88  4521.85  4612.03

 Zero-point correction=                           0.084194 (Hartree/Particle)
 Thermal correction to Energy=                    0.089211
 Thermal correction to Enthalpy=                  0.090155
 Thermal correction to Gibbs Free Energy=         0.057285
 Sum of electronic and zero-point Energies=           -155.900565
 Sum of electronic and thermal Energies=              -155.895548
 Sum of electronic and thermal Enthalpies=            -155.894604
 Sum of electronic and thermal Free Energies=         -155.927474

                     E (Thermal)             CV                S
                      KCal/Mol        Cal/Mol-Kelvin    Cal/Mol-Kelvin
 Total                   55.981             16.665             69.181
 Electronic               0.000              0.000              0.000
 Translational            0.889              2.981             37.884
 Rotational               0.889              2.981             23.861
 Vibrational             54.203             10.704              7.436
 Vibration     1          0.626              1.879              2.431
 Vibration     2          0.644              1.819              2.007
 Vibration     3          0.729              1.570              1.155
 Vibration     4          0.895              1.162              0.566
 Vibration     5          0.935              1.079              0.489

 Optimization completed.
    -- Stationary point found.
 Normal termination of Gaussian 09 at Thu Sep  8 15:03:09 2022.
