 Gaussian 09, Revision E.01,
 Gaussian 09:  ES64L-G09RevE.01 30-Nov-2015

 ----------------------------
 #P OPT Freq B3LYP/6-31G(d,p)
 ----------------------------

 --------
 Frag_602
 --------
 Symbolic Z-matrix:
 Charge =  0 Multiplicity = 1

 SCF Done:  E(RB3LYP) =  -367.667142380     A.U. after   13 cycles
 SCF Done:  E(RB3LYP) =  -367.667166736     A.U. after   10 cycles
 SCF Done:  E(RB3LYP) =  -367.667148884     A.U. after   10 cycles
 SCF Done:  E(RB3LYP) =  -367.667189890     A.U. after    9 cycles
 SCF Done:  E(RB3LYP) =  -367.667191065     A.U. after    7 cycles
 SCF Done:  E(RB3LYP) =  -367.667191409     A.U. after    7 cycles
 SCF Done:  E(RB3LYP) =  -367.667191449     A.U. after    7 cycles
 Optimization completed.
    -- Stationary point found.
 Normal termination of Gaussian 09 at Thu Sep  8 15:25:37 2022.

 ----------------------------------------------------------------------
 #P Geom=AllCheck Guess=TCheck SCRF=Check GenChk RB3LYP/6-31G(d,p) Freq
 ----------------------------------------------------------------------

 Structure from the checkpoint file:  "B3LYP6-31Gdp.Frag_602.chk"
 --------
 Frag_602
 --------
 Charge =  0 Multiplicity = 1

                         Standard orientation:
 ---------------------------------------------------------------------
 Center     Atomic      Atomic             Coordinates (Angstroms)
 Number     Number       Type             X           Y           Z
 ---------------------------------------------------------------------
      1          6           0       -1.331720   -0.679873    1.305292
      2          6           0       -0.789377   -0.044121    0.013212
      3          6           0       -1.403953    1.368227   -0.140544
      4          7           0       -1.178647   -0.920481   -1.107053
      5          6           0        0.787715    0.018735   -0.008549
      6          6           0        1.375432    0.950363    1.061273
      7          6           0        1.420421   -1.372859    0.111471
      8          8           0        1.200490    0.490286   -1.311974
      9          1           0       -1.066827   -0.098868    2.193746
     10          1           0       -0.965992   -1.701364    1.424902
     11          1           0       -2.426155   -0.725520    1.262310
     12          1           0       -1.053861    1.860921   -1.054453
     13          1           0       -2.493441    1.284135   -0.219776
     14          1           0       -1.192126    2.025436    0.709316
     15          1           0       -2.185934   -0.872637   -1.243736
     16          1           0       -0.740118   -0.564978   -1.954366
     17          1           0        1.105643    0.633934    2.072560
     18          1           0        2.466507    0.942075    0.984257
     19          1           0        1.039618    1.985298    0.935004
     20          1           0        0.968687   -2.061140   -0.603540
     21          1           0        1.292910   -1.781221    1.117378
     22          1           0        2.491495   -1.292786   -0.093064
     23          1           0        1.055096    1.444967   -1.338306
 ---------------------------------------------------------------------

 SCF Done:  E(RB3LYP) =  -367.667191449     A.U. after    1 cycles

 The electronic state is 1-A.
 Alpha  occ. eigenvalues --  -19.13993 -14.29807 -10.23748 -10.21605 -10.17622
 Alpha  occ. eigenvalues --  -10.17569 -10.16959 -10.15885  -1.01363  -0.87825
 Alpha  occ. eigenvalues --   -0.77379  -0.73244  -0.69065  -0.67686  -0.60674
 Alpha  occ. eigenvalues --   -0.53900  -0.49424  -0.47685  -0.44634  -0.43794
 Alpha  occ. eigenvalues --   -0.43101  -0.40900  -0.39291  -0.37984  -0.37606
 Alpha  occ. eigenvalues --   -0.37058  -0.36027  -0.35307  -0.33487  -0.33199
 Alpha  occ. eigenvalues --   -0.30906  -0.26443  -0.22434
 Alpha virt. eigenvalues --    0.05931   0.10117   0.11907   0.12720   0.13230
 Alpha virt. eigenvalues --    0.14104   0.15193   0.15389   0.16613   0.17892
 Alpha virt. eigenvalues --    0.20196   0.20571   0.21022   0.21786   0.22598

 Mulliken charges:
               1
     1  C   -0.299350
     2  C    0.151428
     3  C   -0.325075
     4  N   -0.594206
     5  C    0.269972
     6  C   -0.330958
     7  C   -0.301926
     8  O   -0.561311
     9  H    0.094554
    10  H    0.117915
    11  H    0.090945
    12  H    0.082055
    13  H    0.095460
    14  H    0.099806
    15  H    0.224481
    16  H    0.245396
    17  H    0.107278
    18  H    0.113456
    19  H    0.089899
    20  H    0.134319
    21  H    0.093456
    22  H    0.102041
    23  H    0.300365
 Sum of Mulliken charges =  -0.00000

 Dipole moment (field-independent basis, Debye):
    X=             -0.8955    Y=              1.9090    Z=              0.7338  Tot=              2.2327
 Quadrupole moment (field-independent basis, Debye-Ang):
   XX=            -51.0125   YY=            -52.2913   ZZ=            -51.9408
   XY=              0.3394   XZ=              2.7141   YZ=             -2.2520

  Exact polarizability:  79.143  -0.352  73.494   0.927  -0.077  72.191
 Approx polarizability: 105.078   0.928 102.364  -1.143   0.333 104.850

                      1                      2                      3
                      A                      A                      A
 Frequencies --     83.3225               194.8651               241.1945
 Red. masses --      2.5745                 1.0277                 1.1411
 Frc consts  --      0.0105                 0.0230                 0.0391
 IR Inten    --      0.3950                 1.8598                 0.1457

                      4                      5                      6
                      A                      A                      A
 Frequencies --    251.3778               272.2877               278.1072
 Red. masses --      1.1937                 1.4513                 2.4669
 Frc consts  --      0.0444                 0.0634                 0.1124
 IR Inten    --      1.8375                 5.8918                 1.9589

                      7                      8                      9
                      A                      A                      A
 Frequencies --    294.3749               296.6580               338.2791
 Red. masses --      1.5605                 1.1727                 1.4813
 Frc consts  --      0.0797                 0.0608                 0.0999
 IR Inten    --      5.7355                15.3177                93.6281

                     10                     11                     12
                      A                      A                      A
 Frequencies --    366.5237               373.9027               379.2894
 Red. masses --      2.4245                 1.7541                 2.1692
 Frc consts  --      0.1919                 0.1445                 0.1839
 IR Inten    --      1.9294                22.5215                15.6952

                     13                     14                     15
                      A                      A                      A
 Frequencies --    394.5498               424.5901               490.8564
 Red. masses --      2.3619                 2.4682                 2.4110
 Frc consts  --      0.2166                 0.2622                 0.3423
 IR Inten    --      3.2321                11.8616                 6.2371

                     16                     17                     18
                      A                      A                      A
 Frequencies --    512.0498               538.1085               661.5735
 Red. masses --      2.9491                 2.9049                 3.1255
 Frc consts  --      0.4556                 0.4956                 0.8060
 IR Inten    --      6.8179                21.3286                 1.2612

                     19                     20                     21
                      A                      A                      A
 Frequencies --    829.1285               882.1162               916.9384
 Red. masses --      3.0059                 2.1444                 1.4011
 Frc consts  --      1.2175                 0.9831                 0.6941
 IR Inten    --     15.2229                32.8843                92.9141

                     22                     23                     24
                      A                      A                      A
 Frequencies --    928.8541               941.7715               963.6487
 Red. masses --      1.5641                 1.4669                 2.1167
 Frc consts  --      0.7951                 0.7666                 1.1581
 IR Inten    --      2.8647                 6.3355                24.1174

                     25                     26                     27
                      A                      A                      A
 Frequencies --    970.0422              1015.0565              1028.8527
 Red. masses --      1.7168                 1.2826                 1.3142
 Frc consts  --      0.9518                 0.7786                 0.8196
 IR Inten    --      2.6421                 2.6803                 1.8546

                     28                     29                     30
                      A                      A                      A
 Frequencies --   1081.8078              1133.8205              1196.5974
 Red. masses --      1.5732                 1.4945                 2.4799
 Frc consts  --      1.0848                 1.1320                 2.0921
 IR Inten    --     29.7878                16.5522                31.1348

                     31                     32                     33
                      A                      A                      A
 Frequencies --   1206.2512              1222.8264              1271.8040
 Red. masses --      2.4261                 2.2137                 3.1164
 Frc consts  --      2.0798                 1.9503                 2.9699
 IR Inten    --     58.9340                28.6241                 2.5507

                     34                     35                     36
                      A                      A                      A
 Frequencies --   1344.5331              1364.5160              1410.1256
 Red. masses --      1.8024                 1.6625                 1.2687
 Frc consts  --      1.9197                 1.8237                 1.4863
 IR Inten    --     12.8140                26.1753                12.8936

                     37                     38                     39
                      A                      A                      A
 Frequencies --   1412.7070              1423.0111              1434.8368
 Red. masses --      1.3829                 1.2608                 1.2280
 Frc consts  --      1.6261                 1.5042                 1.4896
 IR Inten    --     13.3139                15.2950                 5.2781

                     40                     41                     42
                      A                      A                      A
 Frequencies --   1493.1163              1496.3408              1500.1186
 Red. masses --      1.0553                 1.0477                 1.0467
 Frc consts  --      1.3862                 1.3821                 1.3877
 IR Inten    --      2.9960                 0.1372                 0.1281

                     43                     44                     45
                      A                      A                      A
 Frequencies --   1508.3616              1517.3880              1522.6202
 Red. masses --      1.0485                 1.0603                 1.0545
 Frc consts  --      1.4056                 1.4384                 1.4404
 IR Inten    --      2.0302                 4.3024                 7.5764

                     46                     47                     48
                      A                      A                      A
 Frequencies --   1527.4893              1528.8037              1646.0890
 Red. masses --      1.0506                 1.0633                 1.0950
 Frc consts  --      1.4443                 1.4642                 1.7481
 IR Inten    --      4.3157                 0.4010                40.0746

                     49                     50                     51
                      A                      A                      A
 Frequencies --   3035.5059              3046.1013              3049.7241
 Red. masses --      1.0357                 1.0385                 1.0389
 Frc consts  --      5.6227                 5.6774                 5.6931
 IR Inten    --     18.8108                18.9356                24.6302

                     52                     53                     54
                      A                      A                      A
 Frequencies --   3065.6295              3100.8839              3106.8361
 Red. masses --      1.0370                 1.1010                 1.1007
 Frc consts  --      5.7419                 6.2373                 6.2597
 IR Inten    --     13.3019                12.3244                27.4255

                     55                     56                     57
                      A                      A                      A
 Frequencies --   3112.1510              3117.7481              3128.5135
 Red. masses --      1.0988                 1.1004                 1.1026
 Frc consts  --      6.2704                 6.3021                 6.3582
 IR Inten    --     70.1552                24.1603                 1.5994

                     58                     59                     60
                      A                      A                      A
 Frequencies --   3136.4132              3151.4451              3166.4429
 Red. masses --      1.1020                 1.1005                 1.1014
 Frc consts  --      6.3869                 6.4396                 6.5066
 IR Inten    --     46.7909                20.8801                 8.1029

                     61                     62                     63
                      A                      A                      A
 Frequencies --   3482.3002              3572.8745              3815.3500
 Red. masses --      1.0487                 1.0928                 1.0660
 Frc consts  --      7.4924                 8.2190                 9.1424
 IR Inten    --      5.5048                 0.8233                 7.5774

 - Thermochemistry -
 -------------------
 Temperature   298.150 Kelvin.  Pressure   1.00000 Atm.
 Atom     1 has atomic number  6 and mass  12.00000

 Molecular mass:   117.11536 amu.
 Principal axes and moments of inertia in atomic units:
                           1         2         3
     Eigenvalues --   755.231631049.810121063.18593
           X            0.99889  -0.02462   0.04012
           Y            0.03176   0.98160  -0.18828
           Z           -0.03475   0.18935   0.98130
 This molecule is an asymmetric top.
 Rotational symmetry number  1.
 Warning -- assumption of classical behavior for rotation
           may cause significant error
 Rotational temperatures (Kelvin)      0.11469     0.08250     0.08147
 Rotational constants (GHZ):           2.38965     1.71911     1.69748
 Zero-point vibrational energy     551474.9 (Joules/Mol)
                                  131.80566 (Kcal/Mol)
 Warning -- explicit consideration of  17 degrees of freedom as
           vibrations may cause significant error
 Vibrational temperatures:    119.88   280.37   347.02   361.68   391.76
          (Kelvin)            400.13   423.54   426.82   486.71   527.35
                              537.96   545.71   567.67   610.89   706.23
                              736.72   774.22   951.86  1192.93  1269.17
                             1319.27  1336.41  1355.00  1386.47  1395.67
                             1460.44  1480.29  1556.48  1631.31  1721.63
                             1735.52  1759.37  1829.84  1934.48  1963.23
                             2028.85  2032.57  2047.39  2064.41  2148.26
                             2152.90  2158.33  2170.19  2183.18  2190.71
                             2197.71  2199.60  2368.35  4367.41  4382.65
                             4387.87  4410.75  4461.47  4470.04  4477.69
                             4485.74  4501.23  4512.59  4534.22  4555.80
                             5010.25  5140.56  5489.43

 Zero-point correction=                           0.210046 (Hartree/Particle)
 Thermal correction to Energy=                    0.220331
 Thermal correction to Enthalpy=                  0.221275
 Thermal correction to Gibbs Free Energy=         0.176605
 Sum of electronic and zero-point Energies=           -367.457146
 Sum of electronic and thermal Energies=              -367.446861
 Sum of electronic and thermal Enthalpies=            -367.445917
 Sum of electronic and thermal Free Energies=         -367.490587

                     E (Thermal)             CV                S
                      KCal/Mol        Cal/Mol-Kelvin    Cal/Mol-Kelvin
 Total                  138.260             40.376             94.016
 Electronic               0.000              0.000              0.000
 Translational            0.889              2.981             40.189
 Rotational               0.889              2.981             28.224
 Vibrational            136.482             34.415             25.603
 Vibration     1          0.600              1.961              3.811
 Vibration     2          0.636              1.847              2.181
 Vibration     3          0.658              1.777              1.794
 Vibration     4          0.663              1.760              1.721
 Vibration     5          0.675              1.724              1.582
 Vibration     6          0.679              1.714              1.545
 Vibration     7          0.689              1.684              1.449
 Vibration     8          0.690              1.680              1.436
 Vibration     9          0.719              1.599              1.220
 Vibration    10          0.739              1.541              1.094
 Vibration    11          0.745              1.526              1.064
 Vibration    12          0.749              1.514              1.042
 Vibration    13          0.762              1.482              0.983
 Vibration    14          0.787              1.417              0.877
 Vibration    15          0.847              1.270              0.681
 Vibration    16          0.867              1.223              0.629
 Vibration    17          0.893              1.166              0.569

 Optimization completed.
    -- Stationary point found.
 Normal termination of Gaussian 09 at Thu Sep  8 15:26:06 2022.
