 Gaussian 09, Revision E.01,
 Gaussian 09:  ES64L-G09RevE.01 30-Nov-2015

 --------------------------------
 #P OPT=calcfc Freq B3LYP/6-31G**
 --------------------------------

 --------
 Frag_247
 --------
 Symbolic Z-matrix:
 Charge =  0 Multiplicity = 1

 SCF Done:  E(RB3LYP) =  -226.186322795     A.U. after   13 cycles
 SCF Done:  E(RB3LYP) =  -226.195020385     A.U. after   13 cycles
 SCF Done:  E(RB3LYP) =  -226.196244257     A.U. after   15 cycles
 SCF Done:  E(RB3LYP) =  -226.196679865     A.U. after   14 cycles
 SCF Done:  E(RB3LYP) =  -226.196771593     A.U. after   11 cycles
 SCF Done:  E(RB3LYP) =  -226.196814105     A.U. after   10 cycles
 SCF Done:  E(RB3LYP) =  -226.196820345     A.U. after   11 cycles
 SCF Done:  E(RB3LYP) =  -226.196820451     A.U. after    7 cycles
 Optimization completed.
    -- Stationary point found.
 Normal termination of Gaussian 09 at Sat Aug 21 02:20:23 2021.

 ----------------------------------------------------------------------
 #P Geom=AllCheck Guess=TCheck SCRF=Check GenChk RB3LYP/6-31G(d,p) Freq
 ----------------------------------------------------------------------

 Structure from the checkpoint file:  "/public/home/users/caep010/.cache/gau_scr/Gau-166001.chk"
 --------
 Frag_247
 --------
 Charge =  0 Multiplicity = 1

                         Standard orientation:
 ---------------------------------------------------------------------
 Center     Atomic      Atomic             Coordinates (Angstroms)
 Number     Number       Type             X           Y           Z
 ---------------------------------------------------------------------
      1          6           0       -1.171527   -1.129848    0.000004
      2          6           0       -0.409809    0.175254   -0.000041
      3          7           0       -0.874684    1.363436    0.000015
      4          6           0        1.041343    0.034211   -0.000031
      5          7           0        2.190194   -0.137368    0.000020
      6          1           0       -2.248604   -0.944912   -0.000088
      7          1           0       -0.910156   -1.724664    0.881641
      8          1           0       -0.910091   -1.724950   -0.881409
      9          1           0       -1.899758    1.334348    0.000011
 ---------------------------------------------------------------------

 SCF Done:  E(RB3LYP) =  -226.196820451     A.U. after    1 cycles

 The electronic state is 1-A.
 Alpha  occ. eigenvalues --  -14.35879 -14.35274 -10.29451 -10.23979 -10.22435
 Alpha  occ. eigenvalues --   -0.95172  -0.91006  -0.77246  -0.67569  -0.51460
 Alpha  occ. eigenvalues --   -0.49142  -0.46433  -0.43559  -0.38003  -0.37350
 Alpha  occ. eigenvalues --   -0.34531  -0.32114  -0.30050
 Alpha virt. eigenvalues --   -0.06570   0.02236   0.07204   0.07983   0.10568
 Alpha virt. eigenvalues --    0.15892   0.16651   0.17082   0.23805   0.36178
 Alpha virt. eigenvalues --    0.38819   0.49880   0.51180   0.53294   0.55946

 Mulliken charges:
               1
     1  C   -0.354293
     2  C    0.236596
     3  N   -0.459148
     4  C    0.356096
     5  N   -0.454821
     6  H    0.125985
     7  H    0.153871
     8  H    0.153866
     9  H    0.241847
 Sum of Mulliken charges =  -0.00000

 Dipole moment (field-independent basis, Debye):
    X=             -4.2342    Y=             -1.8462    Z=             -0.0001  Tot=              4.6192
 Quadrupole moment (field-independent basis, Debye-Ang):
   XX=            -32.1635   YY=            -30.7736   ZZ=            -28.6016
   XY=              0.5928   XZ=             -0.0001   YZ=             -0.0000

  Exact polarizability:  55.031  -6.278  40.958   0.001   0.000  23.803
 Approx polarizability:  89.415 -18.306  64.793   0.001   0.001  33.633

                      1                      2                      3
                      A                      A                      A
 Frequencies --    149.9727               195.0337               286.3199
 Red. masses --      1.0448                 5.3714                 5.3847
 Frc consts  --      0.0138                 0.1204                 0.2601
 IR Inten    --      0.3778                 4.8489                 1.2193

                      4                      5                      6
                      A                      A                      A
 Frequencies --    436.4294               594.7230               613.2411
 Red. masses --      3.1186                 3.2494                 6.9268
 Frc consts  --      0.3500                 0.6772                 1.5348
 IR Inten    --      3.2042                 0.7684                 6.5287

                      7                      8                      9
                      A                      A                      A
 Frequencies --    756.0915               918.8751               995.5597
 Red. masses --      4.4427                 1.2399                 2.0614
 Frc consts  --      1.4964                 0.6168                 1.2038
 IR Inten    --      9.4604                40.0069                 8.4960

                     10                     11                     12
                      A                      A                      A
 Frequencies --   1084.5597              1104.8353              1366.0014
 Red. masses --      1.5178                 1.5136                 1.7699
 Frc consts  --      1.0519                 1.0886                 1.9458
 IR Inten    --     18.1630                61.6590                68.3053

                     13                     14                     15
                      A                      A                      A
 Frequencies --   1419.5627              1479.8159              1491.5323
 Red. masses --      1.3152                 1.0434                 1.0697
 Frc consts  --      1.5615                 1.3462                 1.4020
 IR Inten    --     25.6637                 8.4986                25.3065

                     16                     17                     18
                      A                      A                      A
 Frequencies --   1712.2694              2357.2291              3049.4225
 Red. masses --      8.4806                12.6968                 1.0352
 Frc consts  --     14.6495                41.5669                 5.6716
 IR Inten    --     49.1154                 2.2532                 2.1952

                     19                     20                     21
                      A                      A                      A
 Frequencies --   3118.3108              3143.7664              3443.4000
 Red. masses --      1.1010                 1.1044                 1.0747
 Frc consts  --      6.3078                 6.4312                 7.5077
 IR Inten    --      4.0451                 8.6594                 0.4980

 - Thermochemistry -
 -------------------
 Temperature   298.150 Kelvin.  Pressure   1.00000 Atm.
 Atom     1 has atomic number  6 and mass  12.00000

 Molecular mass:    68.03745 amu.
 Principal axes and moments of inertia in atomic units:
                           1         2         3
     Eigenvalues --   185.65648 431.97329 606.44281
           X            0.99907   0.04321  -0.00000
           Y           -0.04321   0.99907  -0.00000
           Z            0.00000   0.00000   1.00000
 This molecule is an asymmetric top.
 Rotational symmetry number  1.
 Rotational temperatures (Kelvin)      0.46653     0.20051     0.14282
 Rotational constants (GHZ):           9.72086     4.17790     2.97595
 Zero-point vibrational energy     177746.8 (Joules/Mol)
                                   42.48251 (Kcal/Mol)
 Warning -- explicit consideration of   6 degrees of freedom as
           vibrations may cause significant error
 Vibrational temperatures:    215.78   280.61   411.95   627.92   855.67
          (Kelvin)            882.32  1087.85  1322.05  1432.39  1560.44
                             1589.61  1965.37  2042.43  2129.12  2145.98
                             2463.57  3391.52  4387.43  4486.55  4523.17
                             4954.28

 Zero-point correction=                           0.067700 (Hartree/Particle)
 Thermal correction to Energy=                    0.073032
 Thermal correction to Enthalpy=                  0.073976
 Thermal correction to Gibbs Free Energy=         0.039436
 Sum of electronic and zero-point Energies=           -226.129120
 Sum of electronic and thermal Energies=              -226.123788
 Sum of electronic and thermal Enthalpies=            -226.122844
 Sum of electronic and thermal Free Energies=         -226.157385

                     E (Thermal)             CV                S
                      KCal/Mol        Cal/Mol-Kelvin    Cal/Mol-Kelvin
 Total                   45.828             17.414             72.697
 Electronic               0.000              0.000              0.000
 Translational            0.889              2.981             38.570
 Rotational               0.889              2.981             25.390
 Vibrational             44.051             11.452              8.738
 Vibration     1          0.618              1.903              2.673
 Vibration     2          0.636              1.847              2.179
 Vibration     3          0.684              1.699              1.496
 Vibration     4          0.797              1.391              0.838
 Vibration     5          0.952              1.043              0.459
 Vibration     6          0.973              1.004              0.427

 Optimization completed.
    -- Stationary point found.
 Normal termination of Gaussian 09 at Sat Aug 21 02:20:30 2021.
