 Gaussian 09, Revision D.01,
 Gaussian 09:  ES64L-G09RevD.01 24-Apr-2013

 -------------------------
 #P OPT Freq B3LYP/6-31G**
 -------------------------

 -------
 Frag_57
 -------
 Symbolic Z-matrix:
 Charge =  0 Multiplicity = 1

 SCF Done:  E(RB3LYP) =  -212.582914384     A.U. after   13 cycles
 Optimization completed.
    -- Stationary point found.
 Normal termination of Gaussian 09 at Fri Jul 23 20:04:58 2021.

 ----------------------------------------------------------------------
 #P Geom=AllCheck Guess=TCheck SCRF=Check GenChk RB3LYP/6-31G(d,p) Freq
 ----------------------------------------------------------------------

 Structure from the checkpoint file:  "/vol2/users/liuj201281/HOFBenchmark/IsodesmicSplit/Sample60/Ring26/Running/Gau-12630.chk"
 -------
 Frag_57
 -------
 Charge =  0 Multiplicity = 1

                         Standard orientation:
 ---------------------------------------------------------------------
 Center     Atomic      Atomic             Coordinates (Angstroms)
 Number     Number       Type             X           Y           Z
 ---------------------------------------------------------------------
      1          6           0        1.435692   -1.078378   -0.217498
      2          6           0        0.566788   -0.111982    0.095703
      3          6           0        0.930981    1.350219    0.028403
      4          6           0       -0.850811   -0.440289    0.533203
      5          7           0       -1.927213    0.031006   -0.352098
      6          1           0        1.161797   -2.128680   -0.159198
      7          1           0        2.450691   -0.858074   -0.537698
      8          1           0        0.267979    1.895816   -0.654498
      9          1           0        0.827179    1.826319    1.012503
     10          1           0        1.958281    1.497924   -0.314198
     11          1           0       -0.953906   -1.525689    0.639303
     12          1           0       -1.038512   -0.009190    1.526303
     13          1           0       -1.740611   -0.280593   -1.303298
     14          1           0       -1.938317    1.047706   -0.383398
 ---------------------------------------------------------------------

 SCF Done:  E(RB3LYP) =  -212.582914384     A.U. after    1 cycles

 The electronic state is 1-A.
 Alpha  occ. eigenvalues --  -14.31261 -10.20690 -10.19118 -10.18369 -10.17266
 Alpha  occ. eigenvalues --   -0.87928  -0.78756  -0.68781  -0.65486  -0.52805
 Alpha  occ. eigenvalues --   -0.49130  -0.45886  -0.43195  -0.42271  -0.39855
 Alpha  occ. eigenvalues --   -0.37146  -0.35486  -0.34684  -0.25254  -0.23089
 Alpha virt. eigenvalues --    0.02229   0.07749   0.11729   0.13197   0.14687
 Alpha virt. eigenvalues --    0.15771   0.16484   0.17306   0.20216   0.21850
 Alpha virt. eigenvalues --    0.23873   0.25862   0.32498   0.37917   0.52016

 Mulliken charges:
               1
     1  C   -0.285994
     2  C    0.159651
     3  C   -0.366175
     4  C   -0.111236
     5  N   -0.588447
     6  H    0.089353
     7  H    0.088185
     8  H    0.102652
     9  H    0.114292
    10  H    0.112390
    11  H    0.106093
    12  H    0.106145
    13  H    0.236615
    14  H    0.236474
 Sum of Mulliken charges =   0.00000

 Dipole moment (field-independent basis, Debye):
    X=              0.9108    Y=              0.8851    Z=             -0.4642  Tot=              1.3522
 Quadrupole moment (field-independent basis, Debye-Ang):
   XX=            -37.0360   YY=            -30.2326   ZZ=            -31.5850
   XY=             -1.2247   XZ=              0.5093   YZ=              0.1200

  Exact polarizability:  55.860  -6.776  56.216  -3.393   2.219  37.875
 Approx polarizability:  76.262 -14.927  79.942  -5.980   5.395  53.661

                      1                      2                      3
                      A                      A                      A
 Frequencies --     83.5759               186.0970               254.4719
 Red. masses --      2.0450                 1.0736                 2.7306
 Frc consts  --      0.0084                 0.0219                 0.1042
 IR Inten    --      0.4828                 1.4357                 2.8811

                      4                      5                      6
                      A                      A                      A
 Frequencies --    296.5320               402.3446               430.7165
 Red. masses --      1.2554                 1.8567                 2.0024
 Frc consts  --      0.0650                 0.1771                 0.2189
 IR Inten    --     38.4472                 8.3446                 2.3131

                      7                      8                      9
                      A                      A                      A
 Frequencies --    550.0394               726.5131               796.0243
 Red. masses --      2.2947                 1.2173                 2.0797
 Frc consts  --      0.4090                 0.3786                 0.7764
 IR Inten    --     14.4589                 0.2048                54.0822

                     10                     11                     12
                      A                      A                      A
 Frequencies --    884.3552               907.9206               931.1789
 Red. masses --      1.3737                 1.7122                 1.3478
 Frc consts  --      0.6330                 0.8316                 0.6886
 IR Inten    --     47.1147               123.2195                37.7201

                     13                     14                     15
                      A                      A                      A
 Frequencies --    986.2173              1025.9126              1069.2648
 Red. masses --      1.6487                 1.3618                 1.4858
 Frc consts  --      0.9448                 0.8444                 1.0009
 IR Inten    --     16.2362                 4.2624                 1.2378

                     16                     17                     18
                      A                      A                      A
 Frequencies --   1093.3159              1179.6723              1304.8871
 Red. masses --      2.9760                 1.2705                 2.6650
 Frc consts  --      2.0959                 1.0417                 2.6736
 IR Inten    --      9.8974                 1.0115                 1.0883

                     19                     20                     21
                      A                      A                      A
 Frequencies --   1370.4833              1389.8833              1421.0628
 Red. masses --      1.2445                 1.2280                 1.2574
 Frc consts  --      1.3772                 1.3977                 1.4960
 IR Inten    --     11.9940                 1.7348                 4.1293

                     22                     23                     24
                      A                      A                      A
 Frequencies --   1462.0057              1489.5152              1499.1289
 Red. masses --      1.1816                 1.0646                 1.0648
 Frc consts  --      1.4881                 1.3916                 1.4100
 IR Inten    --      0.7209                 1.9807                 9.7000

                     25                     26                     27
                      A                      A                      A
 Frequencies --   1511.0964              1671.1828              1730.8162
 Red. masses --      1.0642                 1.0886                 5.0444
 Frc consts  --      1.4318                 1.7913                 8.9036
 IR Inten    --      7.9924                17.1114                 9.6880

                     28                     29                     30
                      A                      A                      A
 Frequencies --   3025.0202              3029.3445              3075.5916
 Red. masses --      1.0470                 1.0557                 1.0989
 Frc consts  --      5.6450                 5.7078                 6.1245
 IR Inten    --     29.5570                36.4762                27.7245

                     31                     32                     33
                      A                      A                      A
 Frequencies --   3083.3928              3126.9185              3145.6539
 Red. masses --      1.1007                 1.0996                 1.0604
 Frc consts  --      6.1659                 6.3343                 6.1821
 IR Inten    --     28.8645                19.3786                10.3146

                     34                     35                     36
                      A                      A                      A
 Frequencies --   3227.2037              3484.8563              3572.7020
 Red. masses --      1.1157                 1.0491                 1.0927
 Frc consts  --      6.8465                 7.5065                 8.2178
 IR Inten    --     19.7796                 0.8935                 0.2419

 - Thermochemistry -
 -------------------
 Temperature   298.150 Kelvin.  Pressure   1.00000 Atm.
 Atom     1 has atomic number  6 and mass  12.00000

 Molecular mass:    71.07350 amu.
 Principal axes and moments of inertia in atomic units:
                           1         2         3
     Eigenvalues --   245.36131 474.57061 631.85796
           X            0.99997   0.00491  -0.00590
           Y           -0.00493   0.99999  -0.00212
           Z            0.00589   0.00215   0.99998
 This molecule is an asymmetric top.
 Rotational symmetry number  1.
 Rotational temperatures (Kelvin)      0.35301     0.18251     0.13708
 Rotational constants (GHZ):           7.35544     3.80289     2.85625
 Zero-point vibrational energy     331514.5 (Joules/Mol)
                                   79.23387 (Kcal/Mol)
 Warning -- explicit consideration of   7 degrees of freedom as
           vibrations may cause significant error
 Vibrational temperatures:    120.25   267.75   366.13   426.64   578.88
          (Kelvin)            619.70   791.38  1045.29  1145.30  1272.39
                             1306.29  1339.76  1418.94  1476.06  1538.43
                             1573.04  1697.28  1877.44  1971.82  1999.73
                             2044.59  2103.50  2143.08  2156.91  2174.13
                             2404.46  2490.26  4352.32  4358.55  4425.08
                             4436.31  4498.93  4525.89  4643.22  5013.92
                             5140.31

 Zero-point correction=                           0.126267 (Hartree/Particle)
 Thermal correction to Energy=                    0.132674
 Thermal correction to Enthalpy=                  0.133618
 Thermal correction to Gibbs Free Energy=         0.096814
 Sum of electronic and zero-point Energies=           -212.456647
 Sum of electronic and thermal Energies=              -212.450241
 Sum of electronic and thermal Enthalpies=            -212.449296
 Sum of electronic and thermal Free Energies=         -212.486101

                     E (Thermal)             CV                S
                      KCal/Mol        Cal/Mol-Kelvin    Cal/Mol-Kelvin
 Total                   83.254             22.540             77.461
 Electronic               0.000              0.000              0.000
 Translational            0.889              2.981             38.700
 Rotational               0.889              2.981             25.801
 Vibrational             81.477             16.579             12.960
 Vibration     1          0.600              1.960              3.805
 Vibration     2          0.632              1.859              2.266
 Vibration     3          0.665              1.755              1.699
 Vibration     4          0.690              1.680              1.436
 Vibration     5          0.768              1.465              0.954
 Vibration     6          0.792              1.403              0.856
 Vibration     7          0.905              1.140              0.544

 Normal termination of Gaussian 09 at Fri Jul 23 20:05:10 2021.
