 Gaussian 09, Revision E.01,
 Gaussian 09:  ES64L-G09RevE.01 30-Nov-2015

 ----------------------------
 #P OPT Freq B3LYP/6-31G(d,p)
 ----------------------------

 ---------
 Frag_1093
 ---------
 Symbolic Z-matrix:
 Charge =  0 Multiplicity = 1

 SCF Done:  E(RB3LYP) =  -268.347728660     A.U. after   13 cycles
 SCF Done:  E(RB3LYP) =  -268.347810243     A.U. after   10 cycles
 SCF Done:  E(RB3LYP) =  -268.347823318     A.U. after    9 cycles
 SCF Done:  E(RB3LYP) =  -268.347835155     A.U. after   10 cycles
 SCF Done:  E(RB3LYP) =  -268.347842398     A.U. after    9 cycles
 SCF Done:  E(RB3LYP) =  -268.347845259     A.U. after    8 cycles
 SCF Done:  E(RB3LYP) =  -268.347845817     A.U. after    8 cycles
 SCF Done:  E(RB3LYP) =  -268.347846274     A.U. after    8 cycles
 SCF Done:  E(RB3LYP) =  -268.347846807     A.U. after    8 cycles
 SCF Done:  E(RB3LYP) =  -268.347846935     A.U. after    7 cycles
 Optimization completed.
    -- Stationary point found.
 Normal termination of Gaussian 09 at Thu Sep  8 14:46:47 2022.

 ----------------------------------------------------------------------
 #P Geom=AllCheck Guess=TCheck SCRF=Check GenChk RB3LYP/6-31G(d,p) Freq
 ----------------------------------------------------------------------

 Structure from the checkpoint file:  "B3LYP6-31Gdp.Frag_1093.chk"
 ---------
 Frag_1093
 ---------
 Charge =  0 Multiplicity = 1

                         Standard orientation:
 ---------------------------------------------------------------------
 Center     Atomic      Atomic             Coordinates (Angstroms)
 Number     Number       Type             X           Y           Z
 ---------------------------------------------------------------------
      1          6           0       -0.715811    1.373000   -0.005444
      2          6           0       -0.432156   -0.096913   -0.019809
      3          8           0       -1.516654   -0.953245    0.069711
      4          6           0        0.788452   -0.642323   -0.031882
      5          8           0        1.924926    0.137175    0.080201
      6          1           0       -1.203076    1.672592    0.930646
      7          1           0       -1.390362    1.651984   -0.828143
      8          1           0        0.209455    1.940367   -0.114176
      9          1           0       -2.266655   -0.536701   -0.374803
     10          1           0        0.913177   -1.722665   -0.037777
     11          1           0        2.628373   -0.279597   -0.432231
 ---------------------------------------------------------------------

 SCF Done:  E(RB3LYP) =  -268.347846935     A.U. after    1 cycles

 The electronic state is 1-A.
 Alpha  occ. eigenvalues --  -19.16143 -19.15910 -10.22512 -10.21439 -10.18270
 Alpha  occ. eigenvalues --   -1.03952  -1.03028  -0.76192  -0.68800  -0.57183
 Alpha  occ. eigenvalues --   -0.51494  -0.48187  -0.45647  -0.42191  -0.38969
 Alpha  occ. eigenvalues --   -0.37666  -0.36301  -0.32172  -0.31649  -0.19290
 Alpha virt. eigenvalues --    0.05402   0.06906   0.07990   0.13804   0.15659
 Alpha virt. eigenvalues --    0.18128   0.18828   0.22790   0.24317   0.34658
 Alpha virt. eigenvalues --    0.39541   0.53337   0.53678   0.57616   0.61147

 Mulliken charges:
               1
     1  C   -0.381614
     2  C    0.300811
     3  O   -0.549431
     4  C    0.073072
     5  O   -0.527204
     6  H    0.126027
     7  H    0.098914
     8  H    0.141669
     9  H    0.310109
    10  H    0.089212
    11  H    0.318435
 Sum of Mulliken charges =   0.00000

 Dipole moment (field-independent basis, Debye):
    X=             -0.0939    Y=              0.3563    Z=             -1.5765  Tot=              1.6190
 Quadrupole moment (field-independent basis, Debye-Ang):
   XX=            -22.4110   YY=            -30.5026   ZZ=            -30.6235
   XY=             -4.4881   XZ=             -0.7690   YZ=              0.7728

  Exact polarizability:  55.730  -6.244  39.720  -0.264   0.369  24.547
 Approx polarizability:  83.926  -8.621  52.091  -0.182   0.377  34.486

                      1                      2                      3
                      A                      A                      A
 Frequencies --    181.0238               194.9923               257.2960
 Red. masses --      1.1245                 1.0563                 2.2336
 Frc consts  --      0.0217                 0.0237                 0.0871
 IR Inten    --    119.0169                 0.2963                85.6069

                      4                      5                      6
                      A                      A                      A
 Frequencies --    277.8895               322.4208               421.6727
 Red. masses --      1.6907                 2.3382                 3.2497
 Frc consts  --      0.0769                 0.1432                 0.3404
 IR Inten    --     81.4486                21.9543                 4.7005

                      7                      8                      9
                      A                      A                      A
 Frequencies --    455.2945               593.5503               839.1293
 Red. masses --      2.4243                 6.2079                 1.4521
 Frc consts  --      0.2961                 1.2886                 0.6024
 IR Inten    --      9.8202                 3.0731                24.4575

                     10                     11                     12
                      A                      A                      A
 Frequencies --    839.7311              1023.0571              1067.4378
 Red. masses --      3.3714                 1.5146                 1.4282
 Frc consts  --      1.4007                 0.9340                 0.9588
 IR Inten    --     13.7561                 2.1019                 4.0020

                     13                     14                     15
                      A                      A                      A
 Frequencies --   1143.4860              1200.2408              1257.6729
 Red. masses --      2.9265                 1.5028                 1.3165
 Frc consts  --      2.2546                 1.2755                 1.2269
 IR Inten    --    248.7681               223.4211                10.9013

                     16                     17                     18
                      A                      A                      A
 Frequencies --   1320.9342              1391.9414              1436.2990
 Red. masses --      2.2065                 1.2834                 1.5841
 Frc consts  --      2.2684                 1.4651                 1.9254
 IR Inten    --      4.6906                14.0942                23.6992

                     19                     20                     21
                      A                      A                      A
 Frequencies --   1495.6349              1502.7198              1807.4731
 Red. masses --      1.0506                 1.0512                 5.9432
 Frc consts  --      1.3847                 1.3986                11.4397
 IR Inten    --      5.8579                 7.6604                 2.1853

                     22                     23                     24
                      A                      A                      A
 Frequencies --   3013.8555              3070.0614              3157.0900
 Red. masses --      1.0465                 1.0942                 1.0962
 Frc consts  --      5.6008                 6.0765                 6.4372
 IR Inten    --     44.1410                26.3244                 5.3687

                     25                     26                     27
                      A                      A                      A
 Frequencies --   3176.2132              3807.9855              3828.5634
 Red. masses --      1.0919                 1.0662                 1.0666
 Frc consts  --      6.4898                 9.1088                 9.2117
 IR Inten    --     18.9931                25.2844                44.2735

 - Thermochemistry -
 -------------------
 Temperature   298.150 Kelvin.  Pressure   1.00000 Atm.
 Atom     1 has atomic number  6 and mass  12.00000

 Molecular mass:    74.03678 amu.
 Principal axes and moments of inertia in atomic units:
                           1         2         3
     Eigenvalues --   203.20761 466.94044 655.19346
           X            0.99771  -0.06765  -0.00261
           Y            0.06766   0.99769   0.00628
           Z            0.00218  -0.00644   0.99998
 This molecule is an asymmetric top.
 Rotational symmetry number  1.
 Rotational temperatures (Kelvin)      0.42623     0.18549     0.13220
 Rotational constants (GHZ):           8.88127     3.86504     2.75452
 Zero-point vibrational energy     233772.2 (Joules/Mol)
                                   55.87291 (Kcal/Mol)
 Warning -- explicit consideration of   8 degrees of freedom as
           vibrations may cause significant error
 Vibrational temperatures:    260.45   280.55   370.19   399.82   463.89
          (Kelvin)            606.69   655.07   853.99  1207.32  1208.18
                             1471.95  1535.80  1645.22  1726.88  1809.51
                             1900.53  2002.69  2066.51  2151.88  2162.08
                             2600.55  4336.26  4417.13  4542.34  4569.86
                             5478.83  5508.44

 Zero-point correction=                           0.089039 (Hartree/Particle)
 Thermal correction to Energy=                    0.095345
 Thermal correction to Enthalpy=                  0.096289
 Thermal correction to Gibbs Free Energy=         0.060023
 Sum of electronic and zero-point Energies=           -268.258808
 Sum of electronic and thermal Energies=              -268.252502
 Sum of electronic and thermal Enthalpies=            -268.251558
 Sum of electronic and thermal Free Energies=         -268.287824

                     E (Thermal)             CV                S
                      KCal/Mol        Cal/Mol-Kelvin    Cal/Mol-Kelvin
 Total                   59.830             21.560             76.328
 Electronic               0.000              0.000              0.000
 Translational            0.889              2.981             38.822
 Rotational               0.889              2.981             25.633
 Vibrational             58.052             15.599             11.873
 Vibration     1          0.630              1.866              2.318
 Vibration     2          0.636              1.847              2.180
 Vibration     3          0.667              1.750              1.680
 Vibration     4          0.679              1.714              1.547
 Vibration     5          0.707              1.631              1.298
 Vibration     6          0.784              1.423              0.886
 Vibration     7          0.814              1.349              0.780
 Vibration     8          0.951              1.046              0.461

 Normal termination of Gaussian 09 at Thu Sep  8 14:46:55 2022.
