 Gaussian 09, Revision E.01,
 Gaussian 09:  ES64L-G09RevE.01 30-Nov-2015

 --------------------------------
 #P OPT=calcfc Freq B3LYP/6-31G**
 --------------------------------

 --------
 Frag_411
 --------
 Symbolic Z-matrix:
 Charge =  0 Multiplicity = 1

 SCF Done:  E(RB3LYP) =  -316.001782797     A.U. after   14 cycles
 SCF Done:  E(RB3LYP) =  -316.022190652     A.U. after   13 cycles
 SCF Done:  E(RB3LYP) =  -316.021972982     A.U. after   12 cycles
 SCF Done:  E(RB3LYP) =  -316.022459989     A.U. after   10 cycles
 SCF Done:  E(RB3LYP) =  -316.023954629     A.U. after   13 cycles
 SCF Done:  E(RB3LYP) =  -316.025230014     A.U. after   12 cycles
 SCF Done:  E(RB3LYP) =  -316.022624378     A.U. after   13 cycles
 SCF Done:  E(RB3LYP) =  -316.025633617     A.U. after    9 cycles
 SCF Done:  E(RB3LYP) =  -316.026105403     A.U. after   12 cycles
 SCF Done:  E(RB3LYP) =  -316.026271029     A.U. after   11 cycles
 SCF Done:  E(RB3LYP) =  -316.026248805     A.U. after   10 cycles
 SCF Done:  E(RB3LYP) =  -316.026308131     A.U. after   11 cycles
 SCF Done:  E(RB3LYP) =  -316.026311638     A.U. after    8 cycles
 SCF Done:  E(RB3LYP) =  -316.026312174     A.U. after    8 cycles
 SCF Done:  E(RB3LYP) =  -316.026312364     A.U. after    7 cycles
 Optimization completed.
    -- Stationary point found.
 Normal termination of Gaussian 09 at Fri Sep 10 19:02:17 2021.

 ----------------------------------------------------------------------
 #P Geom=AllCheck Guess=TCheck SCRF=Check GenChk RB3LYP/6-31G(d,p) Freq
 ----------------------------------------------------------------------

 Structure from the checkpoint file:  "/public/home/users/caep010/.cache/gau_scr/Gau-135839.chk"
 --------
 Frag_411
 --------
 Charge =  0 Multiplicity = 1

                         Standard orientation:
 ---------------------------------------------------------------------
 Center     Atomic      Atomic             Coordinates (Angstroms)
 Number     Number       Type             X           Y           Z
 ---------------------------------------------------------------------
      1          7           0        1.166284   -1.334784    0.152785
      2          6           0        0.747980   -0.136000   -0.052950
      3          7           0        1.491323    1.024174   -0.164344
      4          7           0       -0.632607    0.056891   -0.290062
      5          7           0       -1.463169   -1.058517    0.017712
      6          7           0       -1.134834    1.292894    0.203283
      7          1           0        2.182521   -1.361121    0.222851
      8          1           0        2.387045    1.001838    0.299938
      9          1           0        0.945067    1.862985   -0.006286
     10          1           0       -1.664457   -1.524736   -0.866129
     11          1           0       -0.871297   -1.714666    0.537158
     12          1           0       -1.566313    1.116244    1.114135
     13          1           0       -1.889432    1.570854   -0.419593
 ---------------------------------------------------------------------

 SCF Done:  E(RB3LYP) =  -316.026312364     A.U. after    1 cycles

 The electronic state is 1-A.
 Alpha  occ. eigenvalues --  -14.38987 -14.35723 -14.33806 -14.33779 -14.28215
 Alpha  occ. eigenvalues --  -10.27505  -1.02540  -0.92448  -0.87338  -0.83106
 Alpha  occ. eigenvalues --   -0.73488  -0.57855  -0.53279  -0.52201  -0.50743
 Alpha  occ. eigenvalues --   -0.47606  -0.45640  -0.44003  -0.37175  -0.29510
 Alpha  occ. eigenvalues --   -0.27976  -0.25682  -0.23965  -0.21930
 Alpha virt. eigenvalues --    0.05183   0.07807   0.10061   0.11548   0.14668
 Alpha virt. eigenvalues --    0.15153   0.16315   0.18749   0.19874   0.23125
 Alpha virt. eigenvalues --    0.29294   0.33570   0.46928   0.55542   0.58954

 Mulliken charges:
               1
     1  N   -0.634373
     2  C    0.638592
     3  N   -0.618811
     4  N   -0.276690
     5  N   -0.457500
     6  N   -0.452001
     7  H    0.211580
     8  H    0.255468
     9  H    0.282547
    10  H    0.262812
    11  H    0.272593
    12  H    0.250314
    13  H    0.265468
 Sum of Mulliken charges =  -0.00000

 Dipole moment (field-independent basis, Debye):
    X=              0.0691    Y=              1.7927    Z=              0.7392  Tot=              1.9403
 Quadrupole moment (field-independent basis, Debye-Ang):
   XX=            -29.6987   YY=            -35.9338   ZZ=            -36.2811
   XY=              0.4543   XZ=              3.3463   YZ=              2.1679

  Exact polarizability:  54.964  -2.486  54.691   2.215  -0.816  28.839
 Approx polarizability:  71.752  -5.324  83.518   4.013  -4.423  42.367

                      1                      2                      3
                      A                      A                      A
 Frequencies --    122.1224               231.1868               294.8312
 Red. masses --      4.3559                 1.3696                 1.6393
 Frc consts  --      0.0383                 0.0431                 0.0840
 IR Inten    --      2.9374                14.2983                69.4546

                      4                      5                      6
                      A                      A                      A
 Frequencies --    349.7728               370.2924               425.5563
 Red. masses --      3.6420                 1.2340                 1.1188
 Frc consts  --      0.2625                 0.0997                 0.1194
 IR Inten    --     19.0031                 8.5987                71.2594

                      7                      8                      9
                      A                      A                      A
 Frequencies --    458.2324               528.4627               588.8240
 Red. masses --      3.0536                 2.7892                 3.8877
 Frc consts  --      0.3778                 0.4589                 0.7942
 IR Inten    --     13.8579                15.4791                45.9633

                     10                     11                     12
                      A                      A                      A
 Frequencies --    641.8185               745.4649               765.9758
 Red. masses --      1.4155                 4.7847                 1.7431
 Frc consts  --      0.3435                 1.5666                 0.6026
 IR Inten    --    174.2296                56.5619                63.3550

                     13                     14                     15
                      A                      A                      A
 Frequencies --    781.5821               948.6361               995.6907
 Red. masses --      2.1599                 2.1010                 2.0308
 Frc consts  --      0.7774                 1.1140                 1.1862
 IR Inten    --     53.0271               153.3308                36.6992

                     16                     17                     18
                      A                      A                      A
 Frequencies --   1105.2975              1128.4253              1202.3919
 Red. masses --      2.5079                 1.2058                 1.9276
 Frc consts  --      1.8052                 0.9046                 1.6420
 IR Inten    --     19.6490                92.3236                43.2410

                     19                     20                     21
                      A                      A                      A
 Frequencies --   1279.7827              1321.1321              1364.6035
 Red. masses --      2.0935                 1.1211                 1.2644
 Frc consts  --      2.0202                 1.1529                 1.3872
 IR Inten    --     41.7850                 6.8661                18.1104

                     22                     23                     24
                      A                      A                      A
 Frequencies --   1461.0140              1623.7693              1700.6090
 Red. masses --      2.7608                 1.2260                 1.1901
 Frc consts  --      3.4722                 1.9045                 2.0279
 IR Inten    --     93.5387               128.0734                76.2839

                     25                     26                     27
                      A                      A                      A
 Frequencies --   1704.6211              1725.7880              3410.3487
 Red. masses --      1.1416                 3.5223                 1.0535
 Frc consts  --      1.9545                 6.1808                 7.2188
 IR Inten    --     61.1769               177.9029                27.4895

                     28                     29                     30
                      A                      A                      A
 Frequencies --   3425.7804              3510.0749              3516.7942
 Red. masses --      1.0543                 1.0870                 1.0758
 Frc consts  --      7.2901                 7.8903                 7.8391
 IR Inten    --      5.7148                 4.7085                 3.0929

                     31                     32                     33
                      A                      A                      A
 Frequencies --   3541.7562              3552.2840              3686.8472
 Red. masses --      1.0875                 1.0490                 1.0974
 Frc consts  --      8.0377                 7.7993                 8.7885
 IR Inten    --      0.8741                41.3985                36.4234

 - Thermochemistry -
 -------------------
 Temperature   298.150 Kelvin.  Pressure   1.00000 Atm.
 Atom     1 has atomic number  7 and mass  14.00307

 Molecular mass:    89.07015 amu.
 Principal axes and moments of inertia in atomic units:
                           1         2         3
     Eigenvalues --   355.34316 488.13671 807.16027
           X            0.99987   0.01277   0.00956
           Y           -0.01287   0.99986   0.01093
           Z           -0.00942  -0.01105   0.99989
 This molecule is an asymmetric top.
 Rotational symmetry number  1.
 Rotational temperatures (Kelvin)      0.24375     0.17744     0.10731
 Rotational constants (GHZ):           5.07887     3.69720     2.23591
 Zero-point vibrational energy     290152.9 (Joules/Mol)
                                   69.34820 (Kcal/Mol)
 Warning -- explicit consideration of   9 degrees of freedom as
           vibrations may cause significant error
 Vibrational temperatures:    175.71   332.63   424.20   503.24   532.77
          (Kelvin)            612.28   659.29   760.34   847.19   923.43
                             1072.56  1102.07  1124.52  1364.87  1432.58
                             1590.27  1623.55  1729.97  1841.32  1900.81
                             1963.36  2102.07  2336.24  2446.79  2452.57
                             2483.02  4906.72  4928.93  5050.21  5059.88
                             5095.79  5110.94  5304.54

 Zero-point correction=                           0.110513 (Hartree/Particle)
 Thermal correction to Energy=                    0.117191
 Thermal correction to Enthalpy=                  0.118135
 Thermal correction to Gibbs Free Energy=         0.080731
 Sum of electronic and zero-point Energies=           -315.915799
 Sum of electronic and thermal Energies=              -315.909122
 Sum of electronic and thermal Enthalpies=            -315.908178
 Sum of electronic and thermal Free Energies=         -315.945582

                     E (Thermal)             CV                S
                      KCal/Mol        Cal/Mol-Kelvin    Cal/Mol-Kelvin
 Total                   73.538             24.767             78.723
 Electronic               0.000              0.000              0.000
 Translational            0.889              2.981             39.373
 Rotational               0.889              2.981             26.440
 Vibrational             71.761             18.806             12.910
 Vibration     1          0.610              1.931              3.067
 Vibration     2          0.653              1.793              1.870
 Vibration     3          0.689              1.683              1.446
 Vibration     4          0.727              1.576              1.167
 Vibration     5          0.742              1.533              1.079
 Vibration     6          0.787              1.415              0.873
 Vibration     7          0.816              1.343              0.771
 Vibration     8          0.883              1.187              0.591
 Vibration     9          0.946              1.056              0.469

 Optimization completed.
    -- Stationary point found.
 Normal termination of Gaussian 09 at Fri Sep 10 19:02:27 2021.
