 Gaussian 09, Revision E.01,
 Gaussian 09:  ES64L-G09RevE.01 30-Nov-2015

 ----------------------------
 #P OPT Freq B3LYP/6-31G(d,p)
 ----------------------------

 --------
 Frag_938
 --------
 Symbolic Z-matrix:
 Charge =  0 Multiplicity = 1

 SCF Done:  E(RB3LYP) =  -439.489115076     A.U. after   13 cycles
 SCF Done:  E(RB3LYP) =  -439.489138252     A.U. after   10 cycles
 SCF Done:  E(RB3LYP) =  -439.489101664     A.U. after   10 cycles
 SCF Done:  E(RB3LYP) =  -439.489204487     A.U. after   10 cycles
 SCF Done:  E(RB3LYP) =  -439.489207078     A.U. after    7 cycles
 SCF Done:  E(RB3LYP) =  -439.489209056     A.U. after    8 cycles
 SCF Done:  E(RB3LYP) =  -439.489210169     A.U. after    8 cycles
 SCF Done:  E(RB3LYP) =  -439.489210261     A.U. after    7 cycles
 SCF Done:  E(RB3LYP) =  -439.489210329     A.U. after    7 cycles
 Optimization completed.
    -- Stationary point found.
 Normal termination of Gaussian 09 at Thu Sep  8 15:21:19 2022.

 ----------------------------------------------------------------------
 #P Geom=AllCheck Guess=TCheck SCRF=Check GenChk RB3LYP/6-31G(d,p) Freq
 ----------------------------------------------------------------------

 Structure from the checkpoint file:  "B3LYP6-31Gdp.Frag_938.chk"
 --------
 Frag_938
 --------
 Charge =  0 Multiplicity = 1

                         Standard orientation:
 ---------------------------------------------------------------------
 Center     Atomic      Atomic             Coordinates (Angstroms)
 Number     Number       Type             X           Y           Z
 ---------------------------------------------------------------------
      1          6           0        1.405022    1.269415   -0.483494
      2          6           0        0.771985   -0.000463    0.086868
      3          7           0        1.122402   -0.149029    1.475128
      4          8           0        1.170546   -1.132918   -0.738120
      5          6           0       -0.786106    0.000364   -0.049910
      6          6           0       -1.466283    1.240288    0.520534
      7          8           0       -1.207329   -1.164688    0.655831
      8          8           0       -1.138804   -0.092991   -1.407003
      9          1           0        1.161608    2.140554    0.126453
     10          1           0        1.061991    1.437187   -1.506619
     11          1           0        2.498363    1.169361   -0.490670
     12          1           0        0.700861   -1.003219    1.829607
     13          1           0        2.130855   -0.220284    1.582988
     14          1           0        2.069546   -0.970167   -1.051252
     15          1           0       -1.183912    1.371217    1.566134
     16          1           0       -1.204179    2.136584   -0.045589
     17          1           0       -2.551355    1.111220    0.453940
     18          1           0       -2.141725   -1.286171    0.439448
     19          1           0       -0.541876   -0.775920   -1.759983
 ---------------------------------------------------------------------

 SCF Done:  E(RB3LYP) =  -439.489210329     A.U. after    1 cycles

 The electronic state is 1-A.
 Alpha  occ. eigenvalues --  -19.14838 -19.13944 -19.13669 -14.31129 -10.28026
 Alpha  occ. eigenvalues --  -10.26633 -10.18298 -10.16864  -1.06011  -1.01605
 Alpha  occ. eigenvalues --   -0.98096  -0.87744  -0.75096  -0.71706  -0.65108
 Alpha  occ. eigenvalues --   -0.56406  -0.53583  -0.50896  -0.48723  -0.46436
 Alpha  occ. eigenvalues --   -0.44022  -0.42224  -0.40786  -0.39589  -0.37944
 Alpha  occ. eigenvalues --   -0.37874  -0.36966  -0.34549  -0.31444  -0.30133
 Alpha  occ. eigenvalues --   -0.28749  -0.26388  -0.24239
 Alpha virt. eigenvalues --    0.05924   0.09394   0.11018   0.13064   0.13864
 Alpha virt. eigenvalues --    0.14726   0.16194   0.16779   0.18018   0.18954
 Alpha virt. eigenvalues --    0.19779   0.22512   0.23304   0.25791   0.26117

 Mulliken charges:
               1
     1  C   -0.331630
     2  C    0.326534
     3  N   -0.578185
     4  O   -0.566493
     5  C    0.486880
     6  C   -0.311724
     7  O   -0.556704
     8  O   -0.558463
     9  H    0.129587
    10  H    0.126249
    11  H    0.085019
    12  H    0.267286
    13  H    0.226809
    14  H    0.298187
    15  H    0.130818
    16  H    0.109217
    17  H    0.097345
    18  H    0.303926
    19  H    0.315343
 Sum of Mulliken charges =  -0.00000

 Dipole moment (field-independent basis, Debye):
    X=              1.7278    Y=              0.2256    Z=             -0.2457  Tot=              1.7597
 Quadrupole moment (field-independent basis, Debye-Ang):
   XX=            -39.6416   YY=            -49.8948   ZZ=            -50.4431
   XY=              0.5567   XZ=             -2.7993   YZ=             -0.1179

  Exact polarizability:  66.728   0.679  56.287  -1.016  -0.255  57.786
 Approx polarizability:  86.996   1.199  78.223   0.029  -0.086  83.120

                      1                      2                      3
                      A                      A                      A
 Frequencies --    106.9224               219.8979               223.8824
 Red. masses --      4.0510                 1.1731                 1.1440
 Frc consts  --      0.0273                 0.0334                 0.0338
 IR Inten    --      5.0601                26.8473                71.0959

                      4                      5                      6
                      A                      A                      A
 Frequencies --    231.4996               244.9477               273.6787
 Red. masses --      1.0707                 1.8441                 2.7369
 Frc consts  --      0.0338                 0.0652                 0.1208
 IR Inten    --     71.6365                 2.8001                 1.3354

                      7                      8                      9
                      A                      A                      A
 Frequencies --    293.3030               346.7459               367.6165
 Red. masses --      1.4301                 1.8219                 2.7223
 Frc consts  --      0.0725                 0.1291                 0.2168
 IR Inten    --      1.1681                13.3730                25.2714

                     10                     11                     12
                      A                      A                      A
 Frequencies --    373.0667               397.2992               417.8853
 Red. masses --      3.0632                 1.6409                 3.0789
 Frc consts  --      0.2512                 0.1526                 0.3168
 IR Inten    --      9.6802                22.6982                 6.6264

                     13                     14                     15
                      A                      A                      A
 Frequencies --    457.4431               539.6642               547.7524
 Red. masses --      3.0229                 2.0595                 3.9126
 Frc consts  --      0.3727                 0.3534                 0.6916
 IR Inten    --      1.2458                15.0452                11.9625

                     16                     17                     18
                      A                      A                      A
 Frequencies --    575.4863               626.2674               705.0338
 Red. masses --      3.6702                 1.4201                 3.0890
 Frc consts  --      0.7162                 0.3282                 0.9047
 IR Inten    --     49.9703               144.8347                14.9531

                     19                     20                     21
                      A                      A                      A
 Frequencies --    846.7512               872.3360               935.2462
 Red. masses --      2.8117                 2.0174                 2.0268
 Frc consts  --      1.1878                 0.9045                 1.0445
 IR Inten    --     12.5498               177.2409                53.5824

                     22                     23                     24
                      A                      A                      A
 Frequencies --    956.0945               965.3210              1036.8226
 Red. masses --      2.0390                 1.9256                 1.4264
 Frc consts  --      1.0982                 1.0572                 0.9035
 IR Inten    --     18.2231                24.1340                 4.8135

                     25                     26                     27
                      A                      A                      A
 Frequencies --   1076.1706              1105.2897              1154.0810
 Red. masses --      1.7577                 1.6736                 2.1434
 Frc consts  --      1.1994                 1.2046                 1.6820
 IR Inten    --     74.3130               206.1213                88.7418

                     28                     29                     30
                      A                      A                      A
 Frequencies --   1203.7305              1216.8536              1266.4942
 Red. masses --      2.8745                 1.3559                 3.2876
 Frc consts  --      2.4540                 1.1830                 3.1069
 IR Inten    --     88.6532                26.6607                58.8032

                     31                     32                     33
                      A                      A                      A
 Frequencies --   1349.1078              1393.7437              1420.1559
 Red. masses --      1.5894                 1.2908                 1.3081
 Frc consts  --      1.7044                 1.4774                 1.5544
 IR Inten    --      3.0988                34.2604                 6.0353

                     34                     35                     36
                      A                      A                      A
 Frequencies --   1433.2223              1453.4563              1496.4732
 Red. masses --      1.8278                 1.6788                 1.0636
 Frc consts  --      2.2121                 2.0895                 1.4034
 IR Inten    --     17.6497                90.2475                 2.3825

                     37                     38                     39
                      A                      A                      A
 Frequencies --   1500.0993              1510.9707              1531.2360
 Red. masses --      1.0527                 1.0550                 1.1161
 Frc consts  --      1.3957                 1.4191                 1.5418
 IR Inten    --      1.4173                 4.5670                 5.2729

                     40                     41                     42
                      A                      A                      A
 Frequencies --   1660.0837              3037.8610              3061.6148
 Red. masses --      1.1019                 1.0482                 1.0386
 Frc consts  --      1.7892                 5.6995                 5.7358
 IR Inten    --     52.8640                25.5936                13.2892

                     43                     44                     45
                      A                      A                      A
 Frequencies --   3122.5728              3133.7544              3163.8259
 Red. masses --      1.0881                 1.0982                 1.1038
 Frc consts  --      6.2508                 6.3542                 6.5096
 IR Inten    --     19.5209                21.1653                15.2769

                     46                     47                     48
                      A                      A                      A
 Frequencies --   3166.6713              3503.6350              3598.1507
 Red. masses --      1.1039                 1.0491                 1.0930
 Frc consts  --      6.5222                 7.5878                 8.3375
 IR Inten    --      6.8994                 5.4177                 5.8856

                     49                     50                     51
                      A                      A                      A
 Frequencies --   3714.0566              3813.6073              3818.8170
 Red. masses --      1.0639                 1.0658                 1.0668
 Frc consts  --      8.6463                 9.1330                 9.1660
 IR Inten    --     63.1230                20.6233                14.8122

 - Thermochemistry -
 -------------------
 Temperature   298.150 Kelvin.  Pressure   1.00000 Atm.
 Atom     1 has atomic number  6 and mass  12.00000

 Molecular mass:   121.07389 amu.
 Principal axes and moments of inertia in atomic units:
                           1         2         3
     Eigenvalues --   713.13721 998.372541002.39241
           X            0.99926  -0.00820  -0.03752
           Y            0.00033   0.97871  -0.20523
           Z            0.03840   0.20506   0.97799
 This molecule is an asymmetric top.
 Rotational symmetry number  1.
 Warning -- assumption of classical behavior for rotation
           may cause significant error
 Rotational temperatures (Kelvin)      0.12145     0.08676     0.08641
 Rotational constants (GHZ):           2.53071     1.80768     1.80043
 Zero-point vibrational energy     427465.8 (Joules/Mol)
                                  102.16677 (Kcal/Mol)
 Warning -- explicit consideration of  16 degrees of freedom as
           vibrations may cause significant error
 Vibrational temperatures:    153.84   316.38   322.12   333.08   352.42
          (Kelvin)            393.76   422.00   498.89   528.92   536.76
                              571.62   601.24   658.16   776.46   788.09
                              828.00   901.06  1014.39  1218.28  1255.10
                             1345.61  1375.60  1388.88  1491.75  1548.37
                             1590.26  1660.46  1731.90  1750.78  1822.20
                             1941.06  2005.28  2043.28  2062.08  2091.20
                             2153.09  2158.31  2173.95  2203.10  2388.49
                             4370.80  4404.98  4492.68  4508.77  4552.03
                             4556.13  5040.94  5176.93  5343.69  5486.92
                             5494.42

 Zero-point correction=                           0.162813 (Hartree/Particle)
 Thermal correction to Energy=                    0.172500
 Thermal correction to Enthalpy=                  0.173444
 Thermal correction to Gibbs Free Energy=         0.129876
 Sum of electronic and zero-point Energies=           -439.326397
 Sum of electronic and thermal Energies=              -439.316711
 Sum of electronic and thermal Enthalpies=            -439.315766
 Sum of electronic and thermal Free Energies=         -439.359334

                     E (Thermal)             CV                S
                      KCal/Mol        Cal/Mol-Kelvin    Cal/Mol-Kelvin
 Total                  108.245             37.556             91.696
 Electronic               0.000              0.000              0.000
 Translational            0.889              2.981             40.288
 Rotational               0.889              2.981             28.058
 Vibrational            106.468             31.595             23.350
 Vibration     1          0.606              1.944              3.324
 Vibration     2          0.647              1.811              1.960
 Vibration     3          0.649              1.805              1.927
 Vibration     4          0.653              1.793              1.867
 Vibration     5          0.660              1.771              1.767
 Vibration     6          0.676              1.722              1.573
 Vibration     7          0.688              1.686              1.455
 Vibration     8          0.725              1.582              1.181
 Vibration     9          0.740              1.539              1.090
 Vibration    10          0.744              1.527              1.067
 Vibration    11          0.764              1.476              0.973
 Vibration    12          0.781              1.431              0.899
 Vibration    13          0.816              1.344              0.774
 Vibration    14          0.895              1.162              0.566
 Vibration    15          0.903              1.145              0.549
 Vibration    16          0.932              1.084              0.494

 Normal termination of Gaussian 09 at Thu Sep  8 15:21:40 2022.
