 Gaussian 09, Revision E.01,
 Gaussian 09:  ES64L-G09RevE.01 30-Nov-2015

 ----------------------------
 #P OPT Freq B3LYP/6-31G(d,p)
 ----------------------------

 ---------
 Frag_1118
 ---------
 Symbolic Z-matrix:
 Charge =  0 Multiplicity = 1

 SCF Done:  E(RB3LYP) =  -306.407321375     A.U. after   13 cycles
 SCF Done:  E(RB3LYP) =  -306.407443612     A.U. after   11 cycles
 SCF Done:  E(RB3LYP) =  -306.406586465     A.U. after   12 cycles
 SCF Done:  E(RB3LYP) =  -306.407464660     A.U. after    9 cycles
 SCF Done:  E(RB3LYP) =  -306.407420498     A.U. after   11 cycles
 SCF Done:  E(RB3LYP) =  -306.407488733     A.U. after   10 cycles
 SCF Done:  E(RB3LYP) =  -306.407498437     A.U. after   11 cycles
 SCF Done:  E(RB3LYP) =  -306.407510364     A.U. after   11 cycles
 SCF Done:  E(RB3LYP) =  -306.407517761     A.U. after    8 cycles
 SCF Done:  E(RB3LYP) =  -306.407522535     A.U. after   10 cycles
 SCF Done:  E(RB3LYP) =  -306.407526709     A.U. after   10 cycles
 SCF Done:  E(RB3LYP) =  -306.407529427     A.U. after    8 cycles
 SCF Done:  E(RB3LYP) =  -306.407530267     A.U. after    8 cycles
 Optimization completed.
    -- Stationary point found.
 Normal termination of Gaussian 09 at Thu Sep  8 14:47:07 2022.

 ----------------------------------------------------------------------
 #P Geom=AllCheck Guess=TCheck SCRF=Check GenChk RB3LYP/6-31G(d,p) Freq
 ----------------------------------------------------------------------

 Structure from the checkpoint file:  "B3LYP6-31Gdp.Frag_1118.chk"
 ---------
 Frag_1118
 ---------
 Charge =  0 Multiplicity = 1

                         Standard orientation:
 ---------------------------------------------------------------------
 Center     Atomic      Atomic             Coordinates (Angstroms)
 Number     Number       Type             X           Y           Z
 ---------------------------------------------------------------------
      1          6           0        2.356217    0.125511   -0.047417
      2          6           0        1.150008    0.058004   -0.043794
      3          6           0       -0.333522   -0.033038   -0.012423
      4          6           0       -0.980961    1.349752    0.053939
      5          8           0       -0.831460   -0.656998   -1.164743
      6          8           0       -0.728688   -0.842753    1.096209
      7          1           0        3.420410    0.184396   -0.064707
      8          1           0       -0.721549    1.936653   -0.830176
      9          1           0       -2.063967    1.215413    0.097258
     10          1           0       -0.644831    1.883837    0.946057
     11          1           0       -0.521657   -1.574269   -1.138553
     12          1           0       -0.137669   -0.649396    1.836571
 ---------------------------------------------------------------------

 SCF Done:  E(RB3LYP) =  -306.407530267     A.U. after    1 cycles

 The electronic state is 1-A.
 Alpha  occ. eigenvalues --  -19.15644 -19.15615 -10.31634 -10.19623 -10.19334
 Alpha  occ. eigenvalues --  -10.18091  -1.07031  -0.99874  -0.77597  -0.73435
 Alpha  occ. eigenvalues --   -0.63478  -0.57109  -0.53432  -0.51480  -0.45277
 Alpha  occ. eigenvalues --   -0.40422  -0.39351  -0.37755  -0.35692  -0.31982
 Alpha  occ. eigenvalues --   -0.28404  -0.27954  -0.27713
 Alpha virt. eigenvalues --    0.03128   0.03628   0.07702   0.11483   0.11712
 Alpha virt. eigenvalues --    0.14674   0.16458   0.17637   0.21910   0.25887
 Alpha virt. eigenvalues --    0.26617   0.27940   0.43095   0.51372   0.53036

 Mulliken charges:
               1
     1  C   -0.436628
     2  C    0.262330
     3  C    0.376294
     4  C   -0.300187
     5  O   -0.509839
     6  O   -0.538219
     7  H    0.163458
     8  H    0.124287
     9  H    0.130542
    10  H    0.103274
    11  H    0.314030
    12  H    0.310658
 Sum of Mulliken charges =  -0.00000

 Dipole moment (field-independent basis, Debye):
    X=              1.7987    Y=              0.2428    Z=              1.0956  Tot=              2.1201
 Quadrupole moment (field-independent basis, Debye-Ang):
   XX=            -32.7082   YY=            -33.3172   ZZ=            -34.5014
   XY=             -1.5435   XZ=              0.3552   YZ=              1.6015

  Exact polarizability:  61.157   0.641  37.451   0.763   0.518  37.185
 Approx polarizability:  95.404   4.693  49.128   2.246   0.061  52.613

                      1                      2                      3
                      A                      A                      A
 Frequencies --    170.2615               172.3810               207.0463
 Red. masses --      2.7626                 1.9899                 1.5693
 Frc consts  --      0.0472                 0.0348                 0.0396
 IR Inten    --     11.4497                16.0990                64.8105

                      4                      5                      6
                      A                      A                      A
 Frequencies --    252.6624               340.3489               376.9225
 Red. masses --      1.0947                 1.2271                 3.2535
 Frc consts  --      0.0412                 0.0837                 0.2723
 IR Inten    --      6.6568               118.5226                 2.6752

                      7                      8                      9
                      A                      A                      A
 Frequencies --    415.5478               502.8492               578.8631
 Red. masses --      3.0813                 4.5486                 5.5115
 Frc consts  --      0.3135                 0.6777                 1.0881
 IR Inten    --      5.9292                32.4074                10.8834

                     10                     11                     12
                      A                      A                      A
 Frequencies --    588.9469               641.9126               655.0202
 Red. masses --      5.4167                 1.2142                 1.2241
 Frc consts  --      1.1070                 0.2948                 0.3094
 IR Inten    --      9.6437                46.2633                40.1728

                     13                     14                     15
                      A                      A                      A
 Frequencies --    739.3714               932.1378               967.6152
 Red. masses --      4.9822                 2.1186                 2.1974
 Frc consts  --      1.6047                 1.0846                 1.2122
 IR Inten    --      7.0250                23.8102                68.3594

                     16                     17                     18
                      A                      A                      A
 Frequencies --   1071.0119              1131.4800              1186.3785
 Red. masses --      2.4108                 1.6316                 2.8101
 Frc consts  --      1.6293                 1.2307                 2.3303
 IR Inten    --     96.6759                95.9046               116.8140

                     19                     20                     21
                      A                      A                      A
 Frequencies --   1343.6041              1379.1581              1424.2244
 Red. masses --      1.7915                 1.3940                 1.4342
 Frc consts  --      1.9055                 1.5622                 1.7140
 IR Inten    --    180.9916                61.1474                31.4821

                     22                     23                     24
                      A                      A                      A
 Frequencies --   1493.2394              1502.3156              2226.0510
 Red. masses --      1.0477                 1.0600                 5.9093
 Frc consts  --      1.3764                 1.4095                17.2527
 IR Inten    --      0.7661                 2.0660                 5.5674

                     25                     26                     27
                      A                      A                      A
 Frequencies --   3066.0212              3148.9566              3157.9654
 Red. masses --      1.0339                 1.1039                 1.1045
 Frc consts  --      5.7262                 6.4492                 6.4898
 IR Inten    --      7.4551                16.6554                12.3198

                     28                     29                     30
                      A                      A                      A
 Frequencies --   3485.5999              3794.1333              3817.5273
 Red. masses --      1.1611                 1.0655                 1.0661
 Frc consts  --      8.3116                 9.0370                 9.1540
 IR Inten    --     56.6393                26.7168                24.0706

 - Thermochemistry -
 -------------------
 Temperature   298.150 Kelvin.  Pressure   1.00000 Atm.
 Atom     1 has atomic number  6 and mass  12.00000

 Molecular mass:    86.03678 amu.
 Principal axes and moments of inertia in atomic units:
                           1         2         3
     Eigenvalues --   354.33850 641.15440 658.79363
           X            0.99901  -0.04347  -0.00893
           Y            0.04437   0.98149   0.18630
           Z            0.00067  -0.18651   0.98245
 This molecule is an asymmetric top.
 Rotational symmetry number  1.
 Rotational temperatures (Kelvin)      0.24444     0.13509     0.13147
 Rotational constants (GHZ):           5.09327     2.81483     2.73946
 Zero-point vibrational energy     243856.1 (Joules/Mol)
                                   58.28300 (Kcal/Mol)
 Warning -- explicit consideration of  10 degrees of freedom as
           vibrations may cause significant error
 Vibrational temperatures:    244.97   248.02   297.89   363.52   489.69
          (Kelvin)            542.31   597.88   723.49   832.85   847.36
                              923.57   942.43  1063.79  1341.14  1392.18
                             1540.95  1627.95  1706.93  1933.14  1984.30
                             2049.14  2148.44  2161.49  3202.79  4411.32
                             4530.64  4543.60  5014.99  5458.90  5492.56

 Zero-point correction=                           0.092880 (Hartree/Particle)
 Thermal correction to Energy=                    0.100078
 Thermal correction to Enthalpy=                  0.101022
 Thermal correction to Gibbs Free Energy=         0.062695
 Sum of electronic and zero-point Energies=           -306.314650
 Sum of electronic and thermal Energies=              -306.307452
 Sum of electronic and thermal Enthalpies=            -306.306508
 Sum of electronic and thermal Free Energies=         -306.344836

                     E (Thermal)             CV                S
                      KCal/Mol        Cal/Mol-Kelvin    Cal/Mol-Kelvin
 Total                   62.800             25.991             80.667
 Electronic               0.000              0.000              0.000
 Translational            0.889              2.981             39.270
 Rotational               0.889              2.981             26.506
 Vibrational             61.022             20.029             14.891
 Vibration     1          0.625              1.879              2.433
 Vibration     2          0.626              1.876              2.409
 Vibration     3          0.641              1.830              2.070
 Vibration     4          0.664              1.758              1.712
 Vibration     5          0.720              1.595              1.211
 Vibration     6          0.747              1.519              1.051
 Vibration     7          0.779              1.436              0.907
 Vibration     8          0.858              1.244              0.651
 Vibration     9          0.935              1.077              0.487
 Vibration    10          0.946              1.055              0.469

 Optimization completed.
    -- Stationary point found.
 Normal termination of Gaussian 09 at Thu Sep  8 14:47:17 2022.
