 Gaussian 09, Revision E.01,
 Gaussian 09:  ES64L-G09RevE.01 30-Nov-2015

 ----------------------------
 #P OPT Freq B3LYP/6-31G(d,p)
 ----------------------------

 --------
 Frag_911
 --------
 Symbolic Z-matrix:
 Charge =  0 Multiplicity = 1

 SCF Done:  E(RB3LYP) =  -364.259597184     A.U. after   12 cycles
 SCF Done:  E(RB3LYP) =  -364.259640142     A.U. after   10 cycles
 SCF Done:  E(RB3LYP) =  -364.259588592     A.U. after   10 cycles
 SCF Done:  E(RB3LYP) =  -364.259660205     A.U. after   10 cycles
 SCF Done:  E(RB3LYP) =  -364.259662048     A.U. after    7 cycles
 SCF Done:  E(RB3LYP) =  -364.259663294     A.U. after    8 cycles
 SCF Done:  E(RB3LYP) =  -364.259663406     A.U. after    7 cycles
 SCF Done:  E(RB3LYP) =  -364.259663455     A.U. after    6 cycles
 Optimization completed.
    -- Stationary point found.
 Normal termination of Gaussian 09 at Thu Sep  8 15:13:20 2022.

 ----------------------------------------------------------------------
 #P Geom=AllCheck Guess=TCheck SCRF=Check GenChk RB3LYP/6-31G(d,p) Freq
 ----------------------------------------------------------------------

 Structure from the checkpoint file:  "B3LYP6-31Gdp.Frag_911.chk"
 --------
 Frag_911
 --------
 Charge =  0 Multiplicity = 1

                         Standard orientation:
 ---------------------------------------------------------------------
 Center     Atomic      Atomic             Coordinates (Angstroms)
 Number     Number       Type             X           Y           Z
 ---------------------------------------------------------------------
      1          6           0       -1.530854    0.999749   -0.610136
      2          6           0       -0.628251   -0.086711   -0.026053
      3          6           0       -0.794425   -0.166265    1.504498
      4          8           0       -1.030162   -1.322883   -0.611998
      5          6           0        0.849787    0.160713   -0.438917
      6          7           0        1.646427   -1.007959   -0.087702
      7          8           0        1.366192    1.402204    0.028507
      8          1           0       -1.450275    1.006171   -1.700932
      9          1           0       -2.573794    0.799018   -0.348651
     10          1           0       -1.251378    1.986622   -0.233568
     11          1           0       -0.532061    0.772394    2.008343
     12          1           0       -1.840123   -0.382346    1.737187
     13          1           0       -0.193581   -0.975382    1.933810
     14          1           0       -0.250465   -1.899518   -0.535673
     15          1           0        0.872379    0.242414   -1.529825
     16          1           0        1.808367   -1.046474    0.916483
     17          1           0        2.558818   -0.954565   -0.531480
     18          1           0        1.261343    1.427893    0.989796
 ---------------------------------------------------------------------

 SCF Done:  E(RB3LYP) =  -364.259663455     A.U. after    1 cycles

 The electronic state is 1-A.
 Alpha  occ. eigenvalues --  -19.15071 -19.12411 -14.33372 -10.26061 -10.23710
 Alpha  occ. eigenvalues --  -10.18058 -10.16658  -1.03255  -1.00301  -0.88446
 Alpha  occ. eigenvalues --   -0.77053  -0.69267  -0.66263  -0.56823  -0.53251
 Alpha  occ. eigenvalues --   -0.50213  -0.47826  -0.45594  -0.42860  -0.41555
 Alpha  occ. eigenvalues --   -0.38463  -0.37673  -0.36832  -0.36219  -0.34437
 Alpha  occ. eigenvalues --   -0.33077  -0.29237  -0.26016  -0.25092
 Alpha virt. eigenvalues --    0.05444   0.08852   0.11327   0.12256   0.12841
 Alpha virt. eigenvalues --    0.15417   0.17386   0.17564   0.18103   0.19405
 Alpha virt. eigenvalues --    0.21084   0.21903   0.24851   0.25660   0.26038

 Mulliken charges:
               1
     1  C   -0.296270
     2  C    0.261824
     3  C   -0.334222
     4  O   -0.562926
     5  C    0.237843
     6  N   -0.612818
     7  O   -0.533369
     8  H    0.108471
     9  H    0.107103
    10  H    0.104301
    11  H    0.083009
    12  H    0.126456
    13  H    0.094052
    14  H    0.313266
    15  H    0.114338
    16  H    0.237506
    17  H    0.255348
    18  H    0.296088
 Sum of Mulliken charges =  -0.00000

 Dipole moment (field-independent basis, Debye):
    X=              1.7880    Y=              0.0859    Z=              1.9419  Tot=              2.6411
 Quadrupole moment (field-independent basis, Debye-Ang):
   XX=            -42.7541   YY=            -47.3143   ZZ=            -41.1243
   XY=             -4.9606   XZ=              0.1470   YZ=              0.3160

  Exact polarizability:  59.545  -2.892  55.589  -0.344   0.229  56.266
 Approx polarizability:  77.545  -0.469  79.643   0.246   2.314  78.760

                      1                      2                      3
                      A                      A                      A
 Frequencies --    100.2969               212.2686               235.3037
 Red. masses --      3.3163                 1.0637                 1.4204
 Frc consts  --      0.0197                 0.0282                 0.0463
 IR Inten    --      2.5166                 0.6629                 9.5792

                      4                      5                      6
                      A                      A                      A
 Frequencies --    254.9702               272.3691               284.0737
 Red. masses --      2.0089                 1.2697                 1.9839
 Frc consts  --      0.0769                 0.0555                 0.0943
 IR Inten    --      4.3148                43.0540                 6.1191

                      7                      8                      9
                      A                      A                      A
 Frequencies --    345.0077               361.9828               366.1978
 Red. masses --      1.5010                 2.4799                 1.9337
 Frc consts  --      0.1053                 0.1915                 0.1528
 IR Inten    --     16.2865                20.6549                37.3200

                     10                     11                     12
                      A                      A                      A
 Frequencies --    433.1009               492.7335               516.7371
 Red. masses --      2.9890                 2.7269                 3.0952
 Frc consts  --      0.3303                 0.3901                 0.4869
 IR Inten    --      7.7308                38.1160                15.8911

                     13                     14                     15
                      A                      A                      A
 Frequencies --    552.6819               605.9736               732.3438
 Red. masses --      1.4539                 1.7730                 2.9977
 Frc consts  --      0.2617                 0.3836                 0.9472
 IR Inten    --     77.1427                57.0920                 8.9344

                     16                     17                     18
                      A                      A                      A
 Frequencies --    866.4751               896.8333               930.8548
 Red. masses --      1.8261                 2.1656                 1.5081
 Frc consts  --      0.8078                 1.0262                 0.7699
 IR Inten    --    107.7106                10.3329                 0.8305

                     19                     20                     21
                      A                      A                      A
 Frequencies --    984.8509              1005.9283              1058.5801
 Red. masses --      2.0564                 1.2989                 4.0846
 Frc consts  --      1.1752                 0.7744                 2.6968
 IR Inten    --     15.7936                 0.6693               235.9072

                     22                     23                     24
                      A                      A                      A
 Frequencies --   1108.1926              1115.1735              1169.2942
 Red. masses --      2.0048                 1.5510                 1.4744
 Frc consts  --      1.4506                 1.1365                 1.1877
 IR Inten    --     34.4825                 8.6052                16.7814

                     25                     26                     27
                      A                      A                      A
 Frequencies --   1220.4473              1254.5700              1301.6721
 Red. masses --      2.4215                 2.5521                 1.6818
 Frc consts  --      2.1251                 2.3666                 1.6789
 IR Inten    --     78.9664                10.8920                 6.7985

                     28                     29                     30
                      A                      A                      A
 Frequencies --   1393.5090              1409.8837              1422.1611
 Red. masses --      1.2602                 1.3174                 1.1586
 Frc consts  --      1.4418                 1.5429                 1.3806
 IR Inten    --     80.8655                24.5467                16.5293

                     31                     32                     33
                      A                      A                      A
 Frequencies --   1435.1722              1438.0110              1490.7098
 Red. masses --      1.2807                 1.5574                 1.0508
 Frc consts  --      1.5542                 1.8975                 1.3759
 IR Inten    --     23.7183                14.2640                 1.8053

                     34                     35                     36
                      A                      A                      A
 Frequencies --   1501.3182              1516.9149              1523.6512
 Red. masses --      1.0513                 1.0952                 1.0569
 Frc consts  --      1.3962                 1.4848                 1.4456
 IR Inten    --      2.1174                 4.5453                 7.5417

                     37                     38                     39
                      A                      A                      A
 Frequencies --   1669.0440              3032.6371              3057.3988
 Red. masses --      1.0935                 1.0398                 1.0354
 Frc consts  --      1.7948                 5.6343                 5.7024
 IR Inten    --     34.7214                24.3303                12.7465

                     40                     41                     42
                      A                      A                      A
 Frequencies --   3093.5279              3100.6990              3128.9035
 Red. masses --      1.0872                 1.0994                 1.1021
 Frc consts  --      6.1299                 6.2279                 6.3571
 IR Inten    --     22.0299                34.2882                11.3467

                     43                     44                     45
                      A                      A                      A
 Frequencies --   3132.4345              3145.2408              3501.1292
 Red. masses --      1.1001                 1.1026                 1.0501
 Frc consts  --      6.3599                 6.4265                 7.5837
 IR Inten    --     30.4433                21.7587                 0.8414

                     46                     47                     48
                      A                      A                      A
 Frequencies --   3588.5017              3705.4650              3798.2403
 Red. masses --      1.0921                 1.0650                 1.0656
 Frc consts  --      8.2858                 8.6157                 9.0573
 IR Inten    --      2.1502                70.1636                 9.2108

 - Thermochemistry -
 -------------------
 Temperature   298.150 Kelvin.  Pressure   1.00000 Atm.
 Atom     1 has atomic number  6 and mass  12.00000

 Molecular mass:   105.07898 amu.
 Principal axes and moments of inertia in atomic units:
                           1         2         3
     Eigenvalues --   568.98305 785.09875 935.19372
           X            0.99253  -0.12192  -0.00360
           Y            0.12167   0.99171  -0.04139
           Z            0.00862   0.04064   0.99914
 This molecule is an asymmetric top.
 Rotational symmetry number  1.
 Warning -- assumption of classical behavior for rotation
           may cause significant error
 Rotational temperatures (Kelvin)      0.15223     0.11032     0.09262
 Rotational constants (GHZ):           3.17187     2.29874     1.92980
 Zero-point vibrational energy     417278.2 (Joules/Mol)
                                   99.73188 (Kcal/Mol)
 Warning -- explicit consideration of  14 degrees of freedom as
           vibrations may cause significant error
 Vibrational temperatures:    144.30   305.41   338.55   366.84   391.88
          (Kelvin)            408.72   496.39   520.81   526.88   623.13
                              708.93   743.47   795.18   871.86  1053.68
                             1246.66  1290.34  1339.29  1416.98  1447.30
                             1523.06  1594.44  1604.48  1682.35  1755.95
                             1805.04  1872.81  2004.95  2028.51  2046.17
                             2064.89  2068.97  2144.80  2160.06  2182.50
                             2192.19  2401.38  4363.28  4398.91  4450.89
                             4461.21  4501.79  4506.87  4525.29  5037.34
                             5163.05  5331.33  5464.81

 Zero-point correction=                           0.158933 (Hartree/Particle)
 Thermal correction to Energy=                    0.167579
 Thermal correction to Enthalpy=                  0.168523
 Thermal correction to Gibbs Free Energy=         0.127013
 Sum of electronic and zero-point Energies=           -364.100731
 Sum of electronic and thermal Energies=              -364.092084
 Sum of electronic and thermal Enthalpies=            -364.091140
 Sum of electronic and thermal Free Energies=         -364.132650

                     E (Thermal)             CV                S
                      KCal/Mol        Cal/Mol-Kelvin    Cal/Mol-Kelvin
 Total                  105.157             32.877             87.365
 Electronic               0.000              0.000              0.000
 Translational            0.889              2.981             39.866
 Rotational               0.889              2.981             27.526
 Vibrational            103.380             26.915             19.973
 Vibration     1          0.604              1.949              3.449
 Vibration     2          0.643              1.822              2.024
 Vibration     3          0.655              1.787              1.838
 Vibration     4          0.665              1.754              1.696
 Vibration     5          0.675              1.724              1.581
 Vibration     6          0.682              1.703              1.509
 Vibration     7          0.723              1.585              1.189
 Vibration     8          0.736              1.551              1.114
 Vibration     9          0.739              1.542              1.096
 Vibration    10          0.794              1.398              0.849
 Vibration    11          0.848              1.266              0.677
 Vibration    12          0.872              1.213              0.618
 Vibration    13          0.908              1.134              0.539
 Vibration    14          0.965              1.019              0.439

 Optimization completed.
    -- Stationary point found.
 Normal termination of Gaussian 09 at Thu Sep  8 15:13:38 2022.
