 Gaussian 09, Revision E.01,
 Gaussian 09:  ES64L-G09RevE.01 30-Nov-2015

 ----------------------------
 #P OPT Freq B3LYP/6-31G(d,p)
 ----------------------------

 --------
 Frag_629
 --------
 Symbolic Z-matrix:
 Charge =  0 Multiplicity = 1

 SCF Done:  E(RB3LYP) =  -340.930919351     A.U. after   13 cycles
 SCF Done:  E(RB3LYP) =  -340.930982486     A.U. after   11 cycles
 SCF Done:  E(RB3LYP) =  -340.930994935     A.U. after    8 cycles
 SCF Done:  E(RB3LYP) =  -340.930997272     A.U. after    8 cycles
 SCF Done:  E(RB3LYP) =  -340.930998101     A.U. after    8 cycles
 SCF Done:  E(RB3LYP) =  -340.930998780     A.U. after    8 cycles
 SCF Done:  E(RB3LYP) =  -340.930999569     A.U. after    8 cycles
 SCF Done:  E(RB3LYP) =  -340.931000129     A.U. after    8 cycles
 Optimization completed.
    -- Stationary point found.
 Normal termination of Gaussian 09 at Thu Sep  8 15:19:39 2022.

 ----------------------------------------------------------------------
 #P Geom=AllCheck Guess=TCheck SCRF=Check GenChk RB3LYP/6-31G(d,p) Freq
 ----------------------------------------------------------------------

 Structure from the checkpoint file:  "B3LYP6-31Gdp.Frag_629.chk"
 --------
 Frag_629
 --------
 Charge =  0 Multiplicity = 1

                         Standard orientation:
 ---------------------------------------------------------------------
 Center     Atomic      Atomic             Coordinates (Angstroms)
 Number     Number       Type             X           Y           Z
 ---------------------------------------------------------------------
      1          6           0       -0.527338    1.477977    0.301205
      2          6           0       -0.418769   -0.014187   -0.010835
      3          7           0       -0.546982   -0.801210    1.191110
      4          8           0       -1.397178   -0.425600   -0.931580
      5          8           0        0.784824   -0.289336   -0.761694
      6          7           0        1.931595    0.004206    0.061294
      7          1           0       -1.466585    1.684594    0.820715
      8          1           0       -0.510058    2.033882   -0.638564
      9          1           0        0.301993    1.809749    0.931227
     10          1           0        0.154951   -0.504540    1.864575
     11          1           0       -0.347462   -1.771666    0.953487
     12          1           0       -2.181211   -0.616907   -0.399611
     13          1           0        2.432643    0.720133   -0.467602
     14          1           0        2.498907   -0.839467   -0.027083
 ---------------------------------------------------------------------

 SCF Done:  E(RB3LYP) =  -340.931000129     A.U. after    1 cycles

 The electronic state is 1-A.
 Alpha  occ. eigenvalues --  -19.16481 -19.14132 -14.37394 -14.31615 -10.30342
 Alpha  occ. eigenvalues --  -10.16856  -1.07509  -1.01225  -0.87516  -0.80808
 Alpha  occ. eigenvalues --   -0.71859  -0.59105  -0.52439  -0.50733  -0.48747
 Alpha  occ. eigenvalues --   -0.46795  -0.43382  -0.41747  -0.38044  -0.37468
 Alpha  occ. eigenvalues --   -0.35263  -0.28973  -0.27522  -0.26120  -0.24510
 Alpha virt. eigenvalues --    0.07035   0.08105   0.11974   0.13575   0.14446
 Alpha virt. eigenvalues --    0.14901   0.15826   0.17529   0.18793   0.22782
 Alpha virt. eigenvalues --    0.24734   0.29265   0.30186   0.54339   0.56084

 Mulliken charges:
               1
     1  C   -0.326814
     2  C    0.620201
     3  N   -0.604138
     4  O   -0.545921
     5  O   -0.437409
     6  N   -0.377679
     7  H    0.106952
     8  H    0.120310
     9  H    0.110364
    10  H    0.253322
    11  H    0.240624
    12  H    0.313357
    13  H    0.264445
    14  H    0.262385
 Sum of Mulliken charges =  -0.00000

 Dipole moment (field-independent basis, Debye):
    X=              1.6170    Y=             -0.0735    Z=              1.3261  Tot=              2.0926
 Quadrupole moment (field-independent basis, Debye-Ang):
   XX=            -28.7660   YY=            -33.4136   ZZ=            -40.4826
   XY=             -0.4432   XZ=             -0.9599   YZ=             -1.8459

  Exact polarizability:  51.076   0.883  42.691   0.855  -1.285  38.665
 Approx polarizability:  66.201   2.944  55.166   2.986  -0.268  57.070

                      1                      2                      3
                      A                      A                      A
 Frequencies --    138.4857               206.2021               230.4791
 Red. masses --      3.7686                 1.0695                 1.1477
 Frc consts  --      0.0426                 0.0268                 0.0359
 IR Inten    --      0.6382                60.1235                 4.6521

                      4                      5                      6
                      A                      A                      A
 Frequencies --    252.1635               280.8843               364.7767
 Red. masses --      1.0569                 2.8101                 3.0138
 Frc consts  --      0.0396                 0.1306                 0.2363
 IR Inten    --     25.0005                 8.5020                 7.4207

                      7                      8                      9
                      A                      A                      A
 Frequencies --    376.7276               419.5628               486.3447
 Red. masses --      1.9546                 1.4418                 3.4656
 Frc consts  --      0.1634                 0.1495                 0.4830
 IR Inten    --     31.4376                41.2108                21.3484

                     10                     11                     12
                      A                      A                      A
 Frequencies --    536.8112               572.8643               780.5860
 Red. masses --      3.4822                 3.4523                 4.5180
 Frc consts  --      0.5912                 0.6675                 1.6220
 IR Inten    --     48.0289                18.5144                12.6703

                     13                     14                     15
                      A                      A                      A
 Frequencies --    884.2849               902.7676               948.5197
 Red. masses --      2.0478                 2.1462                 6.4711
 Frc consts  --      0.9434                 1.0306                 3.4302
 IR Inten    --     36.7446               221.5822                18.5666

                     16                     17                     18
                      A                      A                      A
 Frequencies --    990.5941              1037.9312              1108.2790
 Red. masses --      1.3884                 1.7139                 1.6721
 Frc consts  --      0.8027                 1.0878                 1.2100
 IR Inten    --     22.2544                44.7125               158.0241

                     19                     20                     21
                      A                      A                      A
 Frequencies --   1223.2911              1268.8790              1316.4543
 Red. masses --      1.4324                 3.1221                 1.1205
 Frc consts  --      1.2629                 2.9617                 1.1441
 IR Inten    --    114.1144                96.1111                 1.4528

                     22                     23                     24
                      A                      A                      A
 Frequencies --   1347.4334              1372.7994              1423.4585
 Red. masses --      1.7779                 1.5722                 1.6012
 Frc consts  --      1.9019                 1.7457                 1.9116
 IR Inten    --    105.3293                23.0254                43.9015

                     25                     26                     27
                      A                      A                      A
 Frequencies --   1500.2977              1510.7964              1659.4298
 Red. masses --      1.0605                 1.0523                 1.0834
 Frc consts  --      1.4064                 1.4152                 1.7577
 IR Inten    --      0.5011                 0.9682                31.3909

                     28                     29                     30
                      A                      A                      A
 Frequencies --   1672.6984              3064.0106              3140.7667
 Red. masses --      1.0920                 1.0348                 1.1030
 Frc consts  --      1.8001                 5.7237                 6.4104
 IR Inten    --     25.5158                 9.8671                19.5222

                     31                     32                     33
                      A                      A                      A
 Frequencies --   3153.9771              3436.3834              3490.5868
 Red. masses --      1.1038                 1.0483                 1.0501
 Frc consts  --      6.4695                 7.2934                 7.5382
 IR Inten    --     15.1793                 1.7716                 0.4524

                     34                     35                     36
                      A                      A                      A
 Frequencies --   3522.4060              3584.7402              3826.8928
 Red. masses --      1.0954                 1.0912                 1.0653
 Frc consts  --      8.0078                 8.2615                 9.1924
 IR Inten    --      0.0030                 2.9006                37.7710

 - Thermochemistry -
 -------------------
 Temperature   298.150 Kelvin.  Pressure   1.00000 Atm.
 Atom     1 has atomic number  6 and mass  12.00000

 Molecular mass:    92.05858 amu.
 Principal axes and moments of inertia in atomic units:
                           1         2         3
     Eigenvalues --   376.88033 619.10844 634.15314
           X            0.99970  -0.02279  -0.00887
           Y            0.02060   0.98010  -0.19742
           Z            0.01320   0.19717   0.98028
 This molecule is an asymmetric top.
 Rotational symmetry number  1.
 Rotational temperatures (Kelvin)      0.22982     0.13990     0.13658
 Rotational constants (GHZ):           4.78863     2.91506     2.84591
 Zero-point vibrational energy     311229.8 (Joules/Mol)
                                   74.38572 (Kcal/Mol)
 Warning -- explicit consideration of  11 degrees of freedom as
           vibrations may cause significant error
 Vibrational temperatures:    199.25   296.68   331.61   362.81   404.13
          (Kelvin)            524.83   542.03   603.66   699.74   772.35
                              824.22  1123.09  1272.29  1298.88  1364.71
                             1425.24  1493.35  1594.56  1760.04  1825.63
                             1894.08  1938.65  1975.15  2048.04  2158.59
                             2173.70  2387.55  2406.64  4408.42  4518.86
                             4537.86  4944.18  5022.17  5067.95  5157.64
                             5506.04

 Zero-point correction=                           0.118541 (Hartree/Particle)
 Thermal correction to Energy=                    0.126019
 Thermal correction to Enthalpy=                  0.126963
 Thermal correction to Gibbs Free Energy=         0.088074
 Sum of electronic and zero-point Energies=           -340.812459
 Sum of electronic and thermal Energies=              -340.804981
 Sum of electronic and thermal Enthalpies=            -340.804037
 Sum of electronic and thermal Free Energies=         -340.842926

                     E (Thermal)             CV                S
                      KCal/Mol        Cal/Mol-Kelvin    Cal/Mol-Kelvin
 Total                   79.078             27.203             81.849
 Electronic               0.000              0.000              0.000
 Translational            0.889              2.981             39.471
 Rotational               0.889              2.981             26.495
 Vibrational             77.301             21.241             15.883
 Vibration     1          0.614              1.915              2.825
 Vibration     2          0.641              1.831              2.077
 Vibration     3          0.652              1.794              1.875
 Vibration     4          0.664              1.759              1.715
 Vibration     5          0.681              1.709              1.528
 Vibration     6          0.738              1.545              1.102
 Vibration     7          0.747              1.520              1.052
 Vibration     8          0.782              1.428              0.893
 Vibration     9          0.842              1.280              0.693
 Vibration    10          0.892              1.169              0.572
 Vibration    11          0.929              1.090              0.499

 Optimization completed.
    -- Stationary point found.
 Normal termination of Gaussian 09 at Thu Sep  8 15:19:50 2022.
