 Gaussian 09, Revision E.01,
 Gaussian 09:  ES64L-G09RevE.01 30-Nov-2015

 -------------------------
 #P OPT Freq B3LYP/6-31G**
 -------------------------

 --------
 Frag_124
 --------
 Symbolic Z-matrix:
 Charge =  0 Multiplicity = 1

 SCF Done:  E(RB3LYP) =  -189.319599999     A.U. after   14 cycles
 SCF Done:  E(RB3LYP) =  -189.333078864     A.U. after   12 cycles
 SCF Done:  E(RB3LYP) =  -189.333491936     A.U. after   10 cycles
 SCF Done:  E(RB3LYP) =  -189.333553965     A.U. after   10 cycles
 SCF Done:  E(RB3LYP) =  -189.333642591     A.U. after   10 cycles
 SCF Done:  E(RB3LYP) =  -189.333836921     A.U. after   12 cycles
 SCF Done:  E(RB3LYP) =  -189.334027003     A.U. after   10 cycles
 SCF Done:  E(RB3LYP) =  -189.334671031     A.U. after   13 cycles
 SCF Done:  E(RB3LYP) =  -189.334843534     A.U. after   11 cycles
 SCF Done:  E(RB3LYP) =  -189.334941187     A.U. after   10 cycles
 SCF Done:  E(RB3LYP) =  -189.334981829     A.U. after   10 cycles
 SCF Done:  E(RB3LYP) =  -189.335003996     A.U. after   10 cycles
 SCF Done:  E(RB3LYP) =  -189.335012954     A.U. after   10 cycles
 SCF Done:  E(RB3LYP) =  -189.335014808     A.U. after    8 cycles
 SCF Done:  E(RB3LYP) =  -189.335015027     A.U. after    7 cycles
 Optimization completed.
    -- Stationary point found.
 Normal termination of Gaussian 09 at Sat Aug 21 01:38:55 2021.

 ----------------------------------------------------------------------
 #P Geom=AllCheck Guess=TCheck SCRF=Check GenChk RB3LYP/6-31G(d,p) Freq
 ----------------------------------------------------------------------

 Structure from the checkpoint file:  "/public/home/users/caep010/.cache/gau_scr/Gau-91837.chk"
 --------
 Frag_124
 --------
 Charge =  0 Multiplicity = 1

                         Standard orientation:
 ---------------------------------------------------------------------
 Center     Atomic      Atomic             Coordinates (Angstroms)
 Number     Number       Type             X           Y           Z
 ---------------------------------------------------------------------
      1          6           0       -1.361586   -0.346520   -0.003583
      2          6           0        0.078299    0.128697    0.002919
      3          7           0        0.487280    1.342680    0.017991
      4          7           0        1.008311   -0.896360   -0.078964
      5          1           0       -1.560003   -1.006355    0.849686
      6          1           0       -2.050528    0.498156    0.051816
      7          1           0       -1.572818   -0.916692   -0.914362
      8          1           0       -0.308108    1.980904   -0.002723
      9          1           0        0.764370   -1.778052    0.348387
     10          1           0        1.957673   -0.595257    0.097991
 ---------------------------------------------------------------------

 SCF Done:  E(RB3LYP) =  -189.335015027     A.U. after    1 cycles

 The electronic state is 1-A.
 Alpha  occ. eigenvalues --  -14.33643 -14.28414 -10.25213 -10.19354  -0.93432
 Alpha  occ. eigenvalues --   -0.83679  -0.72765  -0.57498  -0.52111  -0.44762
 Alpha  occ. eigenvalues --   -0.43611  -0.42522  -0.39527  -0.33498  -0.24866
 Alpha  occ. eigenvalues --   -0.23098
 Alpha virt. eigenvalues --    0.03848   0.07482   0.12823   0.13312   0.14849
 Alpha virt. eigenvalues --    0.17647   0.18331   0.23691   0.32952   0.41795
 Alpha virt. eigenvalues --    0.53116   0.54142   0.56751   0.62239   0.63433

 Mulliken charges:
               1
     1  C   -0.370389
     2  C    0.417020
     3  N   -0.567529
     4  N   -0.588619
     5  H    0.117491
     6  H    0.118614
     7  H    0.137632
     8  H    0.213811
     9  H    0.253262
    10  H    0.268705
 Sum of Mulliken charges =  -0.00000

 Dipole moment (field-independent basis, Debye):
    X=             -1.4826    Y=             -2.1442    Z=              0.8608  Tot=              2.7453
 Quadrupole moment (field-independent basis, Debye-Ang):
   XX=            -23.0117   YY=            -24.0698   ZZ=            -26.1982
   XY=             -3.8732   XZ=              1.1208   YZ=             -1.6132

  Exact polarizability:  37.045  -0.485  45.470   0.065  -0.470  21.702
 Approx polarizability:  47.138   1.194  71.631  -0.317   0.288  30.041

                      1                      2                      3
                      A                      A                      A
 Frequencies --     97.2306               387.3308               435.5013
 Red. masses --      1.0650                 1.2075                 2.0214
 Frc consts  --      0.0059                 0.1067                 0.2259
 IR Inten    --      0.4654                69.8301                11.0841

                      4                      5                      6
                      A                      A                      A
 Frequencies --    523.1739               535.5044               627.4244
 Red. masses --      1.6440                 2.8476                 1.6007
 Frc consts  --      0.2651                 0.4811                 0.3713
 IR Inten    --     86.8257                 8.2540               187.5144

                      7                      8                      9
                      A                      A                      A
 Frequencies --    839.7880               855.8629              1003.4885
 Red. masses --      1.1528                 3.3645                 1.4154
 Frc consts  --      0.4790                 1.4521                 0.8398
 IR Inten    --     25.8634                 0.8857                 2.8290

                     10                     11                     12
                      A                      A                      A
 Frequencies --   1065.7367              1145.5913              1173.3968
 Red. masses --      1.6099                 1.5068                 1.4256
 Frc consts  --      1.0773                 1.1651                 1.1565
 IR Inten    --     11.2349                69.6124                58.7783

                     13                     14                     15
                      A                      A                      A
 Frequencies --   1398.6053              1445.3778              1491.9776
 Red. masses --      1.3106                 2.1760                 1.0516
 Frc consts  --      1.5105                 2.6784                 1.3792
 IR Inten    --      3.6358                69.2286                 7.8057

                     16                     17                     18
                      A                      A                      A
 Frequencies --   1499.9773              1637.5216              1738.3397
 Red. masses --      1.0786                 1.2580                 5.4402
 Frc consts  --      1.4298                 1.9876                 9.6858
 IR Inten    --     17.9529                58.1556               199.2247

                     19                     20                     21
                      A                      A                      A
 Frequencies --   3043.0877              3105.6463              3149.4463
 Red. masses --      1.0392                 1.0989                 1.1019
 Frc consts  --      5.6699                 6.2448                 6.4395
 IR Inten    --     13.7371                14.9217                14.9271

                     22                     23                     24
                      A                      A                      A
 Frequencies --   3500.3856              3571.2766              3692.6414
 Red. masses --      1.0753                 1.0466                 1.1002
 Frc consts  --      7.7624                 7.8645                 8.8385
 IR Inten    --      1.3394                13.5621                15.6580

 - Thermochemistry -
 -------------------
 Temperature   298.150 Kelvin.  Pressure   1.00000 Atm.
 Atom     1 has atomic number  6 and mass  12.00000

 Molecular mass:    58.05310 amu.
 Principal axes and moments of inertia in atomic units:
                           1         2         3
     Eigenvalues --   176.06192 198.00869 361.35984
           X            0.98502  -0.17220   0.00885
           Y            0.17232   0.98493  -0.01507
           Z           -0.00612   0.01636   0.99985
 This molecule is an asymmetric top.
 Rotational symmetry number  1.
 Rotational temperatures (Kelvin)      0.49195     0.43742     0.23969
 Rotational constants (GHZ):          10.25061     9.11445     4.99430
 Zero-point vibrational energy     227077.0 (Joules/Mol)
                                   54.27271 (Kcal/Mol)
 Warning -- explicit consideration of   5 degrees of freedom as
           vibrations may cause significant error
 Vibrational temperatures:    139.89   557.28   626.59   752.73   770.47
          (Kelvin)            902.72  1208.27  1231.39  1443.79  1533.36
                             1648.25  1688.25  2012.28  2079.57  2146.62
                             2158.13  2356.03  2501.08  4378.32  4468.33
                             4531.35  5036.27  5138.26  5312.88

 Zero-point correction=                           0.086489 (Hartree/Particle)
 Thermal correction to Energy=                    0.091476
 Thermal correction to Enthalpy=                  0.092420
 Thermal correction to Gibbs Free Energy=         0.059275
 Sum of electronic and zero-point Energies=           -189.248526
 Sum of electronic and thermal Energies=              -189.243539
 Sum of electronic and thermal Enthalpies=            -189.242595
 Sum of electronic and thermal Free Energies=         -189.275740

                     E (Thermal)             CV                S
                      KCal/Mol        Cal/Mol-Kelvin    Cal/Mol-Kelvin
 Total                   57.402             16.875             69.760
 Electronic               0.000              0.000              0.000
 Translational            0.889              2.981             38.097
 Rotational               0.889              2.981             24.047
 Vibrational             55.625             10.913              7.616
 Vibration     1          0.603              1.951              3.509
 Vibration     2          0.756              1.497              1.010
 Vibration     3          0.796              1.393              0.841
 Vibration     4          0.878              1.199              0.603
 Vibration     5          0.891              1.171              0.575

 Optimization completed.
    -- Stationary point found.
 Normal termination of Gaussian 09 at Sat Aug 21 01:39:02 2021.
