 Gaussian 09, Revision E.01,
 Gaussian 09:  ES64L-G09RevE.01 30-Nov-2015

 ----------------------------
 #P OPT Freq B3LYP/6-31G(d,p)
 ----------------------------

 ---------
 Frag_1043
 ---------
 Symbolic Z-matrix:
 Charge =  0 Multiplicity = 1

 SCF Done:  E(RB3LYP) =  -411.964691795     A.U. after   12 cycles
 SCF Done:  E(RB3LYP) =  -411.964733030     A.U. after    8 cycles
 SCF Done:  E(RB3LYP) =  -411.964735688     A.U. after    7 cycles
 SCF Done:  E(RB3LYP) =  -411.964739032     A.U. after    7 cycles
 SCF Done:  E(RB3LYP) =  -411.964738100     A.U. after    7 cycles
 Optimization completed.
    -- Stationary point found.
 Normal termination of Gaussian 09 at Thu Sep  8 14:51:05 2022.

 ----------------------------------------------------------------------
 #P Geom=AllCheck Guess=TCheck SCRF=Check GenChk RB3LYP/6-31G(d,p) Freq
 ----------------------------------------------------------------------

 Structure from the checkpoint file:  "B3LYP6-31Gdp.Frag_1043.chk"
 ---------
 Frag_1043
 ---------
 Charge =  0 Multiplicity = 1

                         Standard orientation:
 ---------------------------------------------------------------------
 Center     Atomic      Atomic             Coordinates (Angstroms)
 Number     Number       Type             X           Y           Z
 ---------------------------------------------------------------------
      1          7           0       -1.169290   -1.001226    1.026719
      2          6           0       -0.788371   -0.021449    0.016305
      3          7           0       -1.383743   -0.341118   -1.288951
      4          7           0       -1.270651    1.321600    0.358562
      5          6           0        0.788368    0.021444   -0.016296
      6          7           0        1.270660   -1.321576   -0.358798
      7          7           0        1.383744    0.340962    1.289009
      8          7           0        1.169264    1.001325   -1.026587
      9          1           0       -0.666152   -1.866638    0.830974
     10          1           0       -2.166059   -1.188381    0.939647
     11          1           0       -0.939564    0.244125   -1.996631
     12          1           0       -1.143262   -1.302118   -1.521553
     13          1           0       -1.286101    1.405693    1.371788
     14          1           0       -2.232340    1.395052    0.034606
     15          1           0        1.286511   -1.405340   -1.372044
     16          1           0        2.232213   -1.395197   -0.034475
     17          1           0        0.939368   -0.244188    1.996648
     18          1           0        1.143512    1.302019    1.521633
     19          1           0        2.166008    1.188570   -0.939456
     20          1           0        0.665996    1.866665   -0.830871
 ---------------------------------------------------------------------

 SCF Done:  E(RB3LYP) =  -411.964738100     A.U. after    1 cycles

 The electronic state is 1-A.
 Alpha  occ. eigenvalues --  -14.31001 -14.31001 -14.30632 -14.30631 -14.30537
 Alpha  occ. eigenvalues --  -14.30536 -10.25737 -10.25720  -0.96232  -0.91241
 Alpha  occ. eigenvalues --   -0.84384  -0.83967  -0.82478  -0.81984  -0.64259
 Alpha  occ. eigenvalues --   -0.55783  -0.51673  -0.50766  -0.49264  -0.48845
 Alpha  occ. eigenvalues --   -0.45909  -0.45044  -0.42029  -0.41261  -0.40819
 Alpha  occ. eigenvalues --   -0.38654  -0.36195  -0.28189  -0.26046  -0.25828
 Alpha  occ. eigenvalues --   -0.24905  -0.22574  -0.22013
 Alpha virt. eigenvalues --    0.06394   0.10753   0.11798   0.13009   0.13259
 Alpha virt. eigenvalues --    0.15349   0.15392   0.16977   0.17377   0.17770
 Alpha virt. eigenvalues --    0.19356   0.19473   0.23634   0.26304   0.27603

 Mulliken charges:
               1
     1  N   -0.608471
     2  C    0.348940
     3  N   -0.596545
     4  N   -0.604780
     5  C    0.348945
     6  N   -0.604799
     7  N   -0.596554
     8  N   -0.608471
     9  H    0.254451
    10  H    0.234913
    11  H    0.250210
    12  H    0.233562
    13  H    0.240013
    14  H    0.247714
    15  H    0.240026
    16  H    0.247713
    17  H    0.250215
    18  H    0.233552
    19  H    0.234910
    20  H    0.254456
 Sum of Mulliken charges =  -0.00000

 Dipole moment (field-independent basis, Debye):
    X=              0.0001    Y=              0.0006    Z=              0.0005  Tot=              0.0007
 Quadrupole moment (field-independent basis, Debye-Ang):
   XX=            -48.1732   YY=            -46.7800   ZZ=            -49.5482
   XY=              0.2802   XZ=             -3.7208   YZ=              3.3182

  Exact polarizability:  65.650  -0.982  63.973  -0.764   0.580  62.165
 Approx polarizability:  87.215  -2.338  91.782   0.646  -0.231  88.963

                      1                      2                      3
                      A                      A                      A
 Frequencies --    125.3954               220.4323               274.8299
 Red. masses --      4.3372                 1.4284                 3.5055
 Frc consts  --      0.0402                 0.0409                 0.1560
 IR Inten    --      3.3246                28.4847                16.9014

                      4                      5                      6
                      A                      A                      A
 Frequencies --    280.3554               294.2277               317.3782
 Red. masses --      1.1879                 1.8182                 1.4300
 Frc consts  --      0.0550                 0.0927                 0.0849
 IR Inten    --      0.0001                33.6227                 0.0000

                      7                      8                      9
                      A                      A                      A
 Frequencies --    357.4797               363.1627               378.4792
 Red. masses --      1.8074                 1.1436                 2.7157
 Frc consts  --      0.1361                 0.0889                 0.2292
 IR Inten    --      0.0000                69.3534                 0.0000

                     10                     11                     12
                      A                      A                      A
 Frequencies --    396.5178               398.8838               444.7719
 Red. masses --      1.7538                 1.3408                 1.6783
 Frc consts  --      0.1625                 0.1257                 0.1956
 IR Inten    --      0.0003                64.0375                 0.0000

                     13                     14                     15
                      A                      A                      A
 Frequencies --    460.4977               496.2292               555.5607
 Red. masses --      2.7929                 1.8336                 3.6722
 Frc consts  --      0.3490                 0.2660                 0.6678
 IR Inten    --      6.5180                99.4807                 0.0000

                     16                     17                     18
                      A                      A                      A
 Frequencies --    584.5087               587.9353               716.5146
 Red. masses --      3.2319                 2.2986                 3.2446
 Frc consts  --      0.6506                 0.4681                 0.9814
 IR Inten    --      0.0003                68.0271                 0.0000

                     19                     20                     21
                      A                      A                      A
 Frequencies --    873.9422               884.9037               905.5540
 Red. masses --      3.0241                 1.8598                 1.6820
 Frc consts  --      1.3609                 0.8581                 0.8126
 IR Inten    --     99.4540                 0.0001               305.1384

                     22                     23                     24
                      A                      A                      A
 Frequencies --    926.8998               966.1631               973.8981
 Red. masses --      1.5624                 1.2117                 1.3506
 Frc consts  --      0.7909                 0.6664                 0.7548
 IR Inten    --      0.0003               167.1898                 0.0005

                     25                     26                     27
                      A                      A                      A
 Frequencies --    980.1922               994.1102              1042.5918
 Red. masses --      1.8020                 1.5473                 1.7729
 Frc consts  --      1.0201                 0.9009                 1.1354
 IR Inten    --    478.2864                 0.0002                27.1023

                     28                     29                     30
                      A                      A                      A
 Frequencies --   1065.2493              1075.0086              1130.3642
 Red. masses --      1.6735                 1.6619                 1.5802
 Frc consts  --      1.1189                 1.1316                 1.1896
 IR Inten    --      0.0000                42.0873                 0.0000

                     31                     32                     33
                      A                      A                      A
 Frequencies --   1276.2828              1309.8714              1316.6815
 Red. masses --      1.8087                 1.6398                 2.1728
 Frc consts  --      1.7359                 1.6577                 2.2194
 IR Inten    --     75.7607               102.8824                 0.0002

                     34                     35                     36
                      A                      A                      A
 Frequencies --   1344.7166              1368.4343              1402.7014
 Red. masses --      2.1575                 1.7846                 2.0830
 Frc consts  --      2.2986                 1.9690                 2.4147
 IR Inten    --      0.0000                39.9974                 0.0000

                     37                     38                     39
                      A                      A                      A
 Frequencies --   1634.0804              1638.7211              1639.2704
 Red. masses --      1.1006                 1.1057                 1.0988
 Frc consts  --      1.7316                 1.7494                 1.7397
 IR Inten    --     96.4603                 0.0120               111.8630

                     40                     41                     42
                      A                      A                      A
 Frequencies --   1652.4604              1669.6101              1672.7207
 Red. masses --      1.1069                 1.1123                 1.0989
 Frc consts  --      1.7809                 1.8269                 1.8116
 IR Inten    --      0.0000                 0.0000                30.6367

                     43                     44                     45
                      A                      A                      A
 Frequencies --   3469.0253              3470.5769              3476.1509
 Red. masses --      1.0494                 1.0492                 1.0504
 Frc consts  --      7.4406                 7.4458                 7.4785
 IR Inten    --     13.4505                 0.0005                 2.7140

                     46                     47                     48
                      A                      A                      A
 Frequencies --   3477.1406              3497.2654              3497.9650
 Red. masses --      1.0502                 1.0494                 1.0494
 Frc consts  --      7.4814                 7.5622                 7.5653
 IR Inten    --      0.0004                 0.0000                 2.3228

                     49                     50                     51
                      A                      A                      A
 Frequencies --   3564.3122              3564.8987              3567.9857
 Red. masses --      1.0920                 1.0921                 1.0905
 Frc consts  --      8.1739                 8.1771                 8.1794
 IR Inten    --      0.0061                 9.4789                 3.3050

                     52                     53                     54
                      A                      A                      A
 Frequencies --   3568.6913              3587.2530              3587.2628
 Red. masses --      1.0906                 1.0924                 1.0924
 Frc consts  --      8.1832                 8.2824                 8.2821
 IR Inten    --      0.0003                 5.4937                 0.8128

 - Thermochemistry -
 -------------------
 Temperature   298.150 Kelvin.  Pressure   1.00000 Atm.
 Atom     1 has atomic number  7 and mass  14.00307

 Molecular mass:   120.11234 amu.
 Principal axes and moments of inertia in atomic units:
                           1         2         3
     Eigenvalues --   717.31856 995.290651009.23622
           X            0.99979   0.01301  -0.01589
           Y           -0.00431   0.88961   0.45670
           Z            0.02008  -0.45654   0.88948
 This molecule is an asymmetric top.
 Rotational symmetry number  1.
 Warning -- assumption of classical behavior for rotation
           may cause significant error
 Rotational temperatures (Kelvin)      0.12075     0.08702     0.08582
 Rotational constants (GHZ):           2.51595     1.81328     1.78822
 Zero-point vibrational energy     474475.5 (Joules/Mol)
                                  113.40238 (Kcal/Mol)
 Warning -- explicit consideration of  17 degrees of freedom as
           vibrations may cause significant error
 Vibrational temperatures:    180.42   317.15   395.42   403.37   423.33
          (Kelvin)            456.64   514.33   522.51   544.55   570.50
                              573.90   639.93   662.55   713.96   799.33
                              840.98   845.91  1030.90  1257.41  1273.18
                             1302.89  1333.60  1390.09  1401.22  1410.28
                             1430.30  1500.06  1532.65  1546.70  1626.34
                             1836.28  1884.61  1894.41  1934.74  1968.87
                             2018.17  2351.07  2357.75  2358.54  2377.52
                             2402.19  2406.67  4991.15  4993.38  5001.40
                             5002.82  5031.78  5032.79  5128.24  5129.09
                             5133.53  5134.54  5161.25  5161.26

 Zero-point correction=                           0.180718 (Hartree/Particle)
 Thermal correction to Energy=                    0.190086
 Thermal correction to Enthalpy=                  0.191030
 Thermal correction to Gibbs Free Energy=         0.148343
 Sum of electronic and zero-point Energies=           -411.784020
 Sum of electronic and thermal Energies=              -411.774652
 Sum of electronic and thermal Enthalpies=            -411.773708
 Sum of electronic and thermal Free Energies=         -411.816395

                     E (Thermal)             CV                S
                      KCal/Mol        Cal/Mol-Kelvin    Cal/Mol-Kelvin
 Total                  119.281             37.922             89.842
 Electronic               0.000              0.000              0.000
 Translational            0.889              2.981             40.264
 Rotational               0.889              2.981             28.068
 Vibrational            117.503             31.961             21.510
 Vibration     1          0.610              1.928              3.015
 Vibration     2          0.647              1.810              1.956
 Vibration     3          0.677              1.720              1.566
 Vibration     4          0.680              1.710              1.532
 Vibration     5          0.689              1.684              1.450
 Vibration     6          0.704              1.640              1.324
 Vibration     7          0.733              1.560              1.133
 Vibration     8          0.737              1.548              1.109
 Vibration     9          0.749              1.516              1.045
 Vibration    10          0.763              1.478              0.976
 Vibration    11          0.765              1.473              0.967
 Vibration    12          0.804              1.372              0.812
 Vibration    13          0.818              1.338              0.765
 Vibration    14          0.852              1.258              0.668
 Vibration    15          0.911              1.128              0.533
 Vibration    16          0.941              1.065              0.477
 Vibration    17          0.945              1.058              0.471

 Optimization completed.
    -- Stationary point found.
 Normal termination of Gaussian 09 at Thu Sep  8 14:51:28 2022.
