 Gaussian 09, Revision E.01,
 Gaussian 09:  ES64L-G09RevE.01 30-Nov-2015

 --------------------------------
 #P OPT=calcfc Freq B3LYP/6-31G**
 --------------------------------

 --------
 Frag_156
 --------
 Symbolic Z-matrix:
 Charge =  0 Multiplicity = 1

 SCF Done:  E(RB3LYP) =  -267.950409607     A.U. after   14 cycles
 SCF Done:  E(RB3LYP) =  -267.966223921     A.U. after   14 cycles
 SCF Done:  E(RB3LYP) =  -267.965251709     A.U. after   13 cycles
 SCF Done:  E(RB3LYP) =  -267.966241384     A.U. after    9 cycles
 SCF Done:  E(RB3LYP) =  -267.966787847     A.U. after   12 cycles
 SCF Done:  E(RB3LYP) =  -267.966837023     A.U. after   12 cycles
 SCF Done:  E(RB3LYP) =  -267.966816774     A.U. after   12 cycles
 SCF Done:  E(RB3LYP) =  -267.966860639     A.U. after   10 cycles
 SCF Done:  E(RB3LYP) =  -267.966851474     A.U. after    9 cycles
 SCF Done:  E(RB3LYP) =  -267.966855757     A.U. after    7 cycles
 SCF Done:  E(RB3LYP) =  -267.966856206     A.U. after    6 cycles
 Optimization completed.
    -- Stationary point found.
 Normal termination of Gaussian 09 at Sat Aug 21 02:19:15 2021.

 ----------------------------------------------------------------------
 #P Geom=AllCheck Guess=TCheck SCRF=Check GenChk RB3LYP/6-31G(d,p) Freq
 ----------------------------------------------------------------------

 Structure from the checkpoint file:  "/public/home/users/caep010/.cache/gau_scr/Gau-92549.chk"
 --------
 Frag_156
 --------
 Charge =  0 Multiplicity = 1

                         Standard orientation:
 ---------------------------------------------------------------------
 Center     Atomic      Atomic             Coordinates (Angstroms)
 Number     Number       Type             X           Y           Z
 ---------------------------------------------------------------------
      1          6           0        1.365654    1.185123    0.416627
      2          6           0        0.634982   -0.170591    0.435267
      3          6           0        1.327717   -1.194109   -0.481938
      4          6           0       -0.850926   -0.029453    0.100113
      5          7           0       -1.830178   -0.348434    0.863968
      6          7           0       -1.125736    0.430350   -1.178386
      7          1           0        0.860995    1.921683    1.049364
      8          1           0        2.390562    1.068656    0.783254
      9          1           0        1.436026    1.598983   -0.596284
     10          1           0        0.673374   -0.551056    1.463245
     11          1           0        2.372108   -1.332044   -0.182480
     12          1           0        1.314694   -0.864019   -1.525218
     13          1           0        0.827756   -2.165989   -0.435454
     14          1           0       -1.477625   -0.743616    1.736457
     15          1           0       -2.098331    0.670164   -1.318607
     16          1           0       -0.472738    1.078008   -1.593769
 ---------------------------------------------------------------------

 SCF Done:  E(RB3LYP) =  -267.966856206     A.U. after    1 cycles

 The electronic state is 1-A.
 Alpha  occ. eigenvalues --  -14.33550 -14.28208 -10.24560 -10.20241 -10.18844
 Alpha  occ. eigenvalues --  -10.18111  -0.93380  -0.83516  -0.79254  -0.69183
 Alpha  occ. eigenvalues --   -0.62262  -0.56548  -0.52579  -0.45214  -0.44190
 Alpha  occ. eigenvalues --   -0.43530  -0.42096  -0.39357  -0.37298  -0.35888
 Alpha  occ. eigenvalues --   -0.34259  -0.32730  -0.24349  -0.22893
 Alpha virt. eigenvalues --    0.04098   0.06482   0.10356   0.12719   0.13927
 Alpha virt. eigenvalues --    0.14271   0.15266   0.18448   0.18745   0.19028
 Alpha virt. eigenvalues --    0.20360   0.21140   0.25378   0.26342   0.35984

 Mulliken charges:
               1
     1  C   -0.318368
     2  C   -0.117674
     3  C   -0.300607
     4  C    0.441121
     5  N   -0.584267
     6  N   -0.598670
     7  H    0.116551
     8  H    0.110772
     9  H    0.094255
    10  H    0.093632
    11  H    0.101639
    12  H    0.108460
    13  H    0.116190
    14  H    0.212654
    15  H    0.268842
    16  H    0.255469
 Sum of Mulliken charges =  -0.00000

 Dipole moment (field-independent basis, Debye):
    X=              2.4167    Y=              1.1840    Z=             -0.6151  Tot=              2.7606
 Quadrupole moment (field-independent basis, Debye-Ang):
   XX=            -43.1009   YY=            -37.0215   ZZ=            -35.8301
   XY=             -1.9563   XZ=              2.8874   YZ=             -3.2524

  Exact polarizability:  61.666   1.501  47.969  -3.042  -5.717  57.360
 Approx polarizability:  84.149   4.288  63.920  -9.288 -11.903  87.811

                      1                      2                      3
                      A                      A                      A
 Frequencies --     38.6881               209.3472               236.4635
 Red. masses --      3.1165                 1.2011                 1.3705
 Frc consts  --      0.0027                 0.0310                 0.0452
 IR Inten    --      2.4526                 0.5751                 1.6194

                      4                      5                      6
                      A                      A                      A
 Frequencies --    255.7480               287.5601               333.6173
 Red. masses --      1.4429                 2.6119                 2.4209
 Frc consts  --      0.0556                 0.1273                 0.1588
 IR Inten    --      1.2608                 1.2799                 1.0131

                      7                      8                      9
                      A                      A                      A
 Frequencies --    385.8027               509.6667               554.3816
 Red. masses --      1.1553                 3.1048                 2.2709
 Frc consts  --      0.1013                 0.4752                 0.4112
 IR Inten    --     73.2748                 5.1578                 4.9855

                     10                     11                     12
                      A                      A                      A
 Frequencies --    570.4711               734.6054               768.0402
 Red. masses --      1.2660                 4.8027                 2.5803
 Frc consts  --      0.2427                 1.5270                 0.8968
 IR Inten    --    198.2124                38.3677                 7.5026

                     13                     14                     15
                      A                      A                      A
 Frequencies --    841.5453               915.5316               937.0561
 Red. masses --      1.1237                 2.3243                 1.1743
 Frc consts  --      0.4689                 1.1479                 0.6075
 IR Inten    --     30.7158                 3.9045                 1.7284

                     16                     17                     18
                      A                      A                      A
 Frequencies --    969.9834              1070.4219              1124.3951
 Red. masses --      1.4907                 1.6540                 2.3172
 Frc consts  --      0.8263                 1.1166                 1.7260
 IR Inten    --      0.0384                22.3164                 1.1792

                     19                     20                     21
                      A                      A                      A
 Frequencies --   1159.7857              1161.8861              1199.5190
 Red. masses --      1.4528                 1.3833                 1.8055
 Frc consts  --      1.1513                 1.1003                 1.5306
 IR Inten    --     13.3768                81.7544                18.6011

                     22                     23                     24
                      A                      A                      A
 Frequencies --   1345.2525              1351.4221              1413.5610
 Red. masses --      1.3607                 1.4697                 1.2265
 Frc consts  --      1.4509                 1.5815                 1.4439
 IR Inten    --      3.3427                14.7873                 2.2784

                     25                     26                     27
                      A                      A                      A
 Frequencies --   1416.7441              1451.2723              1499.9729
 Red. masses --      1.5738                 1.6104                 1.0466
 Frc consts  --      1.8611                 1.9984                 1.3874
 IR Inten    --     19.8706                30.3444                 0.5304

                     28                     29                     30
                      A                      A                      A
 Frequencies --   1504.2654              1518.1527              1522.2172
 Red. masses --      1.0450                 1.0515                 1.0656
 Frc consts  --      1.3932                 1.4279                 1.4547
 IR Inten    --      1.8466                 6.4889                11.6812

                     31                     32                     33
                      A                      A                      A
 Frequencies --   1633.9173              1726.7138              3037.2603
 Red. masses --      1.2761                 5.3957                 1.0395
 Frc consts  --      2.0072                 9.4785                 5.6500
 IR Inten    --     69.8124               191.6249                18.5516

                     34                     35                     36
                      A                      A                      A
 Frequencies --   3046.5152              3047.9151              3103.7604
 Red. masses --      1.0435                 1.0738                 1.0999
 Frc consts  --      5.7063                 5.8773                 6.2428
 IR Inten    --     15.6443                23.5651                24.6734

                     37                     38                     39
                      A                      A                      A
 Frequencies --   3117.9561              3121.9367              3126.9753
 Red. masses --      1.1021                 1.1032                 1.1025
 Frc consts  --      6.3126                 6.3353                 6.3518
 IR Inten    --     36.0913                27.5946                27.8457

                     40                     41                     42
                      A                      A                      A
 Frequencies --   3490.2315              3575.6415              3697.3196
 Red. masses --      1.0749                 1.0467                 1.0996
 Frc consts  --      7.7149                 7.8844                 8.8567
 IR Inten    --      1.5433                13.7155                17.6637

 - Thermochemistry -
 -------------------
 Temperature   298.150 Kelvin.  Pressure   1.00000 Atm.
 Atom     1 has atomic number  6 and mass  12.00000

 Molecular mass:    86.08440 amu.
 Principal axes and moments of inertia in atomic units:
                           1         2         3
     Eigenvalues --   382.54208 702.20313 718.42556
           X            0.99991  -0.00727   0.01125
           Y            0.00801   0.99773  -0.06683
           Z           -0.01074   0.06691   0.99770
 This molecule is an asymmetric top.
 Rotational symmetry number  1.
 Rotational temperatures (Kelvin)      0.22642     0.12335     0.12056
 Rotational constants (GHZ):           4.71776     2.57011     2.51208
 Zero-point vibrational energy     376904.5 (Joules/Mol)
                                   90.08235 (Kcal/Mol)
 Warning -- explicit consideration of  10 degrees of freedom as
           vibrations may cause significant error
 Vibrational temperatures:     55.66   301.20   340.22   367.96   413.73
          (Kelvin)            480.00   555.08   733.30   797.63   820.78
                             1056.93  1105.04  1210.79  1317.24  1348.21
                             1395.59  1540.10  1617.75  1668.67  1671.69
                             1725.84  1935.52  1944.39  2033.80  2038.38
                             2088.05  2158.12  2164.30  2184.28  2190.13
                             2350.84  2484.35  4369.93  4383.25  4385.26
                             4465.61  4486.04  4491.76  4499.01  5021.66
                             5144.54  5319.61

 Zero-point correction=                           0.143555 (Hartree/Particle)
 Thermal correction to Energy=                    0.151060
 Thermal correction to Enthalpy=                  0.152004
 Thermal correction to Gibbs Free Energy=         0.112190
 Sum of electronic and zero-point Energies=           -267.823301
 Sum of electronic and thermal Energies=              -267.815796
 Sum of electronic and thermal Enthalpies=            -267.814852
 Sum of electronic and thermal Free Energies=         -267.854666

                     E (Thermal)             CV                S
                      KCal/Mol        Cal/Mol-Kelvin    Cal/Mol-Kelvin
 Total                   94.791             27.109             83.795
 Electronic               0.000              0.000              0.000
 Translational            0.889              2.981             39.271
 Rotational               0.889              2.981             26.759
 Vibrational             93.014             21.147             17.765
 Vibration     1          0.594              1.981              5.325
 Vibration     2          0.642              1.826              2.049
 Vibration     3          0.655              1.785              1.829
 Vibration     4          0.666              1.753              1.691
 Vibration     5          0.685              1.697              1.488
 Vibration     6          0.715              1.608              1.243
 Vibration     7          0.754              1.500              1.016
 Vibration     8          0.865              1.229              0.634
 Vibration     9          0.910              1.130              0.535
 Vibration    10          0.927              1.095              0.503

 Optimization completed.
    -- Stationary point found.
 Normal termination of Gaussian 09 at Sat Aug 21 02:19:29 2021.
