 Gaussian 09, Revision D.01,
 Gaussian 09:  ES64L-G09RevD.01 24-Apr-2013

 -------------------------
 #P OPT Freq B3LYP/6-31G**
 -------------------------

 -------
 Frag_68
 -------
 Symbolic Z-matrix:
 Charge =  0 Multiplicity = 1

 SCF Done:  E(RB3LYP) =  -157.224495774     A.U. after   10 cycles
 SCF Done:  E(RB3LYP) =  -157.224495973     A.U. after    6 cycles
 Optimization completed.
    -- Stationary point found.
 Normal termination of Gaussian 09 at Fri Jul 23 00:16:40 2021.

 ----------------------------------------------------------------------
 #P Geom=AllCheck Guess=TCheck SCRF=Check GenChk RB3LYP/6-31G(d,p) Freq
 ----------------------------------------------------------------------

 Structure from the checkpoint file:  "/vol2/users/liuj201281/HOFBenchmark/IsodesmicSplit/Sample60/Ring26/Running/Gau-281899.chk"
 -------
 Frag_68
 -------
 Charge =  0 Multiplicity = 1

                         Standard orientation:
 ---------------------------------------------------------------------
 Center     Atomic      Atomic             Coordinates (Angstroms)
 Number     Number       Type             X           Y           Z
 ---------------------------------------------------------------------
      1          6           0        0.766518    0.766518    0.124653
      2          6           0        0.766518   -0.766518   -0.124653
      3          6           0       -0.766518   -0.766518    0.124653
      4          6           0       -0.766518    0.766518   -0.124653
      5          1           0        1.389989    1.389980   -0.523115
      6          1           0        1.004894    1.004937    1.166367
      7          1           0        1.004937   -1.004894   -1.166367
      8          1           0        1.389980   -1.389989    0.523115
      9          1           0       -1.004894   -1.004937    1.166367
     10          1           0       -1.389989   -1.389980   -0.523115
     11          1           0       -1.004937    1.004894   -1.166367
     12          1           0       -1.389980    1.389989    0.523115
 ---------------------------------------------------------------------

 SCF Done:  E(RB3LYP) =  -157.224495973     A.U. after    1 cycles

 The electronic state is 1-A.
 Alpha  occ. eigenvalues --  -10.17627 -10.17609 -10.17609 -10.17590  -0.83068
 Alpha  occ. eigenvalues --   -0.64850  -0.64850  -0.54040  -0.47071  -0.46805
 Alpha  occ. eigenvalues --   -0.37799  -0.37799  -0.34397  -0.30936  -0.29887
 Alpha  occ. eigenvalues --   -0.29887
 Alpha virt. eigenvalues --    0.09673   0.10315   0.13721   0.13721   0.18280
 Alpha virt. eigenvalues --    0.18996   0.18996   0.20777   0.20777   0.23966
 Alpha virt. eigenvalues --    0.24270   0.33620   0.51042   0.52378   0.54998

 Mulliken charges:
               1
     1  C   -0.188780
     2  C   -0.188780
     3  C   -0.188780
     4  C   -0.188780
     5  H    0.091166
     6  H    0.097614
     7  H    0.097614
     8  H    0.091166
     9  H    0.097614
    10  H    0.091166
    11  H    0.097614
    12  H    0.091166
 Sum of Mulliken charges =   0.00000

 Dipole moment (field-independent basis, Debye):
    X=              0.0000    Y=              0.0000    Z=              0.0000  Tot=              0.0000
 Quadrupole moment (field-independent basis, Debye-Ang):
   XX=            -26.8774   YY=            -26.8774   ZZ=            -25.6600
   XY=              0.0000   XZ=              0.0000   YZ=              0.0000

  Exact polarizability:  41.901   0.000  41.901   0.000   0.000  39.203
 Approx polarizability:  54.084   0.000  54.084   0.000   0.000  55.464

                      1                      2                      3
                      A                      B                      E
 Frequencies --    192.1736               640.0190               759.1198
 Red. masses --      1.4877                 1.5762                 1.1909
 Frc consts  --      0.0324                 0.3804                 0.4043
 IR Inten    --      0.0000                 3.1665                 0.5062

                      4                      5                      6
                      E                      B                      E
 Frequencies --    759.1198               889.5644               922.7911
 Red. masses --      1.1909                 1.9492                 2.0381
 Frc consts  --      0.4043                 0.9088                 1.0226
 IR Inten    --      0.5062                 0.0000                 1.9687

                      7                      8                      9
                      E                      B                      A
 Frequencies --    922.7911               950.9702               967.2915
 Red. masses --      2.0381                 2.6298                 1.0079
 Frc consts  --      1.0226                 1.4012                 0.5556
 IR Inten    --      1.9687                 0.0000                 0.0000

                     10                     11                     12
                      A                      B                      A
 Frequencies --   1019.8894              1179.4743              1181.8951
 Red. masses --      3.9027                 1.2340                 2.0504
 Frc consts  --      2.3918                 1.0115                 1.6875
 IR Inten    --      0.0000                 0.0000                 0.0000

                     13                     14                     15
                      E                      E                      A
 Frequencies --   1257.2261              1257.2261              1262.6179
 Red. masses --      1.2596                 1.2596                 1.3827
 Frc consts  --      1.1731                 1.1731                 1.2988
 IR Inten    --      0.2004                 0.2004                 0.0000

                     16                     17                     18
                      B                      E                      E
 Frequencies --   1267.2279              1300.6259              1300.6259
 Red. masses --      1.1400                 1.5072                 1.5072
 Frc consts  --      1.0786                 1.5022                 1.5022
 IR Inten    --      0.0000                 0.2981                 0.2981

                     19                     20                     21
                      E                      E                      B
 Frequencies --   1498.0306              1498.0306              1503.3154
 Red. masses --      1.0902                 1.0902                 1.0808
 Frc consts  --      1.4415                 1.4415                 1.4392
 IR Inten    --      0.0648                 0.0648                 2.8502

                     22                     23                     24
                      A                      B                      E
 Frequencies --   1536.6858              3059.0620              3059.3277
 Red. masses --      1.1393                 1.0569                 1.0577
 Frc consts  --      1.5852                 5.8273                 5.8328
 IR Inten    --      0.0000                 9.0976                81.5399

                     25                     26                     27
                      E                      A                      A
 Frequencies --   3059.3277              3066.6214              3097.4257
 Red. masses --      1.0577                 1.0670                 1.1055
 Frc consts  --      5.8328                 5.9117                 6.2490
 IR Inten    --     81.5399                 0.0000                 0.0000

                     28                     29                     30
                      E                      E                      B
 Frequencies --   3111.1230              3111.1230              3127.8148
 Red. masses --      1.1088                 1.1088                 1.1078
 Frc consts  --      6.3232                 6.3232                 6.3853
 IR Inten    --     18.1604                18.1604               106.7791

 - Thermochemistry -
 -------------------
 Temperature   298.150 Kelvin.  Pressure   1.00000 Atm.
 Atom     1 has atomic number  6 and mass  12.00000

 Molecular mass:    56.06260 amu.
 Principal axes and moments of inertia in atomic units:
                           1         2         3
     Eigenvalues --   169.25186 169.25186 286.12885
           X            0.92848  -0.37139   0.00000
           Y            0.37139   0.92848   0.00000
           Z            0.00000   0.00000   1.00000
 This molecule is an oblate symmetric top.
 Rotational symmetry number  2.
 Rotational temperatures (Kelvin)      0.51175     0.51175     0.30271
 Rotational constants (GHZ):          10.66305    10.66305     6.30744
 Zero-point vibrational energy     291640.8 (Joules/Mol)
                                   69.70383 (Kcal/Mol)
 Warning -- explicit consideration of   1 degrees of freedom as
           vibrations may cause significant error
 Vibrational temperatures:    276.49   920.84  1092.20  1092.20  1279.88
          (Kelvin)           1327.69  1327.69  1368.23  1391.72  1467.39
                             1697.00  1700.48  1808.87  1808.87  1816.62
                             1823.26  1871.31  1871.31  2155.33  2155.33
                             2162.93  2210.95  4401.30  4401.68  4401.68
                             4412.18  4456.50  4476.21  4476.21  4500.22

 Zero-point correction=                           0.111080 (Hartree/Particle)
 Thermal correction to Energy=                    0.115213
 Thermal correction to Enthalpy=                  0.116157
 Thermal correction to Gibbs Free Energy=         0.085587
 Sum of electronic and zero-point Energies=           -157.113416
 Sum of electronic and thermal Energies=              -157.109283
 Sum of electronic and thermal Enthalpies=            -157.108339
 Sum of electronic and thermal Free Energies=         -157.138909

                     E (Thermal)             CV                S
                      KCal/Mol        Cal/Mol-Kelvin    Cal/Mol-Kelvin
 Total                   72.297             14.556             64.340
 Electronic               0.000              0.000              0.000
 Translational            0.889              2.981             37.993
 Rotational               0.889              2.981             22.243
 Vibrational             70.520              8.594              4.105
 Vibration     1          0.634              1.851              2.207

 Normal termination of Gaussian 09 at Fri Jul 23 00:16:54 2021.
