 Gaussian 09, Revision D.01,
 Gaussian 09:  ES64L-G09RevD.01 24-Apr-2013

 -------------------------
 #P OPT Freq B3LYP/6-31G**
 -------------------------

 -------
 Frag_40
 -------
 Symbolic Z-matrix:
 Charge =  0 Multiplicity = 1

 SCF Done:  E(RB3LYP) =  -358.319906392     A.U. after   15 cycles
 SCF Done:  E(RB3LYP) =  -358.319906312     A.U. after    9 cycles
 SCF Done:  E(RB3LYP) =  -358.319895764     A.U. after   10 cycles
 SCF Done:  E(RB3LYP) =  -358.319906647     A.U. after   10 cycles
 Optimization completed.
    -- Stationary point found.
 Normal termination of Gaussian 09 at Thu Jul 22 20:19:15 2021.

 ----------------------------------------------------------------------
 #P Geom=AllCheck Guess=TCheck SCRF=Check GenChk RB3LYP/6-31G(d,p) Freq
 ----------------------------------------------------------------------

 Structure from the checkpoint file:  "/vol2/users/liuj201281/HOFBenchmark/IsodesmicSplit/Sample60/Ring26/Running/Gau-275384.chk"
 -------
 Frag_40
 -------
 Charge =  0 Multiplicity = 1

                         Standard orientation:
 ---------------------------------------------------------------------
 Center     Atomic      Atomic             Coordinates (Angstroms)
 Number     Number       Type             X           Y           Z
 ---------------------------------------------------------------------
      1          6           0        1.465629    1.111587    0.000044
      2          6           0        0.732227   -0.000815    0.000023
      3          8           0        1.163924   -1.263684    0.000032
      4          7           0       -0.754493    0.092134   -0.000028
      5          8           0       -1.343261   -0.999252    0.000003
      6          8           0       -1.294617    1.187080   -0.000075
      7          1           0        0.981273    2.076322    0.000023
      8          1           0        2.545381    1.043286    0.000065
      9          1           0        0.359295   -1.822322    0.000015
 ---------------------------------------------------------------------

 SCF Done:  E(RB3LYP) =  -358.319906647     A.U. after    1 cycles

 The electronic state is 1-A.
 Alpha  occ. eigenvalues --  -19.21116 -19.20940 -19.20841 -14.59427 -10.31753
 Alpha  occ. eigenvalues --  -10.21757  -1.25153  -1.10719  -1.07310  -0.82961
 Alpha  occ. eigenvalues --   -0.72779  -0.61500  -0.59096  -0.55689  -0.53561
 Alpha  occ. eigenvalues --   -0.48732  -0.44870  -0.43207  -0.42242  -0.33651
 Alpha  occ. eigenvalues --   -0.33634  -0.31591  -0.26993
 Alpha virt. eigenvalues --   -0.10554   0.03228   0.08039   0.11456   0.14049
 Alpha virt. eigenvalues --    0.17329   0.24974   0.26656   0.29353   0.35095
 Alpha virt. eigenvalues --    0.49931   0.50635   0.54434   0.57074   0.59981

 Mulliken charges:
               1
     1  C   -0.264628
     2  C    0.520069
     3  O   -0.530877
     4  N    0.410957
     5  O   -0.399703
     6  O   -0.375739
     7  H    0.154317
     8  H    0.139616
     9  H    0.345989
 Sum of Mulliken charges =   0.00000

 Dipole moment (field-independent basis, Debye):
    X=              1.8269    Y=              0.0595    Z=              0.0000  Tot=              1.8278
 Quadrupole moment (field-independent basis, Debye-Ang):
   XX=            -36.7375   YY=            -32.0669   ZZ=            -33.3127
   XY=              2.9425   XZ=             -0.0001   YZ=              0.0002

  Exact polarizability:  48.748   8.338  52.663   0.001   0.000  16.509
 Approx polarizability:  75.128  18.128 108.304   0.001  -0.001  23.916

                      1                      2                      3
                      A                      A                      A
 Frequencies --    105.7275               342.7088               426.5175
 Red. masses --      8.3477                 4.3657                 3.4829
 Frc consts  --      0.0550                 0.3021                 0.3733
 IR Inten    --      1.1872                 6.4134                14.5309

                      4                      5                      6
                      A                      A                      A
 Frequencies --    445.0506               527.4970               557.1516
 Red. masses --      3.9325                 1.1933                 6.1377
 Frc consts  --      0.4589                 0.1956                 1.1225
 IR Inten    --      0.6167                90.2528                 4.3861

                      7                      8                      9
                      A                      A                      A
 Frequencies --    621.6671               704.0362               793.1831
 Red. masses --      5.4157                 1.6089                 2.3580
 Frc consts  --      1.2332                 0.4699                 0.8741
 IR Inten    --      3.6730                26.6261                 1.8712

                     10                     11                     12
                      A                      A                      A
 Frequencies --    875.7520               885.0984               987.9146
 Red. masses --     10.0238                 1.3291                 1.9328
 Frc consts  --      4.5294                 0.6135                 1.1114
 IR Inten    --     34.0950                62.5510                32.5566

                     13                     14                     15
                      A                      A                      A
 Frequencies --   1193.5575              1375.9790              1384.6378
 Red. masses --      1.9837                 3.5710                 2.6396
 Frc consts  --      1.6650                 3.9835                 2.9817
 IR Inten    --     19.8900               291.8553               303.2942

                     16                     17                     18
                      A                      A                      A
 Frequencies --   1432.1029              1663.5049              1769.2148
 Red. masses --      1.2534                10.7030                 6.7580
 Frc consts  --      1.5145                17.4504                12.4632
 IR Inten    --      5.5829               165.5788                43.0759

                     19                     20                     21
                      A                      A                      A
 Frequencies --   3214.2616              3322.5655              3613.6098
 Red. masses --      1.0598                 1.1189                 1.0629
 Frc consts  --      6.4509                 7.2774                 8.1773
 IR Inten    --      5.8159                 2.6816               163.4667

 - Thermochemistry -
 -------------------
 Temperature   298.150 Kelvin.  Pressure   1.00000 Atm.
 Atom     1 has atomic number  6 and mass  12.00000

 Molecular mass:    89.01129 amu.
 Principal axes and moments of inertia in atomic units:
                           1         2         3
     Eigenvalues --   311.87087 447.88018 759.75105
           X            0.99425   0.10705  -0.00003
           Y           -0.10705   0.99425   0.00002
           Z            0.00003  -0.00001   1.00000
 This molecule is an asymmetric top.
 Rotational symmetry number  1.
 Rotational temperatures (Kelvin)      0.27772     0.19339     0.11400
 Rotational constants (GHZ):           5.78682     4.02952     2.37544
 Zero-point vibrational energy     156960.5 (Joules/Mol)
                                   37.51445 (Kcal/Mol)
 Warning -- explicit consideration of   6 degrees of freedom as
           vibrations may cause significant error
 Vibrational temperatures:    152.12   493.08   613.66   640.33   758.95
          (Kelvin)            801.62   894.44  1012.95  1141.21  1260.01
                             1273.46  1421.39  1717.26  1979.72  1992.18
                             2060.47  2393.41  2545.50  4624.60  4780.42
                             5199.17

 Zero-point correction=                           0.059783 (Hartree/Particle)
 Thermal correction to Energy=                    0.065190
 Thermal correction to Enthalpy=                  0.066134
 Thermal correction to Gibbs Free Energy=         0.030822
 Sum of electronic and zero-point Energies=           -358.260124
 Sum of electronic and thermal Energies=              -358.254717
 Sum of electronic and thermal Enthalpies=            -358.253773
 Sum of electronic and thermal Free Energies=         -358.289085

                     E (Thermal)             CV                S
                      KCal/Mol        Cal/Mol-Kelvin    Cal/Mol-Kelvin
 Total                   40.907             19.110             74.320
 Electronic               0.000              0.000              0.000
 Translational            0.889              2.981             39.371
 Rotational               0.889              2.981             26.165
 Vibrational             39.130             13.148              8.784
 Vibration     1          0.605              1.945              3.346
 Vibration     2          0.722              1.590              1.200
 Vibration     3          0.788              1.413              0.870
 Vibration     4          0.804              1.372              0.811
 Vibration     5          0.882              1.189              0.593
 Vibration     6          0.913              1.124              0.530

 Optimization completed.
    -- Stationary point found.
 Normal termination of Gaussian 09 at Thu Jul 22 20:19:28 2021.
