 Gaussian 09, Revision E.01,
 Gaussian 09:  ES64L-G09RevE.01 30-Nov-2015

 --------------------------------
 #P OPT=calcfc Freq B3LYP/6-31G**
 --------------------------------

 --------
 Frag_299
 --------
 Symbolic Z-matrix:
 Charge =  0 Multiplicity = 1

 SCF Done:  E(RB3LYP) =  -285.197034045     A.U. after   12 cycles
 SCF Done:  E(RB3LYP) =  -285.205725145     A.U. after   11 cycles
 SCF Done:  E(RB3LYP) =  -285.207174752     A.U. after   11 cycles
 SCF Done:  E(RB3LYP) =  -285.207241993     A.U. after   10 cycles
 SCF Done:  E(RB3LYP) =  -285.207264419     A.U. after   10 cycles
 SCF Done:  E(RB3LYP) =  -285.207270319     A.U. after    9 cycles
 SCF Done:  E(RB3LYP) =  -285.207270647     A.U. after    6 cycles
 Optimization completed.
    -- Stationary point found.
 Normal termination of Gaussian 09 at Fri Sep 10 19:24:28 2021.

 ----------------------------------------------------------------------
 #P Geom=AllCheck Guess=TCheck SCRF=Check GenChk RB3LYP/6-31G(d,p) Freq
 ----------------------------------------------------------------------

 Structure from the checkpoint file:  "/public/home/users/caep010/.cache/gau_scr/Gau-196494.chk"
 --------
 Frag_299
 --------
 Charge =  0 Multiplicity = 1

                         Standard orientation:
 ---------------------------------------------------------------------
 Center     Atomic      Atomic             Coordinates (Angstroms)
 Number     Number       Type             X           Y           Z
 ---------------------------------------------------------------------
      1          6           0        1.684399   -0.816408   -0.224366
      2          6           0        0.418627    0.020333    0.012360
      3          7           0        0.452043    0.549365    1.378066
      4          7           0        0.336431    1.204579   -0.865210
      5          6           0       -0.849926   -0.823324   -0.272494
      6          7           0       -2.036603   -0.044221    0.076409
      7          1           0        1.719047   -1.694034    0.432780
      8          1           0        2.573931   -0.209909   -0.029529
      9          1           0        1.726264   -1.175710   -1.258359
     10          1           0        0.644955   -0.213662    2.023666
     11          1           0       -0.492885    0.868221    1.594997
     12          1           0        1.033728    1.874679   -0.549099
     13          1           0        0.569830    0.946260   -1.822076
     14          1           0       -0.820169   -1.159641   -1.326362
     15          1           0       -0.823493   -1.727848    0.348367
     16          1           0       -2.029264    0.800975   -0.491356
     17          1           0       -2.883643   -0.561004   -0.140888
 ---------------------------------------------------------------------

 SCF Done:  E(RB3LYP) =  -285.207270647     A.U. after    1 cycles

 The electronic state is 1-A.
 Alpha  occ. eigenvalues --  -14.30552 -14.30341 -14.29724 -10.23602 -10.19841
 Alpha  occ. eigenvalues --  -10.17290  -0.91877  -0.85814  -0.82458  -0.72214
 Alpha  occ. eigenvalues --   -0.65658  -0.56027  -0.50008  -0.48381  -0.45515
 Alpha  occ. eigenvalues --   -0.43773  -0.42782  -0.39741  -0.39068  -0.36731
 Alpha  occ. eigenvalues --   -0.35660  -0.33973  -0.23936  -0.23259  -0.22572
 Alpha virt. eigenvalues --    0.06829   0.10878   0.13029   0.13312   0.14713
 Alpha virt. eigenvalues --    0.15489   0.17354   0.18149   0.18434   0.20429
 Alpha virt. eigenvalues --    0.21424   0.23627   0.24845   0.26732   0.27043

 Mulliken charges:
               1
     1  C   -0.310790
     2  C    0.230399
     3  N   -0.587196
     4  N   -0.592562
     5  C   -0.016837
     6  N   -0.616616
     7  H    0.093201
     8  H    0.111339
     9  H    0.092605
    10  H    0.228249
    11  H    0.256968
    12  H    0.246919
    13  H    0.228643
    14  H    0.060260
    15  H    0.085249
    16  H    0.256258
    17  H    0.233914
 Sum of Mulliken charges =  -0.00000

 Dipole moment (field-independent basis, Debye):
    X=              0.0726    Y=             -1.4577    Z=             -1.3712  Tot=              2.0026
 Quadrupole moment (field-independent basis, Debye-Ang):
   XX=            -36.7247   YY=            -39.2391   ZZ=            -37.0685
   XY=              1.0589   XZ=              0.0939   YZ=             -2.2354

  Exact polarizability:  57.643  -0.302  53.207  -0.030  -0.707  53.054
 Approx polarizability:  72.332  -0.405  74.960   0.360  -0.927  75.280

                      1                      2                      3
                      A                      A                      A
 Frequencies --    177.9019               234.8122               249.9144
 Red. masses --      2.5758                 1.4645                 1.3863
 Frc consts  --      0.0480                 0.0476                 0.0510
 IR Inten    --      6.0218                 5.6613                 1.4130

                      4                      5                      6
                      A                      A                      A
 Frequencies --    278.5778               315.6518               337.2026
 Red. masses --      1.1243                 1.2217                 1.1589
 Frc consts  --      0.0514                 0.0717                 0.0776
 IR Inten    --     24.3724                41.9404                46.1215

                      7                      8                      9
                      A                      A                      A
 Frequencies --    376.3334               383.4912               445.0221
 Red. masses --      2.2215                 2.5256                 2.0809
 Frc consts  --      0.1854                 0.2188                 0.2428
 IR Inten    --     11.4078                14.5731                 5.9303

                     10                     11                     12
                      A                      A                      A
 Frequencies --    482.3923               566.6250               759.2525
 Red. masses --      2.7551                 2.9780                 3.3810
 Frc consts  --      0.3777                 0.5633                 1.1483
 IR Inten    --      2.3330                22.6394                 4.2144

                     13                     14                     15
                      A                      A                      A
 Frequencies --    868.2057               894.4766               922.3838
 Red. masses --      1.6707                 1.5025                 1.8120
 Frc consts  --      0.7420                 0.7083                 0.9083
 IR Inten    --    128.8368                65.0936               114.1282

                     16                     17                     18
                      A                      A                      A
 Frequencies --    938.9300               967.6562              1020.4337
 Red. masses --      1.2778                 1.5165                 1.4467
 Frc consts  --      0.6637                 0.8367                 0.8876
 IR Inten    --     87.3783                29.1653                29.9638

                     19                     20                     21
                      A                      A                      A
 Frequencies --   1041.8351              1078.4899              1094.9650
 Red. masses --      1.8933                 1.5806                 1.7681
 Frc consts  --      1.2108                 1.0832                 1.2490
 IR Inten    --     58.2858                 8.2838                 0.4759

                     22                     23                     24
                      A                      A                      A
 Frequencies --   1176.7815              1260.1578              1306.7710
 Red. masses --      1.3444                 1.9821                 1.5188
 Frc consts  --      1.0969                 1.8544                 1.5281
 IR Inten    --      5.5546                40.9210                12.9950

                     25                     26                     27
                      A                      A                      A
 Frequencies --   1350.6864              1365.5614              1420.2259
 Red. masses --      1.6705                 1.6729                 1.3940
 Frc consts  --      1.7956                 1.8379                 1.6566
 IR Inten    --     24.2141                 6.5469                 9.5396

                     28                     29                     30
                      A                      A                      A
 Frequencies --   1430.0130              1500.9540              1510.2001
 Red. masses --      1.4023                 1.0570                 1.0605
 Frc consts  --      1.6895                 1.4030                 1.4251
 IR Inten    --      5.8073                 0.3939                 3.1513

                     31                     32                     33
                      A                      A                      A
 Frequencies --   1523.1037              1636.3278              1640.9329
 Red. masses --      1.0836                 1.1011                 1.0989
 Frc consts  --      1.4811                 1.7370                 1.7434
 IR Inten    --      3.4170                37.4442                39.5423

                     34                     35                     36
                      A                      A                      A
 Frequencies --   1674.8663              2930.0661              3033.1820
 Red. masses --      1.0964                 1.0731                 1.0380
 Frc consts  --      1.8120                 5.4279                 5.6267
 IR Inten    --     30.1715                94.1607                18.1199

                     37                     38                     39
                      A                      A                      A
 Frequencies --   3054.6444              3100.5429              3123.7614
 Red. masses --      1.0873                 1.1003                 1.1025
 Frc consts  --      5.9773                 6.2323                 6.3386
 IR Inten    --     39.8537                39.2941                23.7297

                     40                     41                     42
                      A                      A                      A
 Frequencies --   3469.9016              3482.7535              3492.9408
 Red. masses --      1.0508                 1.0492                 1.0495
 Frc consts  --      7.4540                 7.4980                 7.5442
 IR Inten    --      7.3480                 2.0582                 5.9751

                     43                     44                     45
                      A                      A                      A
 Frequencies --   3557.8635              3579.3529              3586.8320
 Red. masses --      1.0901                 1.0928                 1.0927
 Frc consts  --      8.1298                 8.2487                 8.2830
 IR Inten    --      4.0273                 0.3358                 2.5143

 - Thermochemistry -
 -------------------
 Temperature   298.150 Kelvin.  Pressure   1.00000 Atm.
 Atom     1 has atomic number  6 and mass  12.00000

 Molecular mass:    89.09530 amu.
 Principal axes and moments of inertia in atomic units:
                           1         2         3
     Eigenvalues --   387.32852 674.33666 684.09645
           X            0.99987  -0.01583  -0.00266
           Y            0.01529   0.98963  -0.14280
           Z            0.00490   0.14274   0.98975
 This molecule is an asymmetric top.
 Rotational symmetry number  1.
 Rotational temperatures (Kelvin)      0.22362     0.12844     0.12661
 Rotational constants (GHZ):           4.65946     2.67632     2.63814
 Zero-point vibrational energy     410576.2 (Joules/Mol)
                                   98.13006 (Kcal/Mol)
 Warning -- explicit consideration of  11 degrees of freedom as
           vibrations may cause significant error
 Vibrational temperatures:    255.96   337.84   359.57   400.81   454.15
          (Kelvin)            485.16   541.46   551.76   640.29   694.05
                              815.25  1092.39  1249.15  1286.95  1327.10
                             1350.91  1392.24  1468.17  1498.97  1551.70
                             1575.41  1693.12  1813.08  1880.15  1943.33
                             1964.74  2043.39  2057.47  2159.54  2172.84
                             2191.40  2354.31  2360.93  2409.76  4215.71
                             4364.07  4394.95  4460.98  4494.39  4992.41
                             5010.90  5025.56  5118.97  5149.88  5160.64

 Zero-point correction=                           0.156380 (Hartree/Particle)
 Thermal correction to Energy=                    0.163930
 Thermal correction to Enthalpy=                  0.164874
 Thermal correction to Gibbs Free Energy=         0.126098
 Sum of electronic and zero-point Energies=           -285.050890
 Sum of electronic and thermal Energies=              -285.043341
 Sum of electronic and thermal Enthalpies=            -285.042396
 Sum of electronic and thermal Free Energies=         -285.081173

                     E (Thermal)             CV                S
                      KCal/Mol        Cal/Mol-Kelvin    Cal/Mol-Kelvin
 Total                  102.868             28.829             81.611
 Electronic               0.000              0.000              0.000
 Translational            0.889              2.981             39.374
 Rotational               0.889              2.981             26.682
 Vibrational            101.090             22.868             15.555
 Vibration     1          0.628              1.870              2.350
 Vibration     2          0.655              1.788              1.842
 Vibration     3          0.663              1.763              1.731
 Vibration     4          0.679              1.713              1.542
 Vibration     5          0.703              1.644              1.333
 Vibration     6          0.718              1.601              1.225
 Vibration     7          0.747              1.521              1.054
 Vibration     8          0.753              1.505              1.025
 Vibration     9          0.804              1.372              0.811
 Vibration    10          0.839              1.289              0.704
 Vibration    11          0.923              1.103              0.511

 Optimization completed.
    -- Stationary point found.
 Normal termination of Gaussian 09 at Fri Sep 10 19:24:42 2021.
