 Gaussian 09, Revision E.01,
 Gaussian 09:  ES64L-G09RevE.01 30-Nov-2015

 ----------------------------
 #P OPT Freq B3LYP/6-31G(d,p)
 ----------------------------

 --------
 Frag_835
 --------
 Symbolic Z-matrix:
 Charge =  0 Multiplicity = 1

 SCF Done:  E(RB3LYP) =  -347.800522546     A.U. after   12 cycles
 SCF Done:  E(RB3LYP) =  -347.800546823     A.U. after    9 cycles
 SCF Done:  E(RB3LYP) =  -347.800546295     A.U. after    9 cycles
 SCF Done:  E(RB3LYP) =  -347.800551065     A.U. after    8 cycles
 SCF Done:  E(RB3LYP) =  -347.800551274     A.U. after    7 cycles
 SCF Done:  E(RB3LYP) =  -347.800551242     A.U. after    6 cycles
 Optimization completed.
    -- Stationary point found.
 Normal termination of Gaussian 09 at Thu Sep  8 15:15:54 2022.

 ----------------------------------------------------------------------
 #P Geom=AllCheck Guess=TCheck SCRF=Check GenChk RB3LYP/6-31G(d,p) Freq
 ----------------------------------------------------------------------

 Structure from the checkpoint file:  "B3LYP6-31Gdp.Frag_835.chk"
 --------
 Frag_835
 --------
 Charge =  0 Multiplicity = 1

                         Standard orientation:
 ---------------------------------------------------------------------
 Center     Atomic      Atomic             Coordinates (Angstroms)
 Number     Number       Type             X           Y           Z
 ---------------------------------------------------------------------
      1          6           0       -1.309744    0.915894   -1.144072
      2          6           0       -0.787877    0.019060   -0.003144
      3          6           0       -1.353972   -1.403334   -0.196926
      4          6           0       -1.330934    0.568476    1.334916
      5          6           0        0.801525   -0.029161    0.001825
      6          6           0        1.433126    1.379618   -0.000377
      7          7           0        1.230792   -0.820473    1.168776
      8          7           0        1.386893   -0.740375   -1.143220
      9          1           0       -2.399194    0.831159   -1.219038
     10          1           0       -0.897731    0.621722   -2.116088
     11          1           0       -1.075870    1.972478   -0.983475
     12          1           0       -1.155102   -1.786268   -1.203649
     13          1           0       -2.441332   -1.398380   -0.065580
     14          1           0       -0.918840   -2.094747    0.528755
     15          1           0       -1.092751   -0.098605    2.168862
     16          1           0       -2.422483    0.651400    1.290392
     17          1           0       -0.941477    1.565592    1.565135
     18          1           0        1.089782    1.979669    0.847350
     19          1           0        1.211804    1.938514   -0.915483
     20          1           0        2.519475    1.275186    0.067253
     21          1           0        1.095224   -0.285946    2.022768
     22          1           0        2.232611   -0.975363    1.073656
     23          1           0        1.022851   -1.688862   -1.176743
     24          1           0        1.136497   -0.284939   -2.016337
 ---------------------------------------------------------------------

 SCF Done:  E(RB3LYP) =  -347.800551242     A.U. after    1 cycles

 The electronic state is 1-A.
 Alpha  occ. eigenvalues --  -14.30572 -14.30349 -10.23812 -10.19062 -10.17078
 Alpha  occ. eigenvalues --  -10.16953 -10.16804 -10.16181  -0.91551  -0.82671
 Alpha  occ. eigenvalues --   -0.79490  -0.71136  -0.67927  -0.67236  -0.60111
 Alpha  occ. eigenvalues --   -0.52781  -0.48904  -0.48538  -0.44688  -0.43547
 Alpha  occ. eigenvalues --   -0.42537  -0.40709  -0.38711  -0.38651  -0.37627
 Alpha  occ. eigenvalues --   -0.37008  -0.36398  -0.35483  -0.32328  -0.31726
 Alpha  occ. eigenvalues --   -0.31388  -0.23682  -0.22782
 Alpha virt. eigenvalues --    0.06381   0.11156   0.11897   0.12748   0.13047
 Alpha virt. eigenvalues --    0.14189   0.14588   0.15554   0.16639   0.18145
 Alpha virt. eigenvalues --    0.19501   0.20306   0.20387   0.21049   0.22089

 Mulliken charges:
               1
     1  C   -0.309878
     2  C    0.071950
     3  C   -0.313007
     4  C   -0.322091
     5  C    0.249157
     6  C   -0.308419
     7  N   -0.593553
     8  N   -0.597764
     9  H    0.097921
    10  H    0.082465
    11  H    0.100011
    12  H    0.079642
    13  H    0.089733
    14  H    0.126109
    15  H    0.106312
    16  H    0.097367
    17  H    0.093403
    18  H    0.092924
    19  H    0.095140
    20  H    0.106067
    21  H    0.233563
    22  H    0.242991
    23  H    0.245142
    24  H    0.234816
 Sum of Mulliken charges =  -0.00000

 Dipole moment (field-independent basis, Debye):
    X=             -0.3932    Y=              0.9174    Z=             -0.0807  Tot=              1.0014
 Quadrupole moment (field-independent basis, Debye-Ang):
   XX=            -54.4483   YY=            -54.3118   ZZ=            -50.0654
   XY=              0.8870   XZ=              2.1036   YZ=              1.6809

  Exact polarizability:  81.646  -0.107  76.131   0.287   0.243  77.632
 Approx polarizability: 109.553  -2.396 107.402  -0.807  -0.017 111.668

                      1                      2                      3
                      A                      A                      A
 Frequencies --     84.3835               220.8491               244.9289
 Red. masses --      2.5695                 1.0371                 1.1618
 Frc consts  --      0.0108                 0.0298                 0.0411
 IR Inten    --      0.3005                 1.8565                11.0887

                      4                      5                      6
                      A                      A                      A
 Frequencies --    257.6273               273.0653               278.8769
 Red. masses --      1.1637                 1.3641                 1.4267
 Frc consts  --      0.0455                 0.0599                 0.0654
 IR Inten    --      2.6197                 0.6366                20.5691

                      7                      8                      9
                      A                      A                      A
 Frequencies --    300.5207               301.7118               323.7481
 Red. masses --      1.9360                 1.6434                 1.2165
 Frc consts  --      0.1030                 0.0881                 0.0751
 IR Inten    --      3.0316                 4.5157                15.1924

                     10                     11                     12
                      A                      A                      A
 Frequencies --    367.0355               372.1472               381.1107
 Red. masses --      1.7151                 2.4641                 2.1394
 Frc consts  --      0.1361                 0.2011                 0.1831
 IR Inten    --      6.2724                 1.3240                 2.5044

                     13                     14                     15
                      A                      A                      A
 Frequencies --    402.1967               429.5077               499.4239
 Red. masses --      2.2685                 2.2518                 2.6182
 Frc consts  --      0.2162                 0.2447                 0.3848
 IR Inten    --      7.5810                10.3557                 6.0776

                     16                     17                     18
                      A                      A                      A
 Frequencies --    511.5776               518.0061               660.3060
 Red. masses --      2.4379                 2.7474                 3.0439
 Frc consts  --      0.3759                 0.4343                 0.7819
 IR Inten    --      1.5442                 2.1720                 3.7861

                     19                     20                     21
                      A                      A                      A
 Frequencies --    818.5526               866.6244               891.3665
 Red. masses --      2.5555                 1.7129                 1.9877
 Frc consts  --      1.0088                 0.7580                 0.9305
 IR Inten    --     20.2985               110.7860               125.6895

                     22                     23                     24
                      A                      A                      A
 Frequencies --    932.9568               936.4730               942.9861
 Red. masses --      1.3752                 1.7421                 1.4900
 Frc consts  --      0.7052                 0.9001                 0.7806
 IR Inten    --     65.9133                 2.2672                27.1922

                     25                     26                     27
                      A                      A                      A
 Frequencies --    961.6902               984.0069               998.0030
 Red. masses --      1.2095                 1.5670                 1.8402
 Frc consts  --      0.6591                 0.8940                 1.0799
 IR Inten    --      0.7875                25.9041                 5.9806

                     28                     29                     30
                      A                      A                      A
 Frequencies --   1040.3849              1050.1028              1090.5777
 Red. masses --      1.3686                 1.3829                 1.4922
 Frc consts  --      0.8728                 0.8985                 1.0457
 IR Inten    --      3.3085                 7.6728                12.4578

                     31                     32                     33
                      A                      A                      A
 Frequencies --   1205.3250              1231.9951              1249.5985
 Red. masses --      2.2442                 2.2868                 2.6047
 Frc consts  --      1.9210                 2.0451                 2.3964
 IR Inten    --     56.9397                 9.9808                 2.8180

                     34                     35                     36
                      A                      A                      A
 Frequencies --   1276.3245              1316.0219              1343.1878
 Red. masses --      2.9308                 2.0961                 1.7612
 Frc consts  --      2.8130                 2.1389                 1.8722
 IR Inten    --      7.1707                 9.7609                10.3121

                     37                     38                     39
                      A                      A                      A
 Frequencies --   1404.2125              1410.1497              1417.0385
 Red. masses --      1.2612                 1.2447                 1.2720
 Frc consts  --      1.4652                 1.4583                 1.5048
 IR Inten    --      4.0835                 6.3196                15.1841

                     40                     41                     42
                      A                      A                      A
 Frequencies --   1440.1711              1494.5309              1501.6996
 Red. masses --      1.2289                 1.0501                 1.0525
 Frc consts  --      1.5017                 1.3819                 1.3984
 IR Inten    --      7.8098                 0.3581                 0.1469

                     43                     44                     45
                      A                      A                      A
 Frequencies --   1505.0427              1511.4538              1514.4896
 Red. masses --      1.0510                 1.0469                 1.0498
 Frc consts  --      1.4027                 1.4092                 1.4188
 IR Inten    --      0.5181                 1.2355                 6.1273

                     46                     47                     48
                      A                      A                      A
 Frequencies --   1525.9295              1528.1480              1540.7542
 Red. masses --      1.0519                 1.0512                 1.0576
 Frc consts  --      1.4430                 1.4463                 1.4792
 IR Inten    --      0.8800                 3.5206                11.7221

                     49                     50                     51
                      A                      A                      A
 Frequencies --   1645.9463              1652.5892              3037.8334
 Red. masses --      1.1015                 1.1036                 1.0360
 Frc consts  --      1.7581                 1.7758                 5.6327
 IR Inten    --     48.7025                12.9446                21.6530

                     52                     53                     54
                      A                      A                      A
 Frequencies --   3040.4565              3046.2142              3051.6627
 Red. masses --      1.0357                 1.0366                 1.0366
 Frc consts  --      5.6413                 5.6676                 5.6877
 IR Inten    --     31.7798                24.2396                13.8519

                     55                     56                     57
                      A                      A                      A
 Frequencies --   3099.3364              3101.6788              3107.4792
 Red. masses --      1.1016                 1.1017                 1.1001
 Frc consts  --      6.2344                 6.2447                 6.2588
 IR Inten    --      0.8833                11.7432                78.6100

                     58                     59                     60
                      A                      A                      A
 Frequencies --   3114.5916              3121.1143              3121.9821
 Red. masses --      1.1012                 1.1017                 1.1008
 Frc consts  --      6.2940                 6.3233                 6.3215
 IR Inten    --     50.2419                41.3188                 8.1782

                     61                     62                     63
                      A                      A                      A
 Frequencies --   3132.3436              3138.2066              3491.1083
 Red. masses --      1.1026                 1.1012                 1.0499
 Frc consts  --      6.3737                 6.3895                 7.5390
 IR Inten    --     28.9822                17.6806                 0.8184

                     64                     65                     66
                      A                      A                      A
 Frequencies --   3506.8675              3582.0752              3601.3494
 Red. masses --      1.0484                 1.0918                 1.0930
 Frc consts  --      7.5968                 8.2539                 8.3520
 IR Inten    --      0.4371                 0.0735                 0.1639

 - Thermochemistry -
 -------------------
 Temperature   298.150 Kelvin.  Pressure   1.00000 Atm.
 Atom     1 has atomic number  6 and mass  12.00000

 Molecular mass:   116.13135 amu.
 Principal axes and moments of inertia in atomic units:
                           1         2         3
     Eigenvalues --   761.475581064.893701078.44216
           X            0.99936   0.02990   0.01964
           Y           -0.03378   0.96957   0.24246
           Z           -0.01179  -0.24296   0.96996
 This molecule is an asymmetric top.
 Rotational symmetry number  1.
 Warning -- assumption of classical behavior for rotation
           may cause significant error
 Rotational temperatures (Kelvin)      0.11374     0.08134     0.08031
 Rotational constants (GHZ):           2.37006     1.69476     1.67347
 Zero-point vibrational energy     585869.0 (Joules/Mol)
                                  140.02606 (Kcal/Mol)
 Warning -- explicit consideration of  17 degrees of freedom as
           vibrations may cause significant error
 Vibrational temperatures:    121.41   317.75   352.40   370.67   392.88
          (Kelvin)            401.24   432.38   434.10   465.80   528.08
                              535.44   548.33   578.67   617.97   718.56
                              736.05   745.29   950.03  1177.71  1246.88
                             1282.48  1342.32  1347.37  1356.75  1383.66
                             1415.76  1435.90  1496.88  1510.86  1569.10
                             1734.19  1772.56  1797.89  1836.34  1893.46
                             1932.55  2020.35  2028.89  2038.80  2072.08
                             2150.29  2160.61  2165.42  2174.64  2179.01
                             2195.47  2198.66  2216.80  2368.15  2377.70
                             4370.76  4374.53  4382.82  4390.66  4459.25
                             4462.62  4470.96  4481.20  4490.58  4491.83
                             4506.74  4515.17  5022.92  5045.59  5153.80
                             5181.53

 Zero-point correction=                           0.223146 (Hartree/Particle)
 Thermal correction to Energy=                    0.233435
 Thermal correction to Enthalpy=                  0.234380
 Thermal correction to Gibbs Free Energy=         0.189789
 Sum of electronic and zero-point Energies=           -347.577406
 Sum of electronic and thermal Energies=              -347.567116
 Sum of electronic and thermal Enthalpies=            -347.566172
 Sum of electronic and thermal Free Energies=         -347.610762

                     E (Thermal)             CV                S
                      KCal/Mol        Cal/Mol-Kelvin    Cal/Mol-Kelvin
 Total                  146.483             40.926             93.848
 Electronic               0.000              0.000              0.000
 Translational            0.889              2.981             40.164
 Rotational               0.889              2.981             28.260
 Vibrational            144.705             34.965             25.424
 Vibration     1          0.601              1.960              3.786
 Vibration     2          0.648              1.809              1.952
 Vibration     3          0.660              1.771              1.767
 Vibration     4          0.667              1.750              1.678
 Vibration     5          0.676              1.723              1.577
 Vibration     6          0.679              1.713              1.541
 Vibration     7          0.693              1.673              1.414
 Vibration     8          0.694              1.670              1.407
 Vibration     9          0.708              1.628              1.291
 Vibration    10          0.740              1.540              1.092
 Vibration    11          0.744              1.529              1.071
 Vibration    12          0.751              1.510              1.035
 Vibration    13          0.768              1.465              0.955
 Vibration    14          0.791              1.406              0.860
 Vibration    15          0.855              1.251              0.660
 Vibration    16          0.867              1.224              0.630
 Vibration    17          0.873              1.210              0.615

 Optimization completed.
    -- Stationary point found.
 Normal termination of Gaussian 09 at Thu Sep  8 15:16:24 2022.
