 Gaussian 09, Revision E.01,
 Gaussian 09:  ES64L-G09RevE.01 30-Nov-2015

 ----------------------------
 #P OPT Freq B3LYP/6-31G(d,p)
 ----------------------------

 --------
 Frag_582
 --------
 Symbolic Z-matrix:
 Charge =  0 Multiplicity = 1

 SCF Done:  E(RB3LYP) =  -267.951421694     A.U. after   13 cycles
 SCF Done:  E(RB3LYP) =  -267.951464712     A.U. after   10 cycles
 SCF Done:  E(RB3LYP) =  -267.951468250     A.U. after    8 cycles
 SCF Done:  E(RB3LYP) =  -267.951470166     A.U. after    8 cycles
 SCF Done:  E(RB3LYP) =  -267.951471614     A.U. after    8 cycles
 SCF Done:  E(RB3LYP) =  -267.951473553     A.U. after    9 cycles
 SCF Done:  E(RB3LYP) =  -267.951473953     A.U. after    8 cycles
 SCF Done:  E(RB3LYP) =  -267.951473976     A.U. after    8 cycles
 SCF Done:  E(RB3LYP) =  -267.951473947     A.U. after    6 cycles
 SCF Done:  E(RB3LYP) =  -267.951473975     A.U. after    7 cycles
 SCF Done:  E(RB3LYP) =  -267.951474034     A.U. after    6 cycles
 Optimization completed.
    -- Stationary point found.
 Normal termination of Gaussian 09 at Thu Sep  8 14:59:15 2022.

 ----------------------------------------------------------------------
 #P Geom=AllCheck Guess=TCheck SCRF=Check GenChk RB3LYP/6-31G(d,p) Freq
 ----------------------------------------------------------------------

 Structure from the checkpoint file:  "B3LYP6-31Gdp.Frag_582.chk"
 --------
 Frag_582
 --------
 Charge =  0 Multiplicity = 1

                         Standard orientation:
 ---------------------------------------------------------------------
 Center     Atomic      Atomic             Coordinates (Angstroms)
 Number     Number       Type             X           Y           Z
 ---------------------------------------------------------------------
      1          6           0        1.830046    0.788351    0.265052
      2          6           0        0.748074   -0.243882    0.019604
      3          7           0        0.939949   -1.407936   -0.467850
      4          6           0       -0.687649    0.155213    0.389702
      5          6           0       -1.167546    1.348099   -0.455526
      6          7           0       -1.664776   -0.925313    0.291287
      7          1           0        2.825845    0.340173    0.203151
      8          1           0        1.773075    1.593706   -0.476079
      9          1           0        1.717140    1.254464    1.250373
     10          1           0        1.934367   -1.553364   -0.670800
     11          1           0       -0.663524    0.482202    1.440654
     12          1           0       -0.536127    2.230975   -0.321396
     13          1           0       -2.190316    1.603788   -0.169392
     14          1           0       -1.166119    1.088168   -1.520514
     15          1           0       -1.328435   -1.708685    0.849566
     16          1           0       -1.629668   -1.285374   -0.662616
 ---------------------------------------------------------------------

 SCF Done:  E(RB3LYP) =  -267.951474034     A.U. after    1 cycles

 The electronic state is 1-A.
 Alpha  occ. eigenvalues --  -14.31306 -14.29972 -10.23254 -10.21495 -10.19488
 Alpha  occ. eigenvalues --  -10.17781  -0.91258  -0.86233  -0.75001  -0.71470
 Alpha  occ. eigenvalues --   -0.62838  -0.54151  -0.48217  -0.46715  -0.45114
 Alpha  occ. eigenvalues --   -0.43104  -0.41266  -0.40195  -0.36789  -0.36121
 Alpha  occ. eigenvalues --   -0.34701  -0.29676  -0.25853  -0.23219
 Alpha virt. eigenvalues --    0.00605   0.07629   0.11636   0.12107   0.12905
 Alpha virt. eigenvalues --    0.15683   0.16203   0.16744   0.17600   0.19406
 Alpha virt. eigenvalues --    0.19721   0.23896   0.24082   0.26793   0.31374

 Mulliken charges:
               1
     1  C   -0.368681
     2  C    0.275680
     3  N   -0.532294
     4  C    0.012776
     5  C   -0.313676
     6  N   -0.576086
     7  H    0.111154
     8  H    0.135012
     9  H    0.122505
    10  H    0.217202
    11  H    0.100477
    12  H    0.098282
    13  H    0.128245
    14  H    0.107078
    15  H    0.240509
    16  H    0.241818
 Sum of Mulliken charges =  -0.00000

 Dipole moment (field-independent basis, Debye):
    X=              2.1798    Y=              1.4262    Z=              0.1405  Tot=              2.6087
 Quadrupole moment (field-independent basis, Debye-Ang):
   XX=            -39.0675   YY=            -38.7623   ZZ=            -37.2697
   XY=             -0.2271   XZ=              1.1038   YZ=             -0.5027

  Exact polarizability:  59.919  -1.427  61.863  -0.941   4.205  46.041
 Approx polarizability:  75.855  -2.422  91.315  -2.308  10.241  68.721

                      1                      2                      3
                      A                      A                      A
 Frequencies --     42.9198               121.5576               195.0651
 Red. masses --      2.3730                 1.1075                 1.1577
 Frc consts  --      0.0026                 0.0096                 0.0260
 IR Inten    --      6.5857                 0.9911                39.8798

                      4                      5                      6
                      A                      A                      A
 Frequencies --    219.0387               266.0820               316.5365
 Red. masses --      1.2615                 2.0676                 2.4672
 Frc consts  --      0.0357                 0.0862                 0.1456
 IR Inten    --      0.7794                 3.2026                 5.6462

                      7                      8                      9
                      A                      A                      A
 Frequencies --    381.3984               449.7601               557.0543
 Red. masses --      2.9223                 2.5048                 3.1019
 Frc consts  --      0.2505                 0.2985                 0.5671
 IR Inten    --      8.4973                 1.9439                10.9189

                     10                     11                     12
                      A                      A                      A
 Frequencies --    616.9426               752.5901               877.7408
 Red. masses --      2.6095                 2.6053                 1.1792
 Frc consts  --      0.5852                 0.8694                 0.5352
 IR Inten    --      3.7929                 9.1873                33.2957

                     13                     14                     15
                      A                      A                      A
 Frequencies --    923.2000               957.1450               974.5999
 Red. masses --      2.1093                 1.5401                 2.0846
 Frc consts  --      1.0592                 0.8313                 1.1666
 IR Inten    --      6.7061               131.6344                17.6136

                     16                     17                     18
                      A                      A                      A
 Frequencies --   1025.6595              1063.5803              1081.9965
 Red. masses --      1.3543                 1.3601                 1.5970
 Frc consts  --      0.8394                 0.9065                 1.1016
 IR Inten    --     10.2470                60.8630                38.9839

                     19                     20                     21
                      A                      A                      A
 Frequencies --   1127.4675              1173.7531              1274.6338
 Red. masses --      1.5826                 2.1018                 1.5441
 Frc consts  --      1.1853                 1.7060                 1.4781
 IR Inten    --     19.0454                 9.2161                19.8964

                     22                     23                     24
                      A                      A                      A
 Frequencies --   1320.0569              1374.8691              1405.9867
 Red. masses --      1.3729                 1.6479                 1.2103
 Frc consts  --      1.4095                 1.8352                 1.4097
 IR Inten    --     18.8695                33.4919                 4.5296

                     25                     26                     27
                      A                      A                      A
 Frequencies --   1415.7009              1427.0330              1487.6003
 Red. masses --      1.2903                 1.4183                 1.0558
 Frc consts  --      1.5237                 1.7017                 1.3766
 IR Inten    --     18.9525                 2.7287                15.2575

                     28                     29                     30
                      A                      A                      A
 Frequencies --   1496.5412              1506.9924              1515.9454
 Red. masses --      1.0629                 1.0508                 1.0497
 Frc consts  --      1.4025                 1.4060                 1.4212
 IR Inten    --     15.0870                 0.6806                 4.3901

                     31                     32                     33
                      A                      A                      A
 Frequencies --   1685.0370              1730.4707              3007.9889
 Red. masses --      1.0900                 8.2373                 1.0828
 Frc consts  --      1.8235                14.5333                 5.7725
 IR Inten    --     17.9316                58.8851                23.4689

                     34                     35                     36
                      A                      A                      A
 Frequencies --   3039.9759              3046.9646              3103.5190
 Red. masses --      1.0363                 1.0379                 1.1001
 Frc consts  --      5.6424                 5.6771                 6.2429
 IR Inten    --     10.1373                20.2277                17.6288

                     37                     38                     39
                      A                      A                      A
 Frequencies --   3117.9436              3125.5959              3142.7977
 Red. masses --      1.0998                 1.1031                 1.1026
 Frc consts  --      6.2992                 6.3492                 6.4164
 IR Inten    --     24.0619                27.1827                18.2085

                     40                     41                     42
                      A                      A                      A
 Frequencies --   3426.9925              3476.7474              3545.0738
 Red. masses --      1.0747                 1.0512                 1.0887
 Frc consts  --      7.4362                 7.4865                 8.0615
 IR Inten    --     10.8377                 0.0625                 0.1156

 - Thermochemistry -
 -------------------
 Temperature   298.150 Kelvin.  Pressure   1.00000 Atm.
 Atom     1 has atomic number  6 and mass  12.00000

 Molecular mass:    86.08440 amu.
 Principal axes and moments of inertia in atomic units:
                           1         2         3
     Eigenvalues --   384.10058 596.06208 855.85237
           X            0.99974   0.01760   0.01416
           Y           -0.01749   0.99981  -0.00842
           Z           -0.01430   0.00817   0.99986
 This molecule is an asymmetric top.
 Rotational symmetry number  1.
 Rotational temperatures (Kelvin)      0.22550     0.14531     0.10120
 Rotational constants (GHZ):           4.69862     3.02777     2.10871
 Zero-point vibrational energy     375618.8 (Joules/Mol)
                                   89.77504 (Kcal/Mol)
 Warning -- explicit consideration of  10 degrees of freedom as
           vibrations may cause significant error
 Vibrational temperatures:     61.75   174.89   280.65   315.15   382.83
          (Kelvin)            455.42   548.75   647.10   801.48   887.64
                             1082.81  1262.87  1328.28  1377.12  1402.23
                             1475.69  1530.25  1556.75  1622.17  1688.77
                             1833.91  1899.27  1978.13  2022.90  2036.88
                             2053.18  2140.32  2153.19  2168.22  2181.10
                             2424.39  2489.76  4327.82  4373.84  4383.90
                             4465.27  4486.02  4497.03  4521.78  4930.67
                             5002.26  5100.56

 Zero-point correction=                           0.143066 (Hartree/Particle)
 Thermal correction to Energy=                    0.150825
 Thermal correction to Enthalpy=                  0.151769
 Thermal correction to Gibbs Free Energy=         0.111208
 Sum of electronic and zero-point Energies=           -267.808408
 Sum of electronic and thermal Energies=              -267.800649
 Sum of electronic and thermal Enthalpies=            -267.799705
 Sum of electronic and thermal Free Energies=         -267.840266

                     E (Thermal)             CV                S
                      KCal/Mol        Cal/Mol-Kelvin    Cal/Mol-Kelvin
 Total                   94.644             26.989             85.370
 Electronic               0.000              0.000              0.000
 Translational            0.889              2.981             39.271
 Rotational               0.889              2.981             26.774
 Vibrational             92.867             21.028             19.324
 Vibration     1          0.595              1.980              5.120
 Vibration     2          0.609              1.931              3.075
 Vibration     3          0.636              1.847              2.179
 Vibration     4          0.647              1.812              1.967
 Vibration     5          0.672              1.735              1.622
 Vibration     6          0.703              1.642              1.328
 Vibration     7          0.751              1.510              1.034
 Vibration     8          0.809              1.361              0.797
 Vibration     9          0.913              1.124              0.530
 Vibration    10          0.977              0.996              0.421

 Optimization completed.
    -- Stationary point found.
 Normal termination of Gaussian 09 at Thu Sep  8 14:59:28 2022.
