 Gaussian 09, Revision E.01,
 Gaussian 09:  ES64L-G09RevE.01 30-Nov-2015

 ----------------------------
 #P OPT Freq B3LYP/6-31G(d,p)
 ----------------------------

 --------
 Frag_526
 --------
 Symbolic Z-matrix:
 Charge =  0 Multiplicity = 1

 SCF Done:  E(RB3LYP) =  -155.978942886     A.U. after   11 cycles
 SCF Done:  E(RB3LYP) =  -155.987198452     A.U. after   11 cycles
 SCF Done:  E(RB3LYP) =  -155.986610315     A.U. after   11 cycles
 SCF Done:  E(RB3LYP) =  -155.987267858     A.U. after    9 cycles
 SCF Done:  E(RB3LYP) =  -155.987298458     A.U. after    9 cycles
 SCF Done:  E(RB3LYP) =  -155.987319384     A.U. after    9 cycles
 SCF Done:  E(RB3LYP) =  -155.987323719     A.U. after    7 cycles
 Optimization completed.
    -- Stationary point found.
 Normal termination of Gaussian 09 at Thu Sep  8 20:27:58 2022.

 ----------------------------------------------------------------------
 #P Geom=AllCheck Guess=TCheck SCRF=Check GenChk RB3LYP/6-31G(d,p) Freq
 ----------------------------------------------------------------------

 Structure from the checkpoint file:  "B3LYP6-31Gdp.Frag_526.chk"
 --------
 Frag_526
 --------
 Charge =  0 Multiplicity = 1

                         Standard orientation:
 ---------------------------------------------------------------------
 Center     Atomic      Atomic             Coordinates (Angstroms)
 Number     Number       Type             X           Y           Z
 ---------------------------------------------------------------------
      1          6           0        2.065202    0.000042   -0.000066
      2          6           0        0.604593   -0.000089    0.000185
      3          6           0       -0.604596   -0.000092    0.000016
      4          6           0       -2.065206    0.000039   -0.000034
      5          1           0        2.464419    0.094118    1.016262
      6          1           0        2.464304   -0.927191   -0.426922
      7          1           0        2.463996    0.833340   -0.589724
      8          1           0       -2.464219   -0.281852   -0.981084
      9          1           0       -2.464448   -0.708539    0.734629
     10          1           0       -2.464011    0.990724    0.246231
 ---------------------------------------------------------------------

 SCF Done:  E(RB3LYP) =  -155.987323719     A.U. after    1 cycles

 The electronic state is 1-A.
 Alpha  occ. eigenvalues --  -10.19911 -10.19911 -10.16926 -10.16693  -0.77486
 Alpha  occ. eigenvalues --   -0.73906  -0.65965  -0.47504  -0.42792  -0.42506
 Alpha  occ. eigenvalues --   -0.42505  -0.41340  -0.41339  -0.24023  -0.24023
 Alpha virt. eigenvalues --    0.06834   0.06834   0.11619   0.11798   0.17064
 Alpha virt. eigenvalues --    0.17064   0.21083   0.21084   0.21321   0.26708
 Alpha virt. eigenvalues --    0.39179   0.43926   0.53056   0.53057   0.60388

 Mulliken charges:
               1
     1  C   -0.419434
     2  C    0.013915
     3  C    0.013935
     4  C   -0.419452
     5  H    0.135162
     6  H    0.135163
     7  H    0.135183
     8  H    0.135174
     9  H    0.135170
    10  H    0.135183
 Sum of Mulliken charges =   0.00000

 Dipole moment (field-independent basis, Debye):
    X=             -0.0000    Y=              0.0003    Z=             -0.0003  Tot=              0.0005
 Quadrupole moment (field-independent basis, Debye-Ang):
   XX=            -18.9118   YY=            -25.1533   ZZ=            -25.1539
   XY=              0.0002   XZ=              0.0001   YZ=             -0.0000

  Exact polarizability:  65.618   0.000  28.108   0.002   0.000  28.107
 Approx polarizability:  95.496   0.000  37.091   0.007   0.000  37.089

                      1                      2                      3
                      A                      A                      A
 Frequencies --      8.5028               207.1804               207.9006
 Red. masses --      1.0078                 2.7654                 2.7673
 Frc consts  --      0.0000                 0.0699                 0.0705
 IR Inten    --      0.0001                 8.9914                 8.9846

                      4                      5                      6
                      A                      A                      A
 Frequencies --    377.9256               378.2518               730.1553
 Red. masses --      4.1926                 4.1965                 3.6178
 Frc consts  --      0.3528                 0.3538                 1.1364
 IR Inten    --      0.0001                 0.0001                 0.0000

                      7                      8                      9
                      A                      A                      A
 Frequencies --   1054.7384              1054.9986              1061.7704
 Red. masses --      1.3911                 1.3906                 1.3872
 Frc consts  --      0.9118                 0.9119                 0.9214
 IR Inten    --      2.1280                 2.1872                 2.1538

                     10                     11                     12
                      A                      A                      A
 Frequencies --   1062.0437              1177.8981              1426.0685
 Red. masses --      1.3865                 4.2915                 1.3040
 Frc consts  --      0.9214                 3.5081                 1.5624
 IR Inten    --      2.2249                 0.1719                 9.7249

                     13                     14                     15
                      A                      A                      A
 Frequencies --   1431.0004              1492.6876              1492.8047
 Red. masses --      1.2145                 1.0416                 1.0417
 Frc consts  --      1.4653                 1.3674                 1.3678
 IR Inten    --      0.0003                 0.7918                 0.1586

                     16                     17                     18
                      A                      A                      A
 Frequencies --   1493.4029              1493.5151              2378.5069
 Red. masses --      1.0386                 1.0387                11.7845
 Frc consts  --      1.3647                 1.3651                39.2798
 IR Inten    --     10.2472                 9.6689                 0.0000

                     19                     20                     21
                      A                      A                      A
 Frequencies --   3032.1784              3032.3776              3094.3694
 Red. masses --      1.0350                 1.0347                 1.1014
 Frc consts  --      5.6065                 5.6057                 6.2133
 IR Inten    --     70.5795                 0.0018                 4.9977

                     22                     23                     24
                      A                      A                      A
 Frequencies --   3094.6247              3095.1439              3095.3869
 Red. masses --      1.1014                 1.1016                 1.1016
 Frc consts  --      6.2144                 6.2178                 6.2188
 IR Inten    --      0.0253                30.6888                25.8851

 - Thermochemistry -
 -------------------
 Temperature   298.150 Kelvin.  Pressure   1.00000 Atm.
 Atom     1 has atomic number  6 and mass  12.00000

 Molecular mass:    54.04695 amu.
 Principal axes and moments of inertia in atomic units:
                           1         2         3
     Eigenvalues --    22.49977 539.24622 539.24744
           X            1.00000  -0.00000  -0.00000
           Y            0.00000   1.00000   0.00037
           Z            0.00000  -0.00037   1.00000
 This molecule is an asymmetric top.
 Rotational symmetry number  1.
 Rotational temperatures (Kelvin)      3.84954     0.16062     0.16062
 Rotational constants (GHZ):          80.21152     3.34679     3.34678
 Zero-point vibrational energy     221150.2 (Joules/Mol)
                                   52.85617 (Kcal/Mol)
 Warning -- explicit consideration of   5 degrees of freedom as
           vibrations may cause significant error
 Vibrational temperatures:     12.23   298.09   299.12   543.75   544.22
          (Kelvin)           1050.53  1517.53  1517.91  1527.65  1528.04
                             1694.73  2051.79  2058.89  2147.64  2147.81
                             2148.67  2148.83  3422.14  4362.62  4362.91
                             4452.10  4452.47  4453.22  4453.57

 Zero-point correction=                           0.084232 (Hartree/Particle)
 Thermal correction to Energy=                    0.090020
 Thermal correction to Enthalpy=                  0.090964
 Thermal correction to Gibbs Free Energy=         0.054602
 Sum of electronic and zero-point Energies=           -155.903092
 Sum of electronic and thermal Energies=              -155.897303
 Sum of electronic and thermal Enthalpies=            -155.896359
 Sum of electronic and thermal Free Energies=         -155.932722

                     E (Thermal)             CV                S
                      KCal/Mol        Cal/Mol-Kelvin    Cal/Mol-Kelvin
 Total                   56.489             17.406             76.531
 Electronic               0.000              0.000              0.000
 Translational            0.889              2.981             37.884
 Rotational               0.889              2.981             23.396
 Vibrational             54.711             11.444             15.251
 Vibration     1          0.593              1.987              8.333
 Vibration     2          0.641              1.830              2.068
 Vibration     3          0.641              1.829              2.062
 Vibration     4          0.748              1.517              1.047
 Vibration     5          0.749              1.517              1.046

 Normal termination of Gaussian 09 at Thu Sep  8 20:28:06 2022.
