 Gaussian 09, Revision E.01,
 Gaussian 09:  ES64L-G09RevE.01 30-Nov-2015

 ----------------------------
 #P OPT Freq B3LYP/6-31G(d,p)
 ----------------------------

 --------
 Frag_822
 --------
 Symbolic Z-matrix:
 Charge =  0 Multiplicity = 1

 SCF Done:  E(RB3LYP) =  -225.207314068     A.U. after   14 cycles
 SCF Done:  E(RB3LYP) =  -225.207413952     A.U. after    9 cycles
 SCF Done:  E(RB3LYP) =  -225.207417827     A.U. after    8 cycles
 SCF Done:  E(RB3LYP) =  -225.207417553     A.U. after    8 cycles
 SCF Done:  E(RB3LYP) =  -225.207418215     A.U. after    7 cycles
 Optimization completed.
    -- Stationary point found.
 Normal termination of Gaussian 09 at Thu Sep  8 15:22:20 2022.

 ----------------------------------------------------------------------
 #P Geom=AllCheck Guess=TCheck SCRF=Check GenChk RB3LYP/6-31G(d,p) Freq
 ----------------------------------------------------------------------

 Structure from the checkpoint file:  "B3LYP6-31Gdp.Frag_822.chk"
 --------
 Frag_822
 --------
 Charge =  0 Multiplicity = 1

                         Standard orientation:
 ---------------------------------------------------------------------
 Center     Atomic      Atomic             Coordinates (Angstroms)
 Number     Number       Type             X           Y           Z
 ---------------------------------------------------------------------
      1          7           0       -1.386268   -0.502196   -0.000003
      2          7           0       -0.510991    0.586645    0.000003
      3          6           0        0.849626    0.415457   -0.000047
      4          8           0        1.455819   -0.632862    0.000013
      5          1           0       -1.972296   -0.484201   -0.829550
      6          1           0       -1.972251   -0.484248    0.829578
      7          1           0       -0.865543    1.537502    0.000050
      8          1           0        1.346595    1.409953    0.000098
 ---------------------------------------------------------------------

 SCF Done:  E(RB3LYP) =  -225.207418215     A.U. after    1 cycles

 The electronic state is 1-A.
 Alpha  occ. eigenvalues --  -19.11207 -14.39078 -14.36673 -10.28147  -1.03431
 Alpha  occ. eigenvalues --   -0.97815  -0.81117  -0.60051  -0.56553  -0.51949
 Alpha  occ. eigenvalues --   -0.47584  -0.40734  -0.38632  -0.27374  -0.26243
 Alpha  occ. eigenvalues --   -0.24785
 Alpha virt. eigenvalues --    0.03417   0.06084   0.08693   0.14283   0.14387
 Alpha virt. eigenvalues --    0.20902   0.29862   0.34895   0.53395   0.55555
 Alpha virt. eigenvalues --    0.64317   0.65809   0.66456   0.70127   0.71899

 Mulliken charges:
               1
     1  N   -0.424180
     2  N   -0.401530
     3  C    0.428996
     4  O   -0.435871
     5  H    0.263895
     6  H    0.263895
     7  H    0.252568
     8  H    0.052227
 Sum of Mulliken charges =  -0.00000

 Dipole moment (field-independent basis, Debye):
    X=             -3.9202    Y=              3.3387    Z=              0.0001  Tot=              5.1493
 Quadrupole moment (field-independent basis, Debye-Ang):
   XX=            -20.9121   YY=            -23.1901   ZZ=            -22.2072
   XY=              2.0008   XZ=             -0.0002   YZ=              0.0000

  Exact polarizability:  36.289   0.154  29.854   0.000   0.000  17.343
 Approx polarizability:  49.452  -6.669  46.107   0.001  -0.000  23.660

                      1                      2                      3
                      A                      A                      A
 Frequencies --    139.9714               296.9909               302.1969
 Red. masses --      1.3162                 1.9794                 5.8033
 Frc consts  --      0.0152                 0.1029                 0.3123
 IR Inten    --    132.6199                 3.8863                 2.4784

                      4                      5                      6
                      A                      A                      A
 Frequencies --    548.4652               748.4220               904.9799
 Red. masses --      1.0954                 1.9721                 3.3093
 Frc consts  --      0.1941                 0.6508                 1.5969
 IR Inten    --     20.1822               105.2139                67.8674

                      7                      8                      9
                      A                      A                      A
 Frequencies --    994.6654              1027.6236              1260.1528
 Red. masses --      3.2836                 1.6035                 2.0075
 Frc consts  --      1.9140                 0.9977                 1.8783
 IR Inten    --     45.2932                 0.8965                29.7907

                     10                     11                     12
                      A                      A                      A
 Frequencies --   1321.2279              1436.3707              1529.6131
 Red. masses --      1.1478                 1.2018                 1.6534
 Frc consts  --      1.1805                 1.4609                 2.2792
 IR Inten    --      0.8754                 1.1087                54.3504

                     13                     14                     15
                      A                      A                      A
 Frequencies --   1693.0723              1852.0860              2917.5966
 Red. masses --      1.1311                 7.3578                 1.0844
 Frc consts  --      1.9103                14.8704                 5.4388
 IR Inten    --      4.7876               324.3919               120.7055

                     16                     17                     18
                      A                      A                      A
 Frequencies --   3489.4166              3534.4451              3585.9971
 Red. masses --      1.0449                 1.0776                 1.0995
 Frc consts  --      7.4963                 7.9317                 8.3304
 IR Inten    --      1.7067                11.7809                 1.1308

 - Thermochemistry -
 -------------------
 Temperature   298.150 Kelvin.  Pressure   1.00000 Atm.
 Atom     1 has atomic number  7 and mass  14.00307

 Molecular mass:    60.03236 amu.
 Principal axes and moments of inertia in atomic units:
                           1         2         3
     Eigenvalues --    81.85333 302.94233 374.88865
           X            0.99928   0.03784   0.00000
           Y           -0.03784   0.99928   0.00001
           Z           -0.00000  -0.00001   1.00000
 This molecule is an asymmetric top.
 Rotational symmetry number  1.
 Rotational temperatures (Kelvin)      1.05816     0.28591     0.23104
 Rotational constants (GHZ):          22.04848     5.95738     4.81407
 Zero-point vibrational energy     164984.7 (Joules/Mol)
                                   39.43230 (Kcal/Mol)
 Warning -- explicit consideration of   4 degrees of freedom as
           vibrations may cause significant error
 Vibrational temperatures:    201.39   427.30   434.79   789.12  1076.81
          (Kelvin)           1302.06  1431.10  1478.52  1813.08  1900.95
                             2066.61  2200.77  2435.95  2664.74  4197.77
                             5020.49  5085.27  5159.44

 Zero-point correction=                           0.062839 (Hartree/Particle)
 Thermal correction to Energy=                    0.067621
 Thermal correction to Enthalpy=                  0.068565
 Thermal correction to Gibbs Free Energy=         0.035879
 Sum of electronic and zero-point Energies=           -225.144579
 Sum of electronic and thermal Energies=              -225.139798
 Sum of electronic and thermal Enthalpies=            -225.138853
 Sum of electronic and thermal Free Energies=         -225.171539

                     E (Thermal)             CV                S
                      KCal/Mol        Cal/Mol-Kelvin    Cal/Mol-Kelvin
 Total                   42.433             14.857             68.793
 Electronic               0.000              0.000              0.000
 Translational            0.889              2.981             38.197
 Rotational               0.889              2.981             23.745
 Vibrational             40.655              8.895              6.851
 Vibration     1          0.615              1.913              2.804
 Vibration     2          0.691              1.679              1.434
 Vibration     3          0.694              1.670              1.405
 Vibration     4          0.904              1.143              0.547

 Optimization completed.
    -- Stationary point found.
 Normal termination of Gaussian 09 at Thu Sep  8 15:22:26 2022.
