 Gaussian 09, Revision E.01,
 Gaussian 09:  ES64L-G09RevE.01 30-Nov-2015

 --------------------------------
 #P OPT=calcfc Freq B3LYP/6-31G**
 --------------------------------

 --------
 Frag_379
 --------
 Symbolic Z-matrix:
 Charge =  0 Multiplicity = 1

 SCF Done:  E(RB3LYP) =  -323.604659654     A.U. after   15 cycles
 SCF Done:  E(RB3LYP) =  -323.629989653     A.U. after   13 cycles
 SCF Done:  E(RB3LYP) =  -323.635301572     A.U. after   14 cycles
 SCF Done:  E(RB3LYP) =  -323.635722442     A.U. after   12 cycles
 SCF Done:  E(RB3LYP) =  -323.634693045     A.U. after   13 cycles
 SCF Done:  E(RB3LYP) =  -323.635730849     A.U. after    9 cycles
 SCF Done:  E(RB3LYP) =  -323.635826221     A.U. after   14 cycles
 SCF Done:  E(RB3LYP) =  -323.609756837     A.U. after   14 cycles
 SCF Done:  E(RB3LYP) =  -323.617969636     A.U. after   12 cycles
 SCF Done:  E(RB3LYP) =  -323.623392425     A.U. after   12 cycles
 SCF Done:  E(RB3LYP) =  -323.636030857     A.U. after   13 cycles
 SCF Done:  E(RB3LYP) =  -323.636226029     A.U. after    9 cycles
 SCF Done:  E(RB3LYP) =  -323.636161514     A.U. after   12 cycles
 SCF Done:  E(RB3LYP) =  -323.636229591     A.U. after   11 cycles
 SCF Done:  E(RB3LYP) =  -323.636225183     A.U. after   12 cycles
 SCF Done:  E(RB3LYP) =  -323.636233959     A.U. after   10 cycles
 SCF Done:  E(RB3LYP) =  -323.636234251     A.U. after    9 cycles
 SCF Done:  E(RB3LYP) =  -323.636233838     A.U. after    9 cycles
 SCF Done:  E(RB3LYP) =  -323.636234350     A.U. after    8 cycles
 Optimization completed.
    -- Stationary point found.
 Normal termination of Gaussian 09 at Fri Sep 10 21:25:20 2021.

 ----------------------------------------------------------------------
 #P Geom=AllCheck Guess=TCheck SCRF=Check GenChk RB3LYP/6-31G(d,p) Freq
 ----------------------------------------------------------------------

 Structure from the checkpoint file:  "/public/home/users/caep010/.cache/gau_scr/Gau-65098.chk"
 --------
 Frag_379
 --------
 Charge =  0 Multiplicity = 1

                         Standard orientation:
 ---------------------------------------------------------------------
 Center     Atomic      Atomic             Coordinates (Angstroms)
 Number     Number       Type             X           Y           Z
 ---------------------------------------------------------------------
      1          6           0        1.233026    1.413014    0.000012
      2          6           0        0.628586    0.044419    0.000026
      3          6           0        1.462956   -1.201246   -0.000017
      4          7           0       -0.662077   -0.148366   -0.000002
      5          8           0       -1.287754   -1.237141    0.000017
      6          8           0       -1.486738    1.014552   -0.000031
      7          1           0        1.873692    1.546379    0.880856
      8          1           0        1.873540    1.546490   -0.880933
      9          1           0        0.476678    2.195658    0.000115
     10          1           0        2.524326   -0.944381    0.000132
     11          1           0        1.246020   -1.820341    0.877997
     12          1           0        1.246239   -1.820139   -0.878229
     13          1           0       -2.357426    0.578483    0.000057
 ---------------------------------------------------------------------

 SCF Done:  E(RB3LYP) =  -323.636234350     A.U. after    1 cycles

 The electronic state is 1-A.
 Alpha  occ. eigenvalues --  -19.20298 -19.13592 -14.51490 -10.23816 -10.19842
 Alpha  occ. eigenvalues --  -10.19394  -1.16305  -1.01628  -0.87029  -0.73579
 Alpha  occ. eigenvalues --   -0.71246  -0.58684  -0.51340  -0.49840  -0.49523
 Alpha  occ. eigenvalues --   -0.43349  -0.42239  -0.41550  -0.40427  -0.40145
 Alpha  occ. eigenvalues --   -0.37163  -0.31788  -0.27088  -0.21387
 Alpha virt. eigenvalues --   -0.00162   0.07567   0.09627   0.10908   0.13502
 Alpha virt. eigenvalues --    0.15012   0.15821   0.16564   0.19548   0.22611
 Alpha virt. eigenvalues --    0.23662   0.33753   0.34501   0.49383   0.53188

 Mulliken charges:
               1
     1  C   -0.379753
     2  C    0.275092
     3  C   -0.351089
     4  N    0.264553
     5  O   -0.514829
     6  O   -0.425313
     7  H    0.127436
     8  H    0.127440
     9  H    0.153941
    10  H    0.109384
    11  H    0.142421
    12  H    0.142416
    13  H    0.328301
 Sum of Mulliken charges =  -0.00000

 Dipole moment (field-independent basis, Debye):
    X=              1.5320    Y=              1.3822    Z=              0.0001  Tot=              2.0634
 Quadrupole moment (field-independent basis, Debye-Ang):
   XX=            -31.3146   YY=            -38.5335   ZZ=            -36.0112
   XY=             -2.6315   XZ=             -0.0004   YZ=              0.0002

  Exact polarizability:  66.707   3.474  52.197  -0.000  -0.000  31.008
 Approx polarizability: 108.055  15.542  80.353  -0.000  -0.000  43.885

                      1                      2                      3
                      A                      A                      A
 Frequencies --     56.4074                77.0862               176.8559
 Red. masses --      1.0667                 1.0446                 4.1598
 Frc consts  --      0.0020                 0.0037                 0.0767
 IR Inten    --      0.7314                 0.4757                 0.6163

                      4                      5                      6
                      A                      A                      A
 Frequencies --    282.5559               299.2171               352.9815
 Red. masses --      3.7260                 2.3528                 1.1703
 Frc consts  --      0.1753                 0.1241                 0.0859
 IR Inten    --      2.8480                15.8831                97.2880

                      7                      8                      9
                      A                      A                      A
 Frequencies --    360.1339               522.0509               563.1536
 Red. masses --      2.5367                 4.3917                 6.5996
 Frc consts  --      0.1938                 0.7052                 1.2332
 IR Inten    --      4.6137                22.2198                10.9088

                     10                     11                     12
                      A                      A                      A
 Frequencies --    635.6415               727.8821               927.3593
 Red. masses --      9.2700                 4.8525                 2.7662
 Frc consts  --      2.2068                 1.5147                 1.4016
 IR Inten    --      9.4386                 9.7120                93.9175

                     13                     14                     15
                      A                      A                      A
 Frequencies --    999.3746              1000.9975              1090.2037
 Red. masses --      1.3674                 1.2373                 2.0408
 Frc consts  --      0.8046                 0.7305                 1.4291
 IR Inten    --     10.2391                 0.0059               102.7349

                     16                     17                     18
                      A                      A                      A
 Frequencies --   1094.4960              1281.0274              1317.6597
 Red. masses --      1.5090                 2.7198                 3.0746
 Frc consts  --      1.0650                 2.6297                 3.1452
 IR Inten    --      1.2459               155.7296                 5.6741

                     19                     20                     21
                      A                      A                      A
 Frequencies --   1399.3626              1431.4286              1433.6284
 Red. masses --      1.7400                 1.4080                 1.3382
 Frc consts  --      2.0075                 1.6998                 1.6205
 IR Inten    --     67.4583                 0.3719                 0.2980

                     22                     23                     24
                      A                      A                      A
 Frequencies --   1485.8911              1497.8300              1498.5798
 Red. masses --      1.0431                 1.0780                 1.0443
 Frc consts  --      1.3569                 1.4249                 1.3818
 IR Inten    --      5.6721                 1.9636                 8.6419

                     25                     26                     27
                      A                      A                      A
 Frequencies --   1508.3561              1776.7169              3031.7659
 Red. masses --      1.0883                 5.2242                 1.0418
 Frc consts  --      1.4588                 9.7164                 5.6418
 IR Inten    --     17.6269               121.1409                23.1601

                     28                     29                     30
                      A                      A                      A
 Frequencies --   3042.7859              3076.0534              3095.8965
 Red. masses --      1.0373                 1.1006                 1.1008
 Frc consts  --      5.6587                 6.1356                 6.2164
 IR Inten    --     18.0600                18.4607                 9.8194

                     31                     32                     33
                      A                      A                      A
 Frequencies --   3142.9787              3183.1297              3733.4623
 Red. masses --      1.1020                 1.0957                 1.0655
 Frc consts  --      6.4140                 6.5412                 8.7508
 IR Inten    --     12.0720                 2.6325                90.4096

 - Thermochemistry -
 -------------------
 Temperature   298.150 Kelvin.  Pressure   1.00000 Atm.
 Atom     1 has atomic number  6 and mass  12.00000

 Molecular mass:    89.04768 amu.
 Principal axes and moments of inertia in atomic units:
                           1         2         3
     Eigenvalues --   368.53008 506.32955 852.58814
           X            0.99940  -0.03459  -0.00000
           Y            0.03459   0.99940   0.00000
           Z            0.00000  -0.00000   1.00000
 This molecule is an asymmetric top.
 Rotational symmetry number  1.
 Rotational temperatures (Kelvin)      0.23503     0.17106     0.10159
 Rotational constants (GHZ):           4.89713     3.56436     2.11678
 Zero-point vibrational energy     275756.9 (Joules/Mol)
                                   65.90748 (Kcal/Mol)
 Warning -- explicit consideration of   9 degrees of freedom as
           vibrations may cause significant error
 Vibrational temperatures:     81.16   110.91   254.46   406.53   430.51
          (Kelvin)            507.86   518.15   751.11   810.25   914.55
                             1047.26  1334.26  1437.88  1440.21  1568.56
                             1574.73  1843.11  1895.82  2013.37  2059.50
                             2062.67  2137.86  2155.04  2156.12  2170.19
                             2556.30  4362.03  4377.88  4425.75  4454.30
                             4522.04  4579.81  5371.61

 Zero-point correction=                           0.105030 (Hartree/Particle)
 Thermal correction to Energy=                    0.112505
 Thermal correction to Enthalpy=                  0.113449
 Thermal correction to Gibbs Free Energy=         0.073327
 Sum of electronic and zero-point Energies=           -323.531204
 Sum of electronic and thermal Energies=              -323.523730
 Sum of electronic and thermal Enthalpies=            -323.522786
 Sum of electronic and thermal Free Energies=         -323.562907

                     E (Thermal)             CV                S
                      KCal/Mol        Cal/Mol-Kelvin    Cal/Mol-Kelvin
 Total                   70.598             25.037             84.443
 Electronic               0.000              0.000              0.000
 Translational            0.889              2.981             39.372
 Rotational               0.889              2.981             26.567
 Vibrational             68.820             19.075             18.504
 Vibration     1          0.596              1.975              4.579
 Vibration     2          0.599              1.964              3.964
 Vibration     3          0.628              1.871              2.361
 Vibration     4          0.682              1.706              1.518
 Vibration     5          0.692              1.675              1.421
 Vibration     6          0.729              1.569              1.153
 Vibration     7          0.735              1.554              1.122
 Vibration     8          0.877              1.201              0.605
 Vibration     9          0.919              1.111              0.518

 Optimization completed.
    -- Stationary point found.
 Normal termination of Gaussian 09 at Fri Sep 10 21:25:29 2021.
