 Gaussian 09, Revision D.01,
 Gaussian 09:  ES64L-G09RevD.01 24-Apr-2013

 -------------------------
 #P OPT Freq B3LYP/6-31G**
 -------------------------

 -------
 Frag_24
 -------
 Symbolic Z-matrix:
 Charge =  0 Multiplicity = 1

 SCF Done:  E(RB3LYP) =  -196.553874063     A.U. after   13 cycles
 Optimization completed.
    -- Stationary point found.
 Normal termination of Gaussian 09 at Thu Jul 22 20:02:28 2021.

 ----------------------------------------------------------------------
 #P Geom=AllCheck Guess=TCheck SCRF=Check GenChk RB3LYP/6-31G(d,p) Freq
 ----------------------------------------------------------------------

 Structure from the checkpoint file:  "/vol2/users/liuj201281/HOFBenchmark/IsodesmicSplit/Sample60/Ring26/Running/Gau-195633.chk"
 -------
 Frag_24
 -------
 Charge =  0 Multiplicity = 1

                         Standard orientation:
 ---------------------------------------------------------------------
 Center     Atomic      Atomic             Coordinates (Angstroms)
 Number     Number       Type             X           Y           Z
 ---------------------------------------------------------------------
      1          6           0        1.428907   -1.105813   -0.232183
      2          6           0        0.587810   -0.120011    0.096618
      3          6           0        0.998913    1.330488    0.023218
      4          6           0       -0.822991   -0.406908    0.568018
      5          6           0       -1.918390    0.085095   -0.394383
      6          1           0        2.441508   -0.904516   -0.571083
      7          1           0        1.134305   -2.150113   -0.172883
      8          1           0        0.883714    1.820588    0.998918
      9          1           0        0.375515    1.892389   -0.682683
     10          1           0        2.040414    1.438085   -0.290583
     11          1           0       -0.977590    0.067292    1.548318
     12          1           0       -0.938194   -1.485508    0.722518
     13          1           0       -2.911890   -0.169003   -0.011382
     14          1           0       -1.886087    1.170895   -0.528383
     15          1           0       -1.807191   -0.377206   -1.380483
 ---------------------------------------------------------------------

 SCF Done:  E(RB3LYP) =  -196.553874063     A.U. after    1 cycles

 The electronic state is 1-A.
 Alpha  occ. eigenvalues --  -10.18906 -10.18301 -10.17764 -10.17531 -10.16584
 Alpha  occ. eigenvalues --   -0.80701  -0.73151  -0.67939  -0.62093  -0.51720
 Alpha  occ. eigenvalues --   -0.45396  -0.45176  -0.42040  -0.40313  -0.38540
 Alpha  occ. eigenvalues --   -0.36334  -0.35986  -0.33404  -0.32197  -0.23942
 Alpha virt. eigenvalues --    0.02915   0.09207   0.13013   0.13899   0.14782
 Alpha virt. eigenvalues --    0.15809   0.17247   0.17887   0.18390   0.21108
 Alpha virt. eigenvalues --    0.22159   0.23646   0.24782   0.32105   0.38321

 Mulliken charges:
               1
     1  C   -0.287092
     2  C    0.175864
     3  C   -0.365664
     4  C   -0.224612
     5  C   -0.316530
     6  H    0.084901
     7  H    0.085339
     8  H    0.110595
     9  H    0.114885
    10  H    0.108455
    11  H    0.097997
    12  H    0.097220
    13  H    0.103015
    14  H    0.104870
    15  H    0.110758
 Sum of Mulliken charges =   0.00000

 Dipole moment (field-independent basis, Debye):
    X=             -0.3425    Y=              0.3693    Z=              0.1003  Tot=              0.5135
 Quadrupole moment (field-independent basis, Debye-Ang):
   XX=            -32.7705   YY=            -32.2609   ZZ=            -34.0464
   XY=              0.5437   XZ=             -0.7168   YZ=              0.1220

  Exact polarizability:  61.541  -5.608  58.923  -4.813   2.448  40.793
 Approx polarizability:  79.936 -12.771  84.397  -8.727   5.751  57.830

                      1                      2                      3
                      A                      A                      A
 Frequencies --     70.0199               185.3495               225.4721
 Red. masses --      1.8981                 1.0648                 1.3091
 Frc consts  --      0.0055                 0.0216                 0.0392
 IR Inten    --      0.0571                 0.2635                 0.3281

                      4                      5                      6
                      A                      A                      A
 Frequencies --    263.0100               398.7816               433.7648
 Red. masses --      1.9772                 2.0085                 2.1011
 Frc consts  --      0.0806                 0.1882                 0.2329
 IR Inten    --      0.1342                 0.5622                 1.7877

                      7                      8                      9
                      A                      A                      A
 Frequencies --    536.4141               726.5908               777.0348
 Red. masses --      2.3415                 1.1265                 2.1173
 Frc consts  --      0.3970                 0.3504                 0.7532
 IR Inten    --      4.9600                 0.0823                 1.1924

                     10                     11                     12
                      A                      A                      A
 Frequencies --    803.3990               923.7930               944.9944
 Red. masses --      1.2546                 1.3414                 1.9081
 Frc consts  --      0.4771                 0.6745                 1.0040
 IR Inten    --      1.6372                38.1570                 1.3118

                     13                     14                     15
                      A                      A                      A
 Frequencies --   1006.7385              1023.4677              1056.7120
 Red. masses --      1.2538                 2.0605                 1.4355
 Frc consts  --      0.7487                 1.2716                 0.9444
 IR Inten    --      1.1162                 0.3920                 1.3160

                     16                     17                     18
                      A                      A                      A
 Frequencies --   1100.9074              1123.2970              1278.5806
 Red. masses --      1.7376                 1.5797                 1.5576
 Frc consts  --      1.2408                 1.1744                 1.5003
 IR Inten    --      5.3856                 0.5238                 2.1692

                     19                     20                     21
                      A                      A                      A
 Frequencies --   1316.1695              1361.1894              1420.5829
 Red. masses --      1.5385                 1.5671                 1.2561
 Frc consts  --      1.5703                 1.7107                 1.4935
 IR Inten    --      2.1144                 2.7952                 2.1867

                     22                     23                     24
                      A                      A                      A
 Frequencies --   1424.8581              1460.2565              1488.9470
 Red. masses --      1.2388                 1.1867                 1.0556
 Frc consts  --      1.4818                 1.4909                 1.3788
 IR Inten    --      2.6269                 0.1624                 2.4431

                     25                     26                     27
                      A                      A                      A
 Frequencies --   1500.3882              1510.4345              1516.6508
 Red. masses --      1.0547                 1.0591                 1.0448
 Frc consts  --      1.3989                 1.4236                 1.4160
 IR Inten    --      7.5988                 9.2147                 4.2562

                     28                     29                     30
                      A                      A                      A
 Frequencies --   1524.1510              1732.3417              3016.0006
 Red. masses --      1.0737                 5.0531                 1.0657
 Frc consts  --      1.4696                 8.9346                 5.7117
 IR Inten    --      2.2331                13.8681                29.5387

                     31                     32                     33
                      A                      A                      A
 Frequencies --   3029.6832              3047.0708              3074.7395
 Red. masses --      1.0396                 1.0353                 1.0964
 Frc consts  --      5.6224                 5.6633                 6.1073
 IR Inten    --     27.5074                27.3046                15.4747

                     34                     35                     36
                      A                      A                      A
 Frequencies --   3080.4646              3117.6510              3121.8183
 Red. masses --      1.0981                 1.1023                 1.1024
 Frc consts  --      6.1393                 6.3127                 6.3299
 IR Inten    --     26.5166                40.2374                36.7020

                     37                     38                     39
                      A                      A                      A
 Frequencies --   3126.3443              3147.9697              3229.7162
 Red. masses --      1.1006                 1.0606                 1.1158
 Frc consts  --      6.3380                 6.1923                 6.8572
 IR Inten    --     23.4505                10.1539                21.6360

 - Thermochemistry -
 -------------------
 Temperature   298.150 Kelvin.  Pressure   1.00000 Atm.
 Atom     1 has atomic number  6 and mass  12.00000

 Molecular mass:    70.07825 amu.
 Principal axes and moments of inertia in atomic units:
                           1         2         3
     Eigenvalues --   249.94838 486.20737 639.27504
           X            0.99991   0.01303  -0.00197
           Y           -0.01304   0.99991  -0.00178
           Z            0.00195   0.00180   1.00000
 This molecule is an asymmetric top.
 Rotational symmetry number  1.
 Rotational temperatures (Kelvin)      0.34653     0.17814     0.13549
 Rotational constants (GHZ):           7.22046     3.71188     2.82311
 Zero-point vibrational energy     359631.9 (Joules/Mol)
                                   85.95408 (Kcal/Mol)
 Warning -- explicit consideration of   7 degrees of freedom as
           vibrations may cause significant error
 Vibrational temperatures:    100.74   266.68   324.40   378.41   573.76
          (Kelvin)            624.09   771.78  1045.40  1117.98  1155.91
                             1329.13  1359.63  1448.47  1472.54  1520.37
                             1583.96  1616.17  1839.59  1893.67  1958.45
                             2043.90  2050.05  2100.98  2142.26  2158.72
                             2173.18  2182.12  2192.91  2492.45  4339.35
                             4359.03  4384.05  4423.86  4432.10  4485.60
                             4491.59  4498.11  4529.22  4646.84

 Zero-point correction=                           0.136977 (Hartree/Particle)
 Thermal correction to Energy=                    0.143547
 Thermal correction to Enthalpy=                  0.144491
 Thermal correction to Gibbs Free Energy=         0.107247
 Sum of electronic and zero-point Energies=           -196.416898
 Sum of electronic and thermal Energies=              -196.410327
 Sum of electronic and thermal Enthalpies=            -196.409383
 Sum of electronic and thermal Free Energies=         -196.446627

                     E (Thermal)             CV                S
                      KCal/Mol        Cal/Mol-Kelvin    Cal/Mol-Kelvin
 Total                   90.077             23.076             78.388
 Electronic               0.000              0.000              0.000
 Translational            0.889              2.981             38.658
 Rotational               0.889              2.981             25.855
 Vibrational             88.300             17.115             13.875
 Vibration     1          0.598              1.968              4.153
 Vibration     2          0.631              1.860              2.274
 Vibration     3          0.650              1.802              1.915
 Vibration     4          0.670              1.741              1.642
 Vibration     5          0.765              1.473              0.967
 Vibration     6          0.795              1.397              0.846
 Vibration     7          0.891              1.169              0.573

 Normal termination of Gaussian 09 at Thu Jul 22 20:02:43 2021.
