 Gaussian 09, Revision E.01,
 Gaussian 09:  ES64L-G09RevE.01 30-Nov-2015

 ----------------------------
 #P OPT Freq B3LYP/6-31G(d,p)
 ----------------------------

 --------
 Frag_714
 --------
 Symbolic Z-matrix:
 Charge =  0 Multiplicity = 1

 SCF Done:  E(RB3LYP) =  -171.030478345     A.U. after   13 cycles
 SCF Done:  E(RB3LYP) =  -171.030508677     A.U. after    8 cycles
 SCF Done:  E(RB3LYP) =  -171.030512291     A.U. after    7 cycles
 SCF Done:  E(RB3LYP) =  -171.030512880     A.U. after    7 cycles
 Optimization completed.
    -- Stationary point found.
 Normal termination of Gaussian 09 at Thu Sep  8 14:57:30 2022.

 ----------------------------------------------------------------------
 #P Geom=AllCheck Guess=TCheck SCRF=Check GenChk RB3LYP/6-31G(d,p) Freq
 ----------------------------------------------------------------------

 Structure from the checkpoint file:  "B3LYP6-31Gdp.Frag_714.chk"
 --------
 Frag_714
 --------
 Charge =  0 Multiplicity = 1

                         Standard orientation:
 ---------------------------------------------------------------------
 Center     Atomic      Atomic             Coordinates (Angstroms)
 Number     Number       Type             X           Y           Z
 ---------------------------------------------------------------------
      1          6           0       -1.163759   -0.233274    0.004969
      2          7           0        0.044187    0.573231   -0.154898
      3          8           0        1.171833   -0.290018    0.131144
      4          1           0       -1.228358   -0.950828   -0.817564
      5          1           0       -1.201393   -0.786072    0.954542
      6          1           0       -2.026280    0.439618   -0.053850
      7          1           0        0.075968    1.244784    0.613231
      8          1           0        1.678647   -0.240339   -0.691039
 ---------------------------------------------------------------------

 SCF Done:  E(RB3LYP) =  -171.030512880     A.U. after    1 cycles

 The electronic state is 1-A.
 Alpha  occ. eigenvalues --  -19.16179 -14.36757 -10.20251  -1.04332  -0.82857
 Alpha  occ. eigenvalues --   -0.65398  -0.50255  -0.47577  -0.42536  -0.39731
 Alpha  occ. eigenvalues --   -0.37812  -0.27954  -0.23686
 Alpha virt. eigenvalues --    0.08366   0.09382   0.13942   0.14696   0.17652
 Alpha virt. eigenvalues --    0.18364   0.22273   0.54509   0.55983   0.58733
 Alpha virt. eigenvalues --    0.68062   0.72606   0.77519   0.79221   0.82343

 Mulliken charges:
               1
     1  C   -0.155215
     2  N   -0.297883
     3  O   -0.459870
     4  H    0.118182
     5  H    0.103590
     6  H    0.104574
     7  H    0.259475
     8  H    0.327147
 Sum of Mulliken charges =   0.00000

 Dipole moment (field-independent basis, Debye):
    X=             -0.4874    Y=              0.3576    Z=             -0.1882  Tot=              0.6331
 Quadrupole moment (field-independent basis, Debye-Ang):
   XX=            -16.8311   YY=            -18.9153   ZZ=            -18.6149
   XY=              0.1164   XZ=             -2.4404   YZ=              2.2875

  Exact polarizability:  28.569  -1.367  22.015  -1.518   1.149  20.792
 Approx polarizability:  35.528  -3.462  29.455  -1.557   0.980  27.823

                      1                      2                      3
                      A                      A                      A
 Frequencies --    269.1135               322.4388               437.3866
 Red. masses --      1.1517                 1.1451                 2.8148
 Frc consts  --      0.0491                 0.0701                 0.3173
 IR Inten    --      1.5978               108.2660                 7.2672

                      4                      5                      6
                      A                      A                      A
 Frequencies --    852.4542               979.9636              1055.7717
 Red. masses --      3.4943                 1.1746                 4.4902
 Frc consts  --      1.4961                 0.6646                 2.9489
 IR Inten    --     47.2049                46.4961                29.2227

                      7                      8                      9
                      A                      A                      A
 Frequencies --   1159.9545              1225.7680              1369.0270
 Red. masses --      1.4281                 1.5227                 1.2337
 Frc consts  --      1.1321                 1.3479                 1.3624
 IR Inten    --      7.8995                26.0219                35.4372

                     10                     11                     12
                      A                      A                      A
 Frequencies --   1452.5839              1487.3353              1489.0586
 Red. masses --      1.1919                 1.0849                 1.0464
 Frc consts  --      1.4818                 1.4141                 1.3670
 IR Inten    --      0.1846                 3.1280                 4.0798

                     13                     14                     15
                      A                      A                      A
 Frequencies --   1531.5265              3010.7472              3090.1458
 Red. masses --      1.0446                 1.0427                 1.0928
 Frc consts  --      1.4437                 5.5690                 6.1484
 IR Inten    --      4.0494                49.5114                34.8149

                     16                     17                     18
                      A                      A                      A
 Frequencies --   3125.7042              3460.9750              3800.1708
 Red. masses --      1.1032                 1.0757                 1.0683
 Frc consts  --      6.3504                 7.5918                 9.0897
 IR Inten    --     27.4001                 2.5141                27.7280

 - Thermochemistry -
 -------------------
 Temperature   298.150 Kelvin.  Pressure   1.00000 Atm.
 Atom     1 has atomic number  6 and mass  12.00000

 Molecular mass:    47.03711 amu.
 Principal axes and moments of inertia in atomic units:
                           1         2         3
     Eigenvalues --    46.28359 182.21008 207.62722
           X            0.99936   0.02781  -0.02239
           Y           -0.02473   0.99150   0.12771
           Z            0.02575  -0.12707   0.99156
 This molecule is an asymmetric top.
 Rotational symmetry number  1.
 Rotational temperatures (Kelvin)      1.87137     0.47535     0.41716
 Rotational constants (GHZ):          38.99311     9.90473     8.69222
 Zero-point vibrational energy     180158.4 (Joules/Mol)
                                   43.05888 (Kcal/Mol)
 Warning -- explicit consideration of   3 degrees of freedom as
           vibrations may cause significant error
 Vibrational temperatures:    387.19   463.92   629.30  1226.49  1409.95
          (Kelvin)           1519.02  1668.91  1763.60  1969.72  2089.94
                             2139.94  2142.42  2203.52  4331.79  4446.03
                             4497.19  4979.56  5467.59

 Zero-point correction=                           0.068619 (Hartree/Particle)
 Thermal correction to Energy=                    0.072777
 Thermal correction to Enthalpy=                  0.073721
 Thermal correction to Gibbs Free Energy=         0.043412
 Sum of electronic and zero-point Energies=           -170.961894
 Sum of electronic and thermal Energies=              -170.957736
 Sum of electronic and thermal Enthalpies=            -170.956792
 Sum of electronic and thermal Free Energies=         -170.987101

                     E (Thermal)             CV                S
                      KCal/Mol        Cal/Mol-Kelvin    Cal/Mol-Kelvin
 Total                   45.668             12.849             63.791
 Electronic               0.000              0.000              0.000
 Translational            0.889              2.981             37.470
 Rotational               0.889              2.981             22.087
 Vibrational             43.891              6.888              4.235
 Vibration     1          0.674              1.730              1.602
 Vibration     2          0.707              1.631              1.298
 Vibration     3          0.798              1.389              0.835

 Optimization completed.
    -- Stationary point found.
 Normal termination of Gaussian 09 at Thu Sep  8 14:57:35 2022.
