 Gaussian 09, Revision E.01,
 Gaussian 09:  ES64L-G09RevE.01 30-Nov-2015

 --------------------------------
 #P OPT=calcfc Freq B3LYP/6-31G**
 --------------------------------

 --------
 Frag_362
 --------
 Symbolic Z-matrix:
 Charge =  0 Multiplicity = 1

 SCF Done:  E(RB3LYP) =  -244.590561472     A.U. after   15 cycles
 SCF Done:  E(RB3LYP) =  -244.599709605     A.U. after   13 cycles
 SCF Done:  E(RB3LYP) =  -244.601871356     A.U. after   13 cycles
 SCF Done:  E(RB3LYP) =  -244.596031560     A.U. after   14 cycles
 SCF Done:  E(RB3LYP) =  -244.603119909     A.U. after   12 cycles
 SCF Done:  E(RB3LYP) =  -244.603874792     A.U. after   12 cycles
 SCF Done:  E(RB3LYP) =  -244.604617236     A.U. after   12 cycles
 SCF Done:  E(RB3LYP) =  -244.604758959     A.U. after   12 cycles
 SCF Done:  E(RB3LYP) =  -244.604805667     A.U. after   12 cycles
 SCF Done:  E(RB3LYP) =  -244.604850539     A.U. after   10 cycles
 SCF Done:  E(RB3LYP) =  -244.604858779     A.U. after    9 cycles
 SCF Done:  E(RB3LYP) =  -244.604858821     A.U. after    7 cycles
 Optimization completed.
    -- Stationary point found.
 Normal termination of Gaussian 09 at Fri Sep 10 18:59:53 2021.

 ----------------------------------------------------------------------
 #P Geom=AllCheck Guess=TCheck SCRF=Check GenChk RB3LYP/6-31G(d,p) Freq
 ----------------------------------------------------------------------

 Structure from the checkpoint file:  "/public/home/users/caep010/.cache/gau_scr/Gau-123451.chk"
 --------
 Frag_362
 --------
 Charge =  0 Multiplicity = 1

                         Standard orientation:
 ---------------------------------------------------------------------
 Center     Atomic      Atomic             Coordinates (Angstroms)
 Number     Number       Type             X           Y           Z
 ---------------------------------------------------------------------
      1          6           0        1.885108   -0.113780   -0.097993
      2          7           0        0.779716   -0.726414    0.095065
      3          7           0       -0.372653   -0.010971    0.329891
      4          6           0       -1.547311   -0.744476   -0.126670
      5          7           0       -0.344765    1.361841   -0.028402
      6          1           0        2.768850   -0.734289   -0.215832
      7          1           0        1.976654    0.970973   -0.130858
      8          1           0       -2.443046   -0.305132    0.321904
      9          1           0       -1.455345   -1.782835    0.194036
     10          1           0       -1.654162   -0.722520   -1.225032
     11          1           0       -0.956101    1.863498    0.609129
     12          1           0       -0.699714    1.488648   -0.981238
 ---------------------------------------------------------------------

 SCF Done:  E(RB3LYP) =  -244.604858821     A.U. after    1 cycles

 The electronic state is 1-A.
 Alpha  occ. eigenvalues --  -14.38997 -14.35404 -14.35047 -10.21134 -10.19463
 Alpha  occ. eigenvalues --   -1.02109  -0.88156  -0.78542  -0.67239  -0.57384
 Alpha  occ. eigenvalues --   -0.51486  -0.50114  -0.48623  -0.42605  -0.41185
 Alpha  occ. eigenvalues --   -0.39546  -0.34501  -0.26825  -0.26293  -0.21577
 Alpha virt. eigenvalues --    0.01757   0.07328   0.13013   0.13685   0.15384
 Alpha virt. eigenvalues --    0.15828   0.16682   0.17530   0.21375   0.24532
 Alpha virt. eigenvalues --    0.26722   0.33947   0.52881   0.53717   0.55520

 Mulliken charges:
               1
     1  C   -0.070549
     2  N   -0.199853
     3  N   -0.178273
     4  C   -0.149476
     5  N   -0.453778
     6  H    0.100513
     7  H    0.115279
     8  H    0.103846
     9  H    0.138872
    10  H    0.091308
    11  H    0.264750
    12  H    0.237361
 Sum of Mulliken charges =  -0.00000

 Dipole moment (field-independent basis, Debye):
    X=             -1.8472    Y=              1.3621    Z=             -0.8778  Tot=              2.4572
 Quadrupole moment (field-independent basis, Debye-Ang):
   XX=            -26.7590   YY=            -30.6632   ZZ=            -31.2849
   XY=             -1.1643   XZ=             -0.2592   YZ=              0.0462

  Exact polarizability:  62.299  -0.796  43.383  -1.910  -0.611  30.010
 Approx polarizability:  86.433   1.426  61.128  -6.047  -1.824  43.969

                      1                      2                      3
                      A                      A                      A
 Frequencies --    181.1203               255.9632               293.6434
 Red. masses --      2.3894                 1.1545                 1.1511
 Frc consts  --      0.0462                 0.0446                 0.0585
 IR Inten    --     17.8820                 3.8739                21.8344

                      4                      5                      6
                      A                      A                      A
 Frequencies --    346.5977               371.6823               437.9408
 Red. masses --      2.5131                 2.5266                 2.4118
 Frc consts  --      0.1779                 0.2057                 0.2725
 IR Inten    --      8.4927                15.7757                 7.2791

                      7                      8                      9
                      A                      A                      A
 Frequencies --    625.0546               788.7638               809.5041
 Red. masses --      2.9784                 5.0532                 1.2360
 Frc consts  --      0.6856                 1.8523                 0.4772
 IR Inten    --      5.8799                16.4810                 0.9055

                     10                     11                     12
                      A                      A                      A
 Frequencies --    865.0876               966.7907              1045.1795
 Red. masses --      1.9338                 1.3700                 1.5159
 Frc consts  --      0.8527                 0.7545                 0.9757
 IR Inten    --    168.9229                31.7664                 6.0369

                     13                     14                     15
                      A                      A                      A
 Frequencies --   1139.9962              1182.3232              1241.5277
 Red. masses --      1.4455                 1.9637                 2.7788
 Frc consts  --      1.1068                 1.6174                 2.5236
 IR Inten    --     24.7937                16.5745                 2.5666

                     16                     17                     18
                      A                      A                      A
 Frequencies --   1265.2208              1302.2120              1450.2908
 Red. masses --      2.3124                 1.2223                 1.1848
 Frc consts  --      2.1809                 1.2212                 1.4683
 IR Inten    --      5.5145                10.4740                 1.4168

                     19                     20                     21
                      A                      A                      A
 Frequencies --   1460.1999              1500.3039              1513.8609
 Red. masses --      1.1593                 1.0543                 1.0551
 Frc consts  --      1.4563                 1.3982                 1.4247
 IR Inten    --      1.6653                17.7943                 3.5251

                     22                     23                     24
                      A                      A                      A
 Frequencies --   1661.4073              1694.1698              2970.3388
 Red. masses --      1.2265                 3.7884                 1.0568
 Frc consts  --      1.9946                 6.4065                 5.4937
 IR Inten    --      5.6958                24.4665                86.0984

                     25                     26                     27
                      A                      A                      A
 Frequencies --   3092.5921              3121.9340              3160.1854
 Red. masses --      1.0802                 1.0530                 1.1009
 Frc consts  --      6.0869                 6.0466                 6.4780
 IR Inten    --     36.6420                 7.3177                11.5706

                     28                     29                     30
                      A                      A                      A
 Frequencies --   3228.4032              3392.9011              3564.1549
 Red. masses --      1.1191                 1.0558                 1.0861
 Frc consts  --      6.8721                 7.1607                 8.1293
 IR Inten    --     13.8649                12.4384                 2.1832

 - Thermochemistry -
 -------------------
 Temperature   298.150 Kelvin.  Pressure   1.00000 Atm.
 Atom     1 has atomic number  6 and mass  12.00000

 Molecular mass:    73.06400 amu.
 Principal axes and moments of inertia in atomic units:
                           1         2         3
     Eigenvalues --   200.58899 401.56279 566.41006
           X            0.99961   0.02777   0.00250
           Y           -0.02778   0.99961   0.00292
           Z           -0.00242  -0.00299   0.99999
 This molecule is an asymmetric top.
 Rotational symmetry number  1.
 Rotational temperatures (Kelvin)      0.43180     0.21569     0.15292
 Rotational constants (GHZ):           8.99721     4.49429     3.18628
 Zero-point vibrational energy     268737.2 (Joules/Mol)
                                   64.22973 (Kcal/Mol)
 Warning -- explicit consideration of   6 degrees of freedom as
           vibrations may cause significant error
 Vibrational temperatures:    260.59   368.27   422.49   498.68   534.77
          (Kelvin)            630.10   899.31  1134.85  1164.69  1244.67
                             1390.99  1503.78  1640.20  1701.10  1786.28
                             1820.37  1873.59  2086.64  2100.90  2158.60
                             2178.11  2390.39  2437.53  4273.65  4449.54
                             4491.76  4546.80  4644.95  4881.62  5128.02

 Zero-point correction=                           0.102357 (Hartree/Particle)
 Thermal correction to Energy=                    0.108206
 Thermal correction to Enthalpy=                  0.109150
 Thermal correction to Gibbs Free Energy=         0.073953
 Sum of electronic and zero-point Energies=           -244.502502
 Sum of electronic and thermal Energies=              -244.496653
 Sum of electronic and thermal Enthalpies=            -244.495709
 Sum of electronic and thermal Free Energies=         -244.530906

                     E (Thermal)             CV                S
                      KCal/Mol        Cal/Mol-Kelvin    Cal/Mol-Kelvin
 Total                   67.900             20.702             74.078
 Electronic               0.000              0.000              0.000
 Translational            0.889              2.981             38.783
 Rotational               0.889              2.981             25.326
 Vibrational             66.123             14.740              9.970
 Vibration     1          0.630              1.865              2.317
 Vibration     2          0.666              1.753              1.689
 Vibration     3          0.688              1.686              1.453
 Vibration     4          0.725              1.582              1.182
 Vibration     5          0.743              1.530              1.073
 Vibration     6          0.798              1.387              0.833

 Optimization completed.
    -- Stationary point found.
 Normal termination of Gaussian 09 at Fri Sep 10 19:00:01 2021.
