 Gaussian 09, Revision E.01,
 Gaussian 09:  ES64L-G09RevE.01 30-Nov-2015

 -------------------------
 #P OPT Freq B3LYP/6-31G**
 -------------------------

 --------
 Frag_172
 --------
 Symbolic Z-matrix:
 Charge =  0 Multiplicity = 1

 SCF Done:  E(RB3LYP) =  -169.800704573     A.U. after   13 cycles
 SCF Done:  E(RB3LYP) =  -169.808300278     A.U. after   12 cycles
 SCF Done:  E(RB3LYP) =  -169.808934975     A.U. after   11 cycles
 SCF Done:  E(RB3LYP) =  -169.809035740     A.U. after    9 cycles
 SCF Done:  E(RB3LYP) =  -169.809043132     A.U. after    8 cycles
 Optimization completed.
    -- Stationary point found.
 Normal termination of Gaussian 09 at Sat Aug 21 01:33:56 2021.

 ----------------------------------------------------------------------
 #P Geom=AllCheck Guess=TCheck SCRF=Check GenChk RB3LYP/6-31G(d,p) Freq
 ----------------------------------------------------------------------

 Structure from the checkpoint file:  "/public/home/users/caep010/.cache/gau_scr/Gau-104027.chk"
 --------
 Frag_172
 --------
 Charge =  0 Multiplicity = 1

                         Standard orientation:
 ---------------------------------------------------------------------
 Center     Atomic      Atomic             Coordinates (Angstroms)
 Number     Number       Type             X           Y           Z
 ---------------------------------------------------------------------
      1          6           0        1.102853    0.196271    0.000006
      2          7           0        0.070337   -0.550609    0.000001
      3          8           0       -1.153355    0.078817   -0.000002
      4          1           0        1.062812    1.292265   -0.000013
      5          1           0        2.070490   -0.294191   -0.000018
      6          1           0       -1.015938    1.048029    0.000007
 ---------------------------------------------------------------------

 SCF Done:  E(RB3LYP) =  -169.809043132     A.U. after    1 cycles

 The electronic state is 1-A.
 Alpha  occ. eigenvalues --  -19.20162 -14.40364 -10.23096  -1.09872  -0.86056
 Alpha  occ. eigenvalues --   -0.64359  -0.53663  -0.49269  -0.41907  -0.38143
 Alpha  occ. eigenvalues --   -0.29633  -0.27284
 Alpha virt. eigenvalues --   -0.01031   0.06177   0.10620   0.13956   0.20638
 Alpha virt. eigenvalues --    0.31321   0.53253   0.59573   0.64207   0.65667
 Alpha virt. eigenvalues --    0.70416   0.72818   0.76147   0.80768   0.84994

 Mulliken charges:
               1
     1  C   -0.067989
     2  N   -0.054043
     3  O   -0.397844
     4  H    0.089556
     5  H    0.132248
     6  H    0.298072
 Sum of Mulliken charges =  -0.00000

 Dipole moment (field-independent basis, Debye):
    X=              1.4995    Y=              2.6048    Z=             -0.0000  Tot=              3.0056
 Quadrupole moment (field-independent basis, Debye-Ang):
   XX=            -16.8145   YY=            -16.6142   ZZ=            -18.6111
   XY=             -1.5127   XZ=             -0.0001   YZ=              0.0000

  Exact polarizability:  32.641   0.498  22.675   0.000   0.000   9.995
 Approx polarizability:  52.489   5.571  34.697   0.000   0.000  13.775

                      1                      2                      3
                      A                      A                      A
 Frequencies --    496.3663               568.9678               782.9564
 Red. masses --      1.1642                 2.2826                 1.2344
 Frc consts  --      0.1690                 0.4354                 0.4458
 IR Inten    --     89.6522                 9.4031                 0.1649

                      4                      5                      6
                      A                      A                      A
 Frequencies --    936.1323               967.8892              1175.4644
 Red. masses --      1.3709                 6.5106                 1.5212
 Frc consts  --      0.7079                 3.5935                 1.2384
 IR Inten    --     35.5788                99.7993                18.9175

                      7                      8                      9
                      A                      A                      A
 Frequencies --   1404.2853              1480.5603              1696.7131
 Red. masses --      1.2226                 1.1942                 5.3934
 Frc consts  --      1.4205                 1.5424                 9.1481
 IR Inten    --     10.3965                37.5932                23.5398

                     10                     11                     12
                      A                      A                      A
 Frequencies --   3055.9418              3234.0480              3595.8143
 Red. masses --      1.0670                 1.1060                 1.0659
 Frc consts  --      5.8708                 6.8155                 8.1203
 IR Inten    --     23.6569                 6.3911                 0.7390

 - Thermochemistry -
 -------------------
 Temperature   298.150 Kelvin.  Pressure   1.00000 Atm.
 Atom     1 has atomic number  6 and mass  12.00000

 Molecular mass:    45.02146 amu.
 Principal axes and moments of inertia in atomic units:
                           1         2         3
     Eigenvalues --    27.10874 151.21459 178.32333
           X            0.99998  -0.00587  -0.00000
           Y            0.00587   0.99998  -0.00000
           Z            0.00000   0.00000   1.00000
 This molecule is an asymmetric top.
 Rotational symmetry number  1.
 Rotational temperatures (Kelvin)      3.19505     0.57279     0.48571
 Rotational constants (GHZ):          66.57414    11.93497    10.12061
 Zero-point vibrational energy     116008.7 (Joules/Mol)
                                   27.72674 (Kcal/Mol)
 Warning -- explicit consideration of   2 degrees of freedom as
           vibrations may cause significant error
 Vibrational temperatures:    714.16   818.62  1126.50  1346.88  1392.57
          (Kelvin)           1691.23  2020.45  2130.19  2441.19  4396.81
                             4653.07  5173.57

 Zero-point correction=                           0.044185 (Hartree/Particle)
 Thermal correction to Energy=                    0.047628
 Thermal correction to Enthalpy=                  0.048572
 Thermal correction to Gibbs Free Energy=         0.019940
 Sum of electronic and zero-point Energies=           -169.764858
 Sum of electronic and thermal Energies=              -169.761415
 Sum of electronic and thermal Enthalpies=            -169.760471
 Sum of electronic and thermal Free Energies=         -169.789103

                     E (Thermal)             CV                S
                      KCal/Mol        Cal/Mol-Kelvin    Cal/Mol-Kelvin
 Total                   29.887             10.307             60.262
 Electronic               0.000              0.000              0.000
 Translational            0.889              2.981             37.339
 Rotational               0.889              2.981             21.219
 Vibrational             28.110              4.345              1.704
 Vibration     1          0.852              1.258              0.667
 Vibration     2          0.925              1.098              0.506

 Optimization completed.
    -- Stationary point found.
 Normal termination of Gaussian 09 at Sat Aug 21 01:34:01 2021.
