 Gaussian 09, Revision E.01,
 Gaussian 09:  ES64L-G09RevE.01 30-Nov-2015

 ----------------------------
 #P OPT Freq B3LYP/6-31G(d,p)
 ----------------------------

 --------
 Frag_595
 --------
 Symbolic Z-matrix:
 Charge =  0 Multiplicity = 1

 SCF Done:  E(RB3LYP) =  -307.690986283     A.U. after   14 cycles
 SCF Done:  E(RB3LYP) =  -307.691070833     A.U. after   11 cycles
 SCF Done:  E(RB3LYP) =  -307.690750200     A.U. after   12 cycles
 SCF Done:  E(RB3LYP) =  -307.691088206     A.U. after    7 cycles
 SCF Done:  E(RB3LYP) =  -307.691092772     A.U. after    8 cycles
 SCF Done:  E(RB3LYP) =  -307.691093392     A.U. after    8 cycles
 SCF Done:  E(RB3LYP) =  -307.691093578     A.U. after    8 cycles
 SCF Done:  E(RB3LYP) =  -307.691093845     A.U. after    8 cycles
 SCF Done:  E(RB3LYP) =  -307.691094082     A.U. after    7 cycles
 SCF Done:  E(RB3LYP) =  -307.691094130     A.U. after    7 cycles
 Optimization completed.
    -- Stationary point found.
 Normal termination of Gaussian 09 at Thu Sep  8 15:06:43 2022.

 ----------------------------------------------------------------------
 #P Geom=AllCheck Guess=TCheck SCRF=Check GenChk RB3LYP/6-31G(d,p) Freq
 ----------------------------------------------------------------------

 Structure from the checkpoint file:  "B3LYP6-31Gdp.Frag_595.chk"
 --------
 Frag_595
 --------
 Charge =  0 Multiplicity = 1

                         Standard orientation:
 ---------------------------------------------------------------------
 Center     Atomic      Atomic             Coordinates (Angstroms)
 Number     Number       Type             X           Y           Z
 ---------------------------------------------------------------------
      1          6           0        1.468522    0.946274    0.573151
      2          6           0        0.795511   -0.210609   -0.136538
      3          8           0        1.394523   -1.215095   -0.471825
      4          6           0       -0.716914   -0.103146   -0.403281
      5          6           0       -1.477384   -0.916038    0.645468
      6          8           0       -1.205825    1.233706   -0.338538
      7          1           0        1.485911    1.830149   -0.074585
      8          1           0        0.906597    1.235020    1.466712
      9          1           0        2.490378    0.667383    0.832535
     10          1           0       -0.892646   -0.547627   -1.393760
     11          1           0       -1.139238   -1.954646    0.634710
     12          1           0       -1.315093   -0.499146    1.644487
     13          1           0       -2.548595   -0.881062    0.431516
     14          1           0       -0.915313    1.702156   -1.131515
 ---------------------------------------------------------------------

 SCF Done:  E(RB3LYP) =  -307.691094130     A.U. after    1 cycles

 The electronic state is 1-A.
 Alpha  occ. eigenvalues --  -19.15826 -19.13944 -10.27423 -10.24716 -10.19028
 Alpha  occ. eigenvalues --  -10.18563  -1.04308  -1.02739  -0.77214  -0.73778
 Alpha  occ. eigenvalues --   -0.63865  -0.54782  -0.52279  -0.47329  -0.44751
 Alpha  occ. eigenvalues --   -0.42492  -0.40779  -0.40381  -0.39128  -0.37231
 Alpha  occ. eigenvalues --   -0.35991  -0.33506  -0.30265  -0.23777
 Alpha virt. eigenvalues --   -0.01804   0.05806   0.10843   0.12910   0.15315
 Alpha virt. eigenvalues --    0.15870   0.17058   0.17745   0.18996   0.19314
 Alpha virt. eigenvalues --    0.23057   0.24029   0.30760   0.34916   0.51058

 Mulliken charges:
               1
     1  C   -0.374632
     2  C    0.392919
     3  O   -0.441865
     4  C    0.100851
     5  C   -0.316085
     6  O   -0.539388
     7  H    0.122322
     8  H    0.138432
     9  H    0.134144
    10  H    0.107509
    11  H    0.128693
    12  H    0.116035
    13  H    0.122977
    14  H    0.308089
 Sum of Mulliken charges =   0.00000

 Dipole moment (field-independent basis, Debye):
    X=             -0.6992    Y=              1.7564    Z=             -0.3345  Tot=              1.9198
 Quadrupole moment (field-independent basis, Debye-Ang):
   XX=            -39.6767   YY=            -37.6357   ZZ=            -33.5817
   XY=              5.5289   XZ=              2.2018   YZ=             -3.5207

  Exact polarizability:  50.663   0.287  50.588  -0.085   1.426  42.090
 Approx polarizability:  65.507  -7.077  75.055  -2.545   4.783  59.656

                      1                      2                      3
                      A                      A                      A
 Frequencies --     46.9443               109.9282               230.0041
 Red. masses --      3.6099                 1.0394                 1.6680
 Frc consts  --      0.0047                 0.0074                 0.0520
 IR Inten    --      5.2930                 0.5862                 1.0577

                      4                      5                      6
                      A                      A                      A
 Frequencies --    235.8535               280.8579               319.2753
 Red. masses --      1.8095                 2.5023                 1.1037
 Frc consts  --      0.0593                 0.1163                 0.0663
 IR Inten    --      2.5079                18.5964               111.9125

                      7                      8                      9
                      A                      A                      A
 Frequencies --    386.4780               501.2176               540.9224
 Red. masses --      3.0444                 3.2995                 4.3505
 Frc consts  --      0.2679                 0.4884                 0.7500
 IR Inten    --     14.9095                21.3934                 4.6235

                     10                     11                     12
                      A                      A                      A
 Frequencies --    595.5011               741.4894               912.3632
 Red. masses --      2.2767                 3.0112                 2.0952
 Frc consts  --      0.4757                 0.9754                 1.0276
 IR Inten    --      1.7666                 0.6380                 4.6621

                     13                     14                     15
                      A                      A                      A
 Frequencies --    959.8534               988.9497              1040.4067
 Red. masses --      1.5683                 1.7177                 1.8624
 Frc consts  --      0.8513                 0.9898                 1.1878
 IR Inten    --     11.1031                21.2113                36.2691

                     16                     17                     18
                      A                      A                      A
 Frequencies --   1096.4239              1144.0237              1242.6367
 Red. masses --      1.7392                 2.4794                 2.5860
 Frc consts  --      1.2318                 1.9119                 2.3527
 IR Inten    --     11.6513                42.6794                52.2993

                     19                     20                     21
                      A                      A                      A
 Frequencies --   1279.9755              1330.6828              1389.5064
 Red. masses --      1.2880                 1.5377                 1.2782
 Frc consts  --      1.2432                 1.6042                 1.4540
 IR Inten    --     53.7333                20.9768                 3.2660

                     22                     23                     24
                      A                      A                      A
 Frequencies --   1399.2357              1415.6528              1466.9718
 Red. masses --      1.3236                 1.2977                 1.0535
 Frc consts  --      1.5269                 1.5322                 1.3357
 IR Inten    --     34.6664                 5.1415                16.7925

                     25                     26                     27
                      A                      A                      A
 Frequencies --   1483.3909              1501.7068              1513.4172
 Red. masses --      1.0525                 1.0495                 1.0511
 Frc consts  --      1.3646                 1.3944                 1.4184
 IR Inten    --      9.8186                 8.7984                 1.8287

                     28                     29                     30
                      A                      A                      A
 Frequencies --   1813.1198              3019.8182              3052.9678
 Red. masses --     10.8196                 1.0846                 1.0378
 Frc consts  --     20.9562                 5.8277                 5.6990
 IR Inten    --    127.6965                29.7920                 2.9136

                     31                     32                     33
                      A                      A                      A
 Frequencies --   3057.7557              3115.2928              3132.9810
 Red. masses --      1.0350                 1.0964                 1.1022
 Frc consts  --      5.7014                 6.2692                 6.3743
 IR Inten    --     13.1184                 7.6313                21.8617

                     34                     35                     36
                      A                      A                      A
 Frequencies --   3152.6035              3169.1857              3821.0378
 Red. masses --      1.1039                 1.1047                 1.0667
 Frc consts  --      6.4640                 6.5371                 9.1760
 IR Inten    --     10.8622                 9.8665                17.6028

 - Thermochemistry -
 -------------------
 Temperature   298.150 Kelvin.  Pressure   1.00000 Atm.
 Atom     1 has atomic number  6 and mass  12.00000

 Molecular mass:    88.05243 amu.
 Principal axes and moments of inertia in atomic units:
                           1         2         3
     Eigenvalues --   382.94613 600.18015 798.57321
           X            0.98744   0.15759   0.01149
           Y           -0.15732   0.98732  -0.02125
           Z           -0.01470   0.01917   0.99971
 This molecule is an asymmetric top.
 Rotational symmetry number  1.
 Rotational temperatures (Kelvin)      0.22618     0.14431     0.10846
 Rotational constants (GHZ):           4.71278     3.00700     2.25996
 Zero-point vibrational energy     307969.2 (Joules/Mol)
                                   73.60641 (Kcal/Mol)
 Warning -- explicit consideration of  10 degrees of freedom as
           vibrations may cause significant error
 Vibrational temperatures:     67.54   158.16   330.92   339.34   404.09
          (Kelvin)            459.37   556.06   721.14   778.27   856.79
                             1066.84  1312.69  1381.01  1422.88  1496.91
                             1577.51  1645.99  1787.87  1841.60  1914.55
                             1999.19  2013.19  2036.81  2110.64  2134.27
                             2160.62  2177.47  2608.67  4344.84  4392.53
                             4399.42  4482.21  4507.66  4535.89  4559.75
                             5497.61

 Zero-point correction=                           0.117299 (Hartree/Particle)
 Thermal correction to Energy=                    0.124844
 Thermal correction to Enthalpy=                  0.125788
 Thermal correction to Gibbs Free Energy=         0.085642
 Sum of electronic and zero-point Energies=           -307.573795
 Sum of electronic and thermal Energies=              -307.566250
 Sum of electronic and thermal Enthalpies=            -307.565306
 Sum of electronic and thermal Free Energies=         -307.605452

                     E (Thermal)             CV                S
                      KCal/Mol        Cal/Mol-Kelvin    Cal/Mol-Kelvin
 Total                   78.341             25.787             84.495
 Electronic               0.000              0.000              0.000
 Translational            0.889              2.981             39.339
 Rotational               0.889              2.981             26.709
 Vibrational             76.563             19.826             18.447
 Vibration     1          0.595              1.979              4.942
 Vibration     2          0.606              1.941              3.270
 Vibration     3          0.652              1.795              1.879
 Vibration     4          0.655              1.786              1.834
 Vibration     5          0.681              1.709              1.528
 Vibration     6          0.705              1.637              1.314
 Vibration     7          0.755              1.499              1.014
 Vibration     8          0.857              1.247              0.655
 Vibration     9          0.896              1.160              0.563
 Vibration    10          0.953              1.041              0.457

 Optimization completed.
    -- Stationary point found.
 Normal termination of Gaussian 09 at Thu Sep  8 15:06:55 2022.
