 Gaussian 09, Revision E.01,
 Gaussian 09:  ES64L-G09RevE.01 30-Nov-2015

 ----------------------------
 #P OPT Freq B3LYP/6-31G(d,p)
 ----------------------------

 --------
 Frag_626
 --------
 Symbolic Z-matrix:
 Charge =  0 Multiplicity = 1

 SCF Done:  E(RB3LYP) =  -264.552029239     A.U. after   13 cycles
 SCF Done:  E(RB3LYP) =  -264.552121293     A.U. after   10 cycles
 SCF Done:  E(RB3LYP) =  -264.552139976     A.U. after    9 cycles
 SCF Done:  E(RB3LYP) =  -264.552143977     A.U. after    8 cycles
 SCF Done:  E(RB3LYP) =  -264.552144486     A.U. after    8 cycles
 SCF Done:  E(RB3LYP) =  -264.552144727     A.U. after    7 cycles
 SCF Done:  E(RB3LYP) =  -264.552144815     A.U. after    7 cycles
 SCF Done:  E(RB3LYP) =  -264.552144881     A.U. after    7 cycles
 Optimization completed.
    -- Stationary point found.
 Normal termination of Gaussian 09 at Thu Sep  8 15:02:07 2022.

 ----------------------------------------------------------------------
 #P Geom=AllCheck Guess=TCheck SCRF=Check GenChk RB3LYP/6-31G(d,p) Freq
 ----------------------------------------------------------------------

 Structure from the checkpoint file:  "B3LYP6-31Gdp.Frag_626.chk"
 --------
 Frag_626
 --------
 Charge =  0 Multiplicity = 1

                         Standard orientation:
 ---------------------------------------------------------------------
 Center     Atomic      Atomic             Coordinates (Angstroms)
 Number     Number       Type             X           Y           Z
 ---------------------------------------------------------------------
      1          6           0       -1.910078    0.011311   -0.015930
      2          7           0       -0.619752   -0.669841   -0.050211
      3          6           0        0.526788    0.110460    0.008442
      4          7           0        0.501285    1.381049    0.022354
      5          8           0        1.683628   -0.630461    0.027208
      6          1           0       -2.700852   -0.729945   -0.155239
      7          1           0       -1.948642    0.733448   -0.832537
      8          1           0       -2.079285    0.558312    0.920026
      9          1           0       -0.570494   -1.486164    0.548364
     10          1           0        1.451044    1.742729   -0.062083
     11          1           0        1.508208   -1.483768   -0.396273
 ---------------------------------------------------------------------

 SCF Done:  E(RB3LYP) =  -264.552144881     A.U. after    1 cycles

 The electronic state is 1-A.
 Alpha  occ. eigenvalues --  -19.18209 -14.35437 -14.28674 -10.29724 -10.21120
 Alpha  occ. eigenvalues --   -1.07409  -0.93138  -0.85778  -0.69507  -0.59318
 Alpha  occ. eigenvalues --   -0.56838  -0.48171  -0.46682  -0.43900  -0.40284
 Alpha  occ. eigenvalues --   -0.38869  -0.36758  -0.28844  -0.26710  -0.23629
 Alpha virt. eigenvalues --    0.05386   0.05892   0.10326   0.14133   0.14899
 Alpha virt. eigenvalues --    0.16031   0.18251   0.19873   0.25942   0.34909
 Alpha virt. eigenvalues --    0.41713   0.53977   0.55030   0.57148   0.58489

 Mulliken charges:
               1
     1  C   -0.160355
     2  N   -0.542459
     3  C    0.635230
     4  N   -0.578070
     5  O   -0.525634
     6  H    0.101492
     7  H    0.147240
     8  H    0.121465
     9  H    0.254710
    10  H    0.232169
    11  H    0.314211
 Sum of Mulliken charges =  -0.00000

 Dipole moment (field-independent basis, Debye):
    X=             -0.6447    Y=             -2.9528    Z=             -0.0079  Tot=              3.0223
 Quadrupole moment (field-independent basis, Debye-Ang):
   XX=            -28.4309   YY=            -28.2894   ZZ=            -30.4805
   XY=              0.5635   XZ=             -1.6981   YZ=             -0.7593

  Exact polarizability:  44.336   2.450  45.980  -0.560   0.058  24.287
 Approx polarizability:  54.992   2.391  73.361   0.133   0.578  33.843

                      1                      2                      3
                      A                      A                      A
 Frequencies --    146.4313               183.3309               279.4414
 Red. masses --      1.1975                 2.4754                 2.9583
 Frc consts  --      0.0151                 0.0490                 0.1361
 IR Inten    --      0.5517                 3.7106                13.3058

                      4                      5                      6
                      A                      A                      A
 Frequencies --    411.3971               486.1414               545.4702
 Red. masses --      1.1472                 2.9289                 1.9631
 Frc consts  --      0.1144                 0.4078                 0.3441
 IR Inten    --    129.4156                43.2202                38.4980

                      7                      8                      9
                      A                      A                      A
 Frequencies --    640.9944               712.1716               832.4043
 Red. masses --      2.2676                 4.0122                 1.1731
 Frc consts  --      0.5489                 1.1990                 0.4789
 IR Inten    --     84.3893                71.1648                67.8732

                     10                     11                     12
                      A                      A                      A
 Frequencies --    921.8670              1081.1735              1142.3349
 Red. masses --      2.6158                 2.8863                 1.5276
 Frc consts  --      1.3098                 1.9878                 1.1745
 IR Inten    --     20.1740                42.0632                22.5782

                     13                     14                     15
                      A                      A                      A
 Frequencies --   1155.3052              1183.2662              1229.0227
 Red. masses --      1.6450                 1.5451                 1.3267
 Frc consts  --      1.2936                 1.2746                 1.1807
 IR Inten    --     66.1206                 2.6802                39.4831

                     16                     17                     18
                      A                      A                      A
 Frequencies --   1358.9061              1463.6470              1491.0093
 Red. masses --      1.9275                 1.1661                 1.1321
 Frc consts  --      2.0971                 1.4719                 1.4828
 IR Inten    --    245.5145                 6.1972                43.8794

                     19                     20                     21
                      A                      A                      A
 Frequencies --   1511.4371              1542.5469              1786.4815
 Red. masses --      1.2225                 1.3380                 6.8774
 Frc consts  --      1.6454                 1.8757                12.9321
 IR Inten    --     38.5981               100.6649               257.4912

                     22                     23                     24
                      A                      A                      A
 Frequencies --   3036.6412              3113.5127              3159.1815
 Red. masses --      1.0434                 1.0948                 1.1025
 Frc consts  --      5.6689                 6.2528                 6.4828
 IR Inten    --     45.0857                30.7094                11.9118

                     25                     26                     27
                      A                      A                      A
 Frequencies --   3522.4028              3575.5025              3783.0324
 Red. masses --      1.0746                 1.0752                 1.0653
 Frc consts  --      7.8555                 8.0984                 8.9824
 IR Inten    --      2.9091                 7.8923                25.7044

 - Thermochemistry -
 -------------------
 Temperature   298.150 Kelvin.  Pressure   1.00000 Atm.
 Atom     1 has atomic number  6 and mass  12.00000

 Molecular mass:    74.04801 amu.
 Principal axes and moments of inertia in atomic units:
                           1         2         3
     Eigenvalues --   180.26152 440.94547 606.27548
           X            0.99995   0.00740  -0.00729
           Y           -0.00745   0.99995  -0.00693
           Z            0.00724   0.00698   0.99995
 This molecule is an asymmetric top.
 Rotational symmetry number  1.
 Rotational temperatures (Kelvin)      0.48049     0.19643     0.14286
 Rotational constants (GHZ):          10.01179     4.09289     2.97677
 Zero-point vibrational energy     241017.9 (Joules/Mol)
                                   57.60467 (Kcal/Mol)
 Warning -- explicit consideration of   6 degrees of freedom as
           vibrations may cause significant error
 Vibrational temperatures:    210.68   263.77   402.05   591.91   699.45
          (Kelvin)            784.81   922.25  1024.65  1197.64  1326.36
                             1555.57  1643.56  1662.22  1702.45  1768.29
                             1955.16  2105.86  2145.23  2174.62  2219.38
                             2570.35  4369.04  4479.64  4545.35  5067.95
                             5144.34  5442.93

 Zero-point correction=                           0.091799 (Hartree/Particle)
 Thermal correction to Energy=                    0.097537
 Thermal correction to Enthalpy=                  0.098481
 Thermal correction to Gibbs Free Energy=         0.063212
 Sum of electronic and zero-point Energies=           -264.460346
 Sum of electronic and thermal Energies=              -264.454608
 Sum of electronic and thermal Enthalpies=            -264.453664
 Sum of electronic and thermal Free Energies=         -264.488933

                     E (Thermal)             CV                S
                      KCal/Mol        Cal/Mol-Kelvin    Cal/Mol-Kelvin
 Total                   61.205             19.769             74.230
 Electronic               0.000              0.000              0.000
 Translational            0.889              2.981             38.822
 Rotational               0.889              2.981             25.380
 Vibrational             59.428             13.807             10.027
 Vibration     1          0.617              1.907              2.718
 Vibration     2          0.631              1.863              2.294
 Vibration     3          0.680              1.712              1.537
 Vibration     4          0.775              1.445              0.922
 Vibration     5          0.842              1.281              0.694
 Vibration     6          0.901              1.150              0.554

 Optimization completed.
    -- Stationary point found.
 Normal termination of Gaussian 09 at Thu Sep  8 15:02:15 2022.
