 Gaussian 09, Revision E.01,
 Gaussian 09:  ES64L-G09RevE.01 30-Nov-2015

 ----------------------------
 #P OPT Freq B3LYP/6-31G(d,p)
 ----------------------------

 --------
 Frag_945
 --------
 Symbolic Z-matrix:
 Charge =  0 Multiplicity = 1

 SCF Done:  E(RB3LYP) =  -383.699904789     A.U. after   13 cycles
 SCF Done:  E(RB3LYP) =  -383.699957588     A.U. after   10 cycles
 SCF Done:  E(RB3LYP) =  -383.699965097     A.U. after    9 cycles
 SCF Done:  E(RB3LYP) =  -383.699963721     A.U. after    8 cycles
 SCF Done:  E(RB3LYP) =  -383.699967540     A.U. after    7 cycles
 SCF Done:  E(RB3LYP) =  -383.699967702     A.U. after    6 cycles
 Optimization completed.
    -- Stationary point found.
 Normal termination of Gaussian 09 at Thu Sep  8 15:00:54 2022.

 ----------------------------------------------------------------------
 #P Geom=AllCheck Guess=TCheck SCRF=Check GenChk RB3LYP/6-31G(d,p) Freq
 ----------------------------------------------------------------------

 Structure from the checkpoint file:  "B3LYP6-31Gdp.Frag_945.chk"
 --------
 Frag_945
 --------
 Charge =  0 Multiplicity = 1

                         Standard orientation:
 ---------------------------------------------------------------------
 Center     Atomic      Atomic             Coordinates (Angstroms)
 Number     Number       Type             X           Y           Z
 ---------------------------------------------------------------------
      1          6           0        1.434147   -0.000072    1.388001
      2          6           0        0.822663    0.000004   -0.017186
      3          7           0        1.340999    1.174776   -0.730213
      4          7           0        1.340996   -1.174688   -0.730347
      5          6           0       -0.767701   -0.000000    0.010092
      6          6           0       -1.362183   -1.255257    0.666961
      7          6           0       -1.362193    1.255249    0.666965
      8          8           0       -1.110020   -0.000002   -1.392646
      9          1           0        2.520558   -0.000082    1.282305
     10          1           0        1.140349    0.884787    1.960539
     11          1           0        1.140321   -0.884973    1.960458
     12          1           0        0.848285    1.258562   -1.617659
     13          1           0        1.127928    2.018428   -0.204380
     14          1           0        0.848239   -1.258413   -1.617775
     15          1           0        1.127989   -2.018394   -0.204574
     16          1           0       -1.002390   -2.163165    0.177199
     17          1           0       -2.455605   -1.243570    0.580942
     18          1           0       -1.123303   -1.312377    1.733022
     19          1           0       -2.455614    1.243556    0.580938
     20          1           0       -1.123319    1.312365    1.733028
     21          1           0       -1.002404    2.163162    0.177210
     22          1           0       -2.073251   -0.000027   -1.465161
 ---------------------------------------------------------------------

 SCF Done:  E(RB3LYP) =  -383.699967702     A.U. after    1 cycles

 The electronic state is 1-A.
 Alpha  occ. eigenvalues --  -19.14820 -14.29601 -14.29600 -10.24080 -10.23705
 Alpha  occ. eigenvalues --  -10.18099 -10.18098 -10.16955  -1.02236  -0.90440
 Alpha  occ. eigenvalues --   -0.82387  -0.77314  -0.70985  -0.69361  -0.62242
 Alpha  occ. eigenvalues --   -0.54699  -0.49819  -0.48186  -0.46911  -0.46586
 Alpha  occ. eigenvalues --   -0.43458  -0.41614  -0.40500  -0.39185  -0.39060
 Alpha  occ. eigenvalues --   -0.36683  -0.36602  -0.35302  -0.34074  -0.32816
 Alpha  occ. eigenvalues --   -0.27365  -0.22989  -0.22101
 Alpha virt. eigenvalues --    0.05230   0.09539   0.11869   0.11888   0.12284
 Alpha virt. eigenvalues --    0.13437   0.14560   0.16684   0.16722   0.17741
 Alpha virt. eigenvalues --    0.19164   0.20125   0.21359   0.22373   0.23657

 Mulliken charges:
               1
     1  C   -0.316369
     2  C    0.239080
     3  N   -0.570504
     4  N   -0.570507
     5  C    0.267015
     6  C   -0.319273
     7  C   -0.319272
     8  O   -0.566568
     9  H    0.140501
    10  H    0.092465
    11  H    0.092465
    12  H    0.244171
    13  H    0.226649
    14  H    0.244174
    15  H    0.226649
    16  H    0.099532
    17  H    0.087558
    18  H    0.106769
    19  H    0.087558
    20  H    0.106768
    21  H    0.099531
    22  H    0.301607
 Sum of Mulliken charges =  -0.00000

 Dipole moment (field-independent basis, Debye):
    X=             -3.5806    Y=             -0.0001    Z=              1.2640  Tot=              3.7971
 Quadrupole moment (field-independent basis, Debye-Ang):
   XX=            -55.1102   YY=            -47.9017   ZZ=            -50.8594
   XY=             -0.0003   XZ=              4.2967   YZ=              0.0001

  Exact polarizability:  73.302  -0.000  71.302   0.602   0.000  69.349
 Approx polarizability:  98.538  -0.000  99.023   0.107   0.000 101.464

                      1                      2                      3
                      A                      A                      A
 Frequencies --     81.8783               113.4632               229.3588
 Red. masses --      2.8565                 1.0966                 1.1171
 Frc consts  --      0.0113                 0.0083                 0.0346
 IR Inten    --      0.1232                31.3826                20.7635

                      4                      5                      6
                      A                      A                      A
 Frequencies --    253.0152               256.4644               265.2358
 Red. masses --      1.5918                 1.1252                 1.3777
 Frc consts  --      0.0600                 0.0436                 0.0571
 IR Inten    --      8.2690                 3.0060                 2.5285

                      7                      8                      9
                      A                      A                      A
 Frequencies --    271.1828               300.5331               300.6976
 Red. masses --      1.0928                 1.4107                 2.0943
 Frc consts  --      0.0473                 0.0751                 0.1116
 IR Inten    --     60.9146                40.1415                 1.4510

                     10                     11                     12
                      A                      A                      A
 Frequencies --    358.7651               359.6488               387.3846
 Red. masses --      2.5910                 3.2645                 2.0071
 Frc consts  --      0.1965                 0.2488                 0.1775
 IR Inten    --      8.2810                 7.6177                 3.5746

                     13                     14                     15
                      A                      A                      A
 Frequencies --    421.2378               422.7464               516.8776
 Red. masses --      2.9594                 2.3527                 2.9303
 Frc consts  --      0.3094                 0.2477                 0.4612
 IR Inten    --      7.7438                 8.4816                 0.0885

                     16                     17                     18
                      A                      A                      A
 Frequencies --    532.1944               547.2911               670.6285
 Red. masses --      2.7857                 2.8193                 3.3418
 Frc consts  --      0.4649                 0.4975                 0.8855
 IR Inten    --      9.9679                21.4882                12.4637

                     19                     20                     21
                      A                      A                      A
 Frequencies --    843.1923               844.6265               886.0408
 Red. masses --      2.9125                 1.7019                 2.0463
 Frc consts  --      1.2200                 0.7153                 0.9465
 IR Inten    --     26.8001                99.7638                 1.8063

                     22                     23                     24
                      A                      A                      A
 Frequencies --    924.5100               925.2925               959.1114
 Red. masses --      1.4923                 1.4394                 2.1810
 Frc consts  --      0.7515                 0.7261                 1.1821
 IR Inten    --      1.2135               269.3899                30.9296

                     25                     26                     27
                      A                      A                      A
 Frequencies --    994.8720              1014.6894              1042.5912
 Red. masses --      1.3484                 1.2751                 1.7987
 Frc consts  --      0.7863                 0.7735                 1.1519
 IR Inten    --      3.9005                 0.0543                44.4963

                     28                     29                     30
                      A                      A                      A
 Frequencies --   1113.7574              1130.6790              1162.0976
 Red. masses --      1.4480                 1.4372                 2.1165
 Frc consts  --      1.0583                 1.0826                 1.6840
 IR Inten    --      5.7569                53.8063               132.8898

                     31                     32                     33
                      A                      A                      A
 Frequencies --   1211.3383              1212.3467              1306.2995
 Red. masses --      2.5843                 3.0060                 2.2857
 Frc consts  --      2.2342                 2.6031                 2.2980
 IR Inten    --     17.9071                13.8285                16.3137

                     34                     35                     36
                      A                      A                      A
 Frequencies --   1342.0985              1389.3231              1410.1148
 Red. masses --      1.8092                 1.3743                 1.2937
 Frc consts  --      1.9201                 1.5630                 1.5156
 IR Inten    --     36.1665                 2.4323                 9.7451

                     37                     38                     39
                      A                      A                      A
 Frequencies --   1426.8108              1430.9114              1495.6269
 Red. masses --      1.3046                 1.6070                 1.0497
 Frc consts  --      1.5648                 1.9386                 1.3835
 IR Inten    --     13.1751                 9.8470                 1.9818

                     40                     41                     42
                      A                      A                      A
 Frequencies --   1502.5495              1505.0555              1515.5215
 Red. masses --      1.0488                 1.0485                 1.0529
 Frc consts  --      1.3950                 1.3994                 1.4248
 IR Inten    --      3.2772                 1.5225                 1.0739

                     43                     44                     45
                      A                      A                      A
 Frequencies --   1518.6217              1526.4268              1649.2176
 Red. masses --      1.0574                 1.0576                 1.0880
 Frc consts  --      1.4368                 1.4519                 1.7435
 IR Inten    --      3.4999                 9.0530                33.6345

                     46                     47                     48
                      A                      A                      A
 Frequencies --   1691.7564              3037.2667              3043.8572
 Red. masses --      1.0994                 1.0414                 1.0409
 Frc consts  --      1.8538                 5.6604                 5.6818
 IR Inten    --      8.6843                13.8400                31.0846

                     49                     50                     51
                      A                      A                      A
 Frequencies --   3057.5560              3100.9913              3109.2944
 Red. masses --      1.0375                 1.0965                 1.0949
 Frc consts  --      5.7145                 6.2122                 6.2364
 IR Inten    --     15.8871                 0.8936                51.8525

                     52                     53                     54
                      A                      A                      A
 Frequencies --   3124.2633              3138.5979              3140.3553
 Red. masses --      1.1009                 1.1021                 1.1016
 Frc consts  --      6.3312                 6.3967                 6.4006
 IR Inten    --     42.8238                10.8783                25.5338

                     55                     56                     57
                      A                      A                      A
 Frequencies --   3153.2061              3488.5986              3490.7225
 Red. masses --      1.1014                 1.0492                 1.0494
 Frc consts  --      6.4521                 7.5231                 7.5336
 IR Inten    --     14.7294                 1.6389                 1.8300

                     58                     59                     60
                      A                      A                      A
 Frequencies --   3578.9296              3579.6627              3815.3536
 Red. masses --      1.0921                 1.0910                 1.0665
 Frc consts  --      8.2420                 8.2365                 9.1472
 IR Inten    --      0.6167                 2.0597                10.3462

 - Thermochemistry -
 -------------------
 Temperature   298.150 Kelvin.  Pressure   1.00000 Atm.
 Atom     1 has atomic number  6 and mass  12.00000

 Molecular mass:   118.11061 amu.
 Principal axes and moments of inertia in atomic units:
                           1         2         3
     Eigenvalues --   745.397751041.994211049.85587
           X            0.99999  -0.00000   0.00397
           Y            0.00000   1.00000  -0.00004
           Z           -0.00397   0.00004   0.99999
 This molecule is an asymmetric top.
 Rotational symmetry number  1.
 Warning -- assumption of classical behavior for rotation
           may cause significant error
 Rotational temperatures (Kelvin)      0.11620     0.08312     0.08250
 Rotational constants (GHZ):           2.42118     1.73201     1.71904
 Zero-point vibrational energy     521109.7 (Joules/Mol)
                                  124.54821 (Kcal/Mol)
 Warning -- explicit consideration of  17 degrees of freedom as
           vibrations may cause significant error
 Vibrational temperatures:    117.80   163.25   330.00   364.03   368.99
          (Kelvin)            381.61   390.17   432.40   432.64   516.18
                              517.45   557.36   606.07   608.24   743.67
                              765.71   787.43   964.88  1213.16  1215.23
                             1274.81  1330.16  1331.29  1379.95  1431.40
                             1459.91  1500.05  1602.45  1626.79  1672.00
                             1742.84  1744.29  1879.47  1930.98  1998.92
                             2028.84  2052.86  2058.76  2151.87  2161.83
                             2165.44  2180.49  2184.96  2196.19  2372.85
                             2434.06  4369.94  4379.43  4399.14  4461.63
                             4473.58  4495.11  4515.74  4518.27  4536.75
                             5019.31  5022.36  5149.27  5150.33  5489.44

 Zero-point correction=                           0.198480 (Hartree/Particle)
 Thermal correction to Energy=                    0.208974
 Thermal correction to Enthalpy=                  0.209919
 Thermal correction to Gibbs Free Energy=         0.164560
 Sum of electronic and zero-point Energies=           -383.501488
 Sum of electronic and thermal Energies=              -383.490993
 Sum of electronic and thermal Enthalpies=            -383.490049
 Sum of electronic and thermal Free Energies=         -383.535407

                     E (Thermal)             CV                S
                      KCal/Mol        Cal/Mol-Kelvin    Cal/Mol-Kelvin
 Total                  131.133             40.313             95.464
 Electronic               0.000              0.000              0.000
 Translational            0.889              2.981             40.214
 Rotational               0.889              2.981             28.191
 Vibrational            129.356             34.351             27.059
 Vibration     1          0.600              1.962              3.845
 Vibration     2          0.607              1.938              3.209
 Vibration     3          0.652              1.796              1.884
 Vibration     4          0.664              1.758              1.709
 Vibration     5          0.666              1.752              1.686
 Vibration     6          0.671              1.737              1.627
 Vibration     7          0.675              1.726              1.589
 Vibration     8          0.693              1.673              1.414
 Vibration     9          0.693              1.672              1.413
 Vibration    10          0.734              1.557              1.127
 Vibration    11          0.734              1.555              1.124
 Vibration    12          0.756              1.497              1.010
 Vibration    13          0.784              1.424              0.888
 Vibration    14          0.785              1.421              0.883
 Vibration    15          0.872              1.213              0.617
 Vibration    16          0.887              1.179              0.582
 Vibration    17          0.903              1.146              0.550

 Optimization completed.
    -- Stationary point found.
 Normal termination of Gaussian 09 at Thu Sep  8 15:01:20 2022.
