 Gaussian 09, Revision E.01,
 Gaussian 09:  ES64L-G09RevE.01 30-Nov-2015

 ----------------------------
 #P OPT Freq B3LYP/6-31G(d,p)
 ----------------------------

 --------
 Frag_488
 --------
 Symbolic Z-matrix:
 Charge =  0 Multiplicity = 1

 SCF Done:  E(RB3LYP) =  -287.748171817     A.U. after   14 cycles
 SCF Done:  E(RB3LYP) =  -287.748240787     A.U. after   11 cycles
 SCF Done:  E(RB3LYP) =  -287.748252284     A.U. after   10 cycles
 SCF Done:  E(RB3LYP) =  -287.748257006     A.U. after    9 cycles
 SCF Done:  E(RB3LYP) =  -287.748257604     A.U. after    8 cycles
 SCF Done:  E(RB3LYP) =  -287.748257803     A.U. after    7 cycles
 SCF Done:  E(RB3LYP) =  -287.748257869     A.U. after    7 cycles
 SCF Done:  E(RB3LYP) =  -287.748257905     A.U. after    6 cycles
 Optimization completed.
    -- Stationary point found.
 Normal termination of Gaussian 09 at Thu Sep  8 15:21:00 2022.

 ----------------------------------------------------------------------
 #P Geom=AllCheck Guess=TCheck SCRF=Check GenChk RB3LYP/6-31G(d,p) Freq
 ----------------------------------------------------------------------

 Structure from the checkpoint file:  "B3LYP6-31Gdp.Frag_488.chk"
 --------
 Frag_488
 --------
 Charge =  0 Multiplicity = 1

                         Standard orientation:
 ---------------------------------------------------------------------
 Center     Atomic      Atomic             Coordinates (Angstroms)
 Number     Number       Type             X           Y           Z
 ---------------------------------------------------------------------
      1          6           0       -0.988965    1.538286    0.249944
      2          6           0       -0.694261    0.259771   -0.040715
      3          6           0       -1.749785   -0.809394   -0.168374
      4          7           0        0.613708   -0.178222   -0.342259
      5          6           0        1.728600    0.728153   -0.144854
      6          8           0        0.908446   -1.441848    0.254612
      7          1           0       -2.023421    1.845340    0.348343
      8          1           0       -0.238516    2.311402    0.356587
      9          1           0       -2.745627   -0.371138   -0.079163
     10          1           0       -1.638634   -1.579728    0.600216
     11          1           0       -1.665045   -1.314439   -1.135726
     12          1           0        1.603377    1.597508   -0.794535
     13          1           0        1.822999    1.079439    0.897999
     14          1           0        2.640461    0.202311   -0.430459
     15          1           0        0.907347   -1.289244    1.219644
 ---------------------------------------------------------------------

 SCF Done:  E(RB3LYP) =  -287.748257905     A.U. after    1 cycles

 The electronic state is 1-A.
 Alpha  occ. eigenvalues --  -19.18044 -14.38792 -10.22102 -10.21321 -10.17856
 Alpha  occ. eigenvalues --  -10.16693  -1.07032  -0.86974  -0.76946  -0.68381
 Alpha  occ. eigenvalues --   -0.67263  -0.56347  -0.50275  -0.48285  -0.46152
 Alpha  occ. eigenvalues --   -0.42802  -0.41016  -0.40570  -0.38217  -0.37208
 Alpha  occ. eigenvalues --   -0.36031  -0.29791  -0.28205  -0.21059
 Alpha virt. eigenvalues --    0.02080   0.07787   0.10587   0.12293   0.13074
 Alpha virt. eigenvalues --    0.14900   0.16515   0.16990   0.18754   0.19322
 Alpha virt. eigenvalues --    0.20029   0.22125   0.26174   0.33290   0.37208

 Mulliken charges:
               1
     1  C   -0.316852
     2  C    0.297720
     3  C   -0.341851
     4  N   -0.221016
     5  C   -0.171277
     6  O   -0.430375
     7  H    0.090079
     8  H    0.088075
     9  H    0.107153
    10  H    0.117330
    11  H    0.131273
    12  H    0.127894
    13  H    0.087272
    14  H    0.132475
    15  H    0.302099
 Sum of Mulliken charges =  -0.00000

 Dipole moment (field-independent basis, Debye):
    X=              0.2476    Y=              0.8448    Z=              1.4128  Tot=              1.6646
 Quadrupole moment (field-independent basis, Debye-Ang):
   XX=            -34.7924   YY=            -38.8071   ZZ=            -37.0611
   XY=              2.4809   XZ=              1.2383   YZ=             -2.0379

  Exact polarizability:  60.366  -3.868  65.587  -0.265   1.793  39.383
 Approx polarizability:  75.657 -12.180 102.550  -2.206   5.887  58.507

                      1                      2                      3
                      A                      A                      A
 Frequencies --     94.4250               165.4376               261.2391
 Red. masses --      2.7736                 1.1228                 1.7319
 Frc consts  --      0.0146                 0.0181                 0.0696
 IR Inten    --      6.1964                 0.1386                12.5130

                      4                      5                      6
                      A                      A                      A
 Frequencies --    288.5501               313.8781               405.2921
 Red. masses --      2.3914                 1.6803                 2.2977
 Frc consts  --      0.1173                 0.0975                 0.2224
 IR Inten    --      6.5613                 7.4754                 1.1532

                      7                      8                      9
                      A                      A                      A
 Frequencies --    439.9305               486.5853               520.3208
 Red. masses --      1.3571                 2.0810                 2.2099
 Frc consts  --      0.1547                 0.2903                 0.3525
 IR Inten    --     33.7808                38.7041                42.9941

                     10                     11                     12
                      A                      A                      A
 Frequencies --    560.8633               730.2655               755.4300
 Red. masses --      2.5350                 2.2111                 1.7485
 Frc consts  --      0.4698                 0.6947                 0.5879
 IR Inten    --      8.3589                 9.3836                23.2357

                     13                     14                     15
                      A                      A                      A
 Frequencies --    844.5910               914.9258               993.8471
 Red. masses --      1.3591                 2.4741                 1.9372
 Frc consts  --      0.5712                 1.2202                 1.1273
 IR Inten    --     51.7271                 3.4815                 2.9490

                     16                     17                     18
                      A                      A                      A
 Frequencies --   1018.5759              1080.2917              1134.3017
 Red. masses --      1.4652                 1.5004                 1.7491
 Frc consts  --      0.8956                 1.0316                 1.3260
 IR Inten    --      1.3925                 2.5633                16.5704

                     19                     20                     21
                      A                      A                      A
 Frequencies --   1174.3113              1210.0641              1359.4832
 Red. masses --      2.3173                 1.8378                 2.9984
 Frc consts  --      1.8828                 1.5855                 3.2651
 IR Inten    --      5.3303                 3.6953                42.1608

                     22                     23                     24
                      A                      A                      A
 Frequencies --   1394.8844              1422.0501              1443.8455
 Red. masses --      1.2310                 1.2688                 1.2912
 Frc consts  --      1.4112                 1.5117                 1.5859
 IR Inten    --     20.2855                11.7277                 4.3233

                     25                     26                     27
                      A                      A                      A
 Frequencies --   1466.2318              1487.7023              1504.0532
 Red. masses --      1.1704                 1.0458                 1.0580
 Frc consts  --      1.4825                 1.3637                 1.4101
 IR Inten    --      0.8350                 6.1121                21.2674

                     28                     29                     30
                      A                      A                      A
 Frequencies --   1506.5536              1518.0937              1704.5916
 Red. masses --      1.0511                 1.0689                 4.8444
 Frc consts  --      1.4056                 1.4514                 8.2933
 IR Inten    --     11.1455                 1.5871                59.9575

                     31                     32                     33
                      A                      A                      A
 Frequencies --   2962.9526              3058.0641              3107.4175
 Red. masses --      1.0583                 1.0361                 1.0751
 Frc consts  --      5.4740                 5.7091                 6.1161
 IR Inten    --     62.9054                16.7562                19.9388

                     34                     35                     36
                      A                      A                      A
 Frequencies --   3118.1029              3148.2108              3158.6421
 Red. masses --      1.1004                 1.1032                 1.1040
 Frc consts  --      6.3033                 6.4421                 6.4899
 IR Inten    --     15.3431                15.0038                10.7953

                     37                     38                     39
                      A                      A                      A
 Frequencies --   3185.2624              3268.7301              3615.5218
 Red. masses --      1.0602                 1.1157                 1.0680
 Frc consts  --      6.3374                 7.0237                 8.2257
 IR Inten    --      2.0430                12.9040                 8.0533

 - Thermochemistry -
 -------------------
 Temperature   298.150 Kelvin.  Pressure   1.00000 Atm.
 Atom     1 has atomic number  6 and mass  12.00000

 Molecular mass:    87.06841 amu.
 Principal axes and moments of inertia in atomic units:
                           1         2         3
     Eigenvalues --   372.01948 533.40008 840.57589
           X            0.99294   0.11851   0.00504
           Y           -0.11851   0.99295   0.00154
           Z           -0.00482  -0.00212   0.99999
 This molecule is an asymmetric top.
 Rotational symmetry number  1.
 Rotational temperatures (Kelvin)      0.23282     0.16238     0.10304
 Rotational constants (GHZ):           4.85120     3.38347     2.14703
 Zero-point vibrational energy     339880.1 (Joules/Mol)
                                   81.23330 (Kcal/Mol)
 Warning -- explicit consideration of  10 degrees of freedom as
           vibrations may cause significant error
 Vibrational temperatures:    135.86   238.03   375.86   415.16   451.60
          (Kelvin)            583.12   632.96   700.09   748.62   806.96
                             1050.69  1086.89  1215.18  1316.37  1429.92
                             1465.50  1554.30  1632.01  1689.57  1741.01
                             1955.99  2006.92  2046.01  2077.37  2109.58
                             2140.47  2163.99  2167.59  2184.20  2452.52
                             4263.02  4399.87  4470.88  4486.25  4529.57
                             4544.58  4582.88  4702.97  5201.92

 Zero-point correction=                           0.129454 (Hartree/Particle)
 Thermal correction to Energy=                    0.136683
 Thermal correction to Enthalpy=                  0.137627
 Thermal correction to Gibbs Free Energy=         0.098954
 Sum of electronic and zero-point Energies=           -287.618804
 Sum of electronic and thermal Energies=              -287.611575
 Sum of electronic and thermal Enthalpies=            -287.610631
 Sum of electronic and thermal Free Energies=         -287.649304

                     E (Thermal)             CV                S
                      KCal/Mol        Cal/Mol-Kelvin    Cal/Mol-Kelvin
 Total                   85.770             26.434             81.395
 Electronic               0.000              0.000              0.000
 Translational            0.889              2.981             39.305
 Rotational               0.889              2.981             26.614
 Vibrational             83.992             20.472             15.475
 Vibration     1          0.603              1.953              3.566
 Vibration     2          0.624              1.885              2.487
 Vibration     3          0.669              1.744              1.653
 Vibration     4          0.685              1.695              1.482
 Vibration     5          0.702              1.647              1.342
 Vibration     6          0.770              1.459              0.943
 Vibration     7          0.800              1.383              0.827
 Vibration     8          0.843              1.280              0.693
 Vibration     9          0.875              1.205              0.609
 Vibration    10          0.917              1.116              0.522

 Optimization completed.
    -- Stationary point found.
 Normal termination of Gaussian 09 at Thu Sep  8 15:21:13 2022.
