 Gaussian 09, Revision E.01,
 Gaussian 09:  ES64L-G09RevE.01 30-Nov-2015

 ----------------------------
 #P OPT Freq B3LYP/6-31G(d,p)
 ----------------------------

 --------
 Frag_687
 --------
 Symbolic Z-matrix:
 Charge =  0 Multiplicity = 1

 SCF Done:  E(RB3LYP) =  -335.907855598     A.U. after   14 cycles
 SCF Done:  E(RB3LYP) =  -335.907981034     A.U. after   10 cycles
 SCF Done:  E(RB3LYP) =  -335.907994346     A.U. after   10 cycles
 SCF Done:  E(RB3LYP) =  -335.908001675     A.U. after   11 cycles
 SCF Done:  E(RB3LYP) =  -335.908007244     A.U. after   11 cycles
 SCF Done:  E(RB3LYP) =  -335.908010824     A.U. after   10 cycles
 SCF Done:  E(RB3LYP) =  -335.908013965     A.U. after    8 cycles
 SCF Done:  E(RB3LYP) =  -335.908014517     A.U. after    8 cycles
 SCF Done:  E(RB3LYP) =  -335.908014841     A.U. after    8 cycles
 Optimization completed.
    -- Stationary point found.
 Normal termination of Gaussian 09 at Thu Sep  8 15:22:02 2022.

 ----------------------------------------------------------------------
 #P Geom=AllCheck Guess=TCheck SCRF=Check GenChk RB3LYP/6-31G(d,p) Freq
 ----------------------------------------------------------------------

 Structure from the checkpoint file:  "B3LYP6-31Gdp.Frag_687.chk"
 --------
 Frag_687
 --------
 Charge =  0 Multiplicity = 1

                         Standard orientation:
 ---------------------------------------------------------------------
 Center     Atomic      Atomic             Coordinates (Angstroms)
 Number     Number       Type             X           Y           Z
 ---------------------------------------------------------------------
      1          7           0        1.588158    0.820988    0.020123
      2          6           0        0.703071   -0.245660   -0.035742
      3          8           0        1.061363   -1.410494    0.078571
      4          7           0       -0.639119    0.105181   -0.190225
      5          7           0       -1.590700   -0.919832    0.022022
      6          7           0       -1.095836    1.392289    0.141699
      7          1           0        2.548770    0.527811   -0.088103
      8          1           0        1.344119    1.673757   -0.461258
      9          1           0       -1.210006   -1.550233    0.729512
     10          1           0       -1.632519   -1.468572   -0.834908
     11          1           0       -0.589796    1.768609    0.940380
     12          1           0       -1.007423    2.016149   -0.655072
 ---------------------------------------------------------------------

 SCF Done:  E(RB3LYP) =  -335.908014841     A.U. after    1 cycles

 The electronic state is 1-A.
 Alpha  occ. eigenvalues --  -19.11064 -14.40362 -14.36208 -14.35970 -14.34400
 Alpha  occ. eigenvalues --  -10.31115  -1.05967  -0.99638  -0.91194  -0.87236
 Alpha  occ. eigenvalues --   -0.74523  -0.60606  -0.56014  -0.53097  -0.51565
 Alpha  occ. eigenvalues --   -0.48059  -0.47240  -0.41576  -0.40569  -0.29575
 Alpha  occ. eigenvalues --   -0.28204  -0.27063  -0.24794  -0.24588
 Alpha virt. eigenvalues --    0.03518   0.06187   0.09312   0.11478   0.12714
 Alpha virt. eigenvalues --    0.16010   0.17199   0.18943   0.20624   0.27667
 Alpha virt. eigenvalues --    0.35896   0.39987   0.55705   0.56237   0.58680

 Mulliken charges:
               1
     1  N   -0.625094
     2  C    0.692898
     3  O   -0.522144
     4  N   -0.285107
     5  N   -0.408733
     6  N   -0.422930
     7  H    0.282423
     8  H    0.251732
     9  H    0.259910
    10  H    0.262406
    11  H    0.257666
    12  H    0.256972
 Sum of Mulliken charges =  -0.00000

 Dipole moment (field-independent basis, Debye):
    X=              1.4699    Y=              3.0049    Z=             -1.2593  Tot=              3.5744
 Quadrupole moment (field-independent basis, Debye-Ang):
   XX=            -38.4327   YY=            -31.4481   ZZ=            -33.4101
   XY=              6.3569   XZ=             -0.0508   YZ=             -1.2302

  Exact polarizability:  45.453   1.515  50.647   1.180  -1.138  27.570
 Approx polarizability:  60.702  -1.849  76.371   3.166  -2.452  39.685

                      1                      2                      3
                      A                      A                      A
 Frequencies --    120.8848               142.2601               236.6115
 Red. masses --      4.4210                 1.2209                 2.7404
 Frc consts  --      0.0381                 0.0146                 0.0904
 IR Inten    --      4.7053                26.1813                22.2650

                      4                      5                      6
                      A                      A                      A
 Frequencies --    302.3212               334.6851               437.8427
 Red. masses --      2.6119                 1.2898                 1.3108
 Frc consts  --      0.1407                 0.0851                 0.1481
 IR Inten    --     51.0636                69.9260                47.3096

                      7                      8                      9
                      A                      A                      A
 Frequencies --    448.9258               545.3501               559.9258
 Red. masses --      2.3224                 2.8887                 1.4455
 Frc consts  --      0.2758                 0.5062                 0.2670
 IR Inten    --     18.5045                 9.1659               160.1656

                     10                     11                     12
                      A                      A                      A
 Frequencies --    617.7002               744.7056               767.7520
 Red. masses --      4.2603                 1.8836                 5.6007
 Frc consts  --      0.9577                 0.6155                 1.9451
 IR Inten    --      8.9677               114.6062                45.5485

                     13                     14                     15
                      A                      A                      A
 Frequencies --    796.4556               989.6565              1096.3787
 Red. masses --      3.2756                 1.5523                 2.2180
 Frc consts  --      1.2242                 0.8957                 1.5708
 IR Inten    --      8.2345               156.4380                17.1612

                     16                     17                     18
                      A                      A                      A
 Frequencies --   1138.6977              1298.5468              1315.1248
 Red. masses --      2.7551                 1.9676                 1.5489
 Frc consts  --      2.1048                 1.9548                 1.5784
 IR Inten    --     10.9154                 6.4226                 1.2123

                     19                     20                     21
                      A                      A                      A
 Frequencies --   1352.6513              1407.6947              1616.7608
 Red. masses --      1.1524                 4.4878                 1.2215
 Frc consts  --      1.2423                 5.2397                 1.8812
 IR Inten    --      5.5480               251.9346               129.2113

                     22                     23                     24
                      A                      A                      A
 Frequencies --   1679.5289              1716.0074              1796.7397
 Red. masses --      1.0797                 1.0741                 8.4910
 Frc consts  --      1.7944                 1.8635                16.1502
 IR Inten    --      4.3466                20.7118               294.0513

                     25                     26                     27
                      A                      A                      A
 Frequencies --   3452.6006              3469.9396              3533.9974
 Red. masses --      1.0490                 1.0442                 1.0927
 Frc consts  --      7.3674                 7.4075                 8.0407
 IR Inten    --      3.5177                 3.3153                 0.9431

                     28                     29                     30
                      A                      A                      A
 Frequencies --   3574.6060              3586.2665              3708.6881
 Red. masses --      1.0992                 1.0473                 1.1011
 Frc consts  --      8.2754                 7.9358                 8.9228
 IR Inten    --      0.9053                21.2300                28.8455

 - Thermochemistry -
 -------------------
 Temperature   298.150 Kelvin.  Pressure   1.00000 Atm.
 Atom     1 has atomic number  7 and mass  14.00307

 Molecular mass:    90.05416 amu.
 Principal axes and moments of inertia in atomic units:
                           1         2         3
     Eigenvalues --   353.74111 483.72682 811.07413
           X            0.99138   0.13099  -0.00216
           Y           -0.13100   0.99137  -0.00435
           Z            0.00157   0.00459   0.99999
 This molecule is an asymmetric top.
 Rotational symmetry number  1.
 Rotational temperatures (Kelvin)      0.24485     0.17906     0.10679
 Rotational constants (GHZ):           5.10187     3.73091     2.22512
 Zero-point vibrational energy     255936.9 (Joules/Mol)
                                   61.17038 (Kcal/Mol)
 Warning -- explicit consideration of  10 degrees of freedom as
           vibrations may cause significant error
 Vibrational temperatures:    173.93   204.68   340.43   434.97   481.54
          (Kelvin)            629.96   645.90   784.64   805.61   888.73
                             1071.46  1104.62  1145.92  1423.89  1577.44
                             1638.33  1868.32  1892.17  1946.16  2025.36
                             2326.16  2416.46  2468.95  2585.10  4967.52
                             4992.46  5084.63  5143.05  5159.83  5335.97

 Zero-point correction=                           0.097481 (Hartree/Particle)
 Thermal correction to Energy=                    0.104428
 Thermal correction to Enthalpy=                  0.105373
 Thermal correction to Gibbs Free Energy=         0.067207
 Sum of electronic and zero-point Energies=           -335.810534
 Sum of electronic and thermal Energies=              -335.803586
 Sum of electronic and thermal Enthalpies=            -335.802642
 Sum of electronic and thermal Free Energies=         -335.840808

                     E (Thermal)             CV                S
                      KCal/Mol        Cal/Mol-Kelvin    Cal/Mol-Kelvin
 Total                   65.530             24.572             80.327
 Electronic               0.000              0.000              0.000
 Translational            0.889              2.981             39.406
 Rotational               0.889              2.981             26.431
 Vibrational             63.752             18.611             14.489
 Vibration     1          0.609              1.932              3.086
 Vibration     2          0.616              1.911              2.773
 Vibration     3          0.655              1.785              1.828
 Vibration     4          0.694              1.669              1.404
 Vibration     5          0.716              1.606              1.237
 Vibration     6          0.798              1.388              0.833
 Vibration     7          0.808              1.363              0.799
 Vibration     8          0.901              1.150              0.554
 Vibration     9          0.916              1.118              0.524
 Vibration    10          0.977              0.994              0.420

 Normal termination of Gaussian 09 at Thu Sep  8 15:22:12 2022.
