 Gaussian 09, Revision E.01,
 Gaussian 09:  ES64L-G09RevE.01 30-Nov-2015

 --------------------------------
 #P OPT=calcfc Freq B3LYP/6-31G**
 --------------------------------

 --------
 Frag_365
 --------
 Symbolic Z-matrix:
 Charge =  0 Multiplicity = 1

 SCF Done:  E(RB3LYP) =  -196.543556755     A.U. after   13 cycles
 SCF Done:  E(RB3LYP) =  -196.546032462     A.U. after   13 cycles
 SCF Done:  E(RB3LYP) =  -196.547753920     A.U. after   13 cycles
 SCF Done:  E(RB3LYP) =  -196.548523065     A.U. after   11 cycles
 SCF Done:  E(RB3LYP) =  -196.547703605     A.U. after   11 cycles
 SCF Done:  E(RB3LYP) =  -196.548870186     A.U. after    8 cycles
 SCF Done:  E(RB3LYP) =  -196.548959592     A.U. after   10 cycles
 SCF Done:  E(RB3LYP) =  -196.548964705     A.U. after    8 cycles
 SCF Done:  E(RB3LYP) =  -196.548964856     A.U. after    7 cycles
 Optimization completed.
    -- Stationary point found.
 Normal termination of Gaussian 09 at Fri Sep 10 21:22:14 2021.

 ----------------------------------------------------------------------
 #P Geom=AllCheck Guess=TCheck SCRF=Check GenChk RB3LYP/6-31G(d,p) Freq
 ----------------------------------------------------------------------

 Structure from the checkpoint file:  "/public/home/users/caep010/.cache/gau_scr/Gau-60352.chk"
 --------
 Frag_365
 --------
 Charge =  0 Multiplicity = 1

                         Standard orientation:
 ---------------------------------------------------------------------
 Center     Atomic      Atomic             Coordinates (Angstroms)
 Number     Number       Type             X           Y           Z
 ---------------------------------------------------------------------
      1          6           0        1.988760   -0.054797   -0.240755
      2          6           0        0.897759   -0.632471    0.262815
      3          6           0       -0.475019   -0.018922    0.421491
      4          6           0       -0.559160    1.447261   -0.015807
      5          6           0       -1.525321   -0.878525   -0.310534
      6          1           0        2.927565   -0.595467   -0.315511
      7          1           0        1.994979    0.971856   -0.594271
      8          1           0        0.968655   -1.669051    0.597209
      9          1           0       -0.718178   -0.063647    1.495447
     10          1           0       -0.345888    1.553590   -1.085432
     11          1           0        0.151227    2.073077    0.533343
     12          1           0       -1.563892    1.843053    0.163073
     13          1           0       -2.536449   -0.498915   -0.129053
     14          1           0       -1.347292   -0.868650   -1.391453
     15          1           0       -1.492840   -1.921128    0.023386
 ---------------------------------------------------------------------

 SCF Done:  E(RB3LYP) =  -196.548964856     A.U. after    1 cycles

 The electronic state is 1-A.
 Alpha  occ. eigenvalues --  -10.19208 -10.18265 -10.17432 -10.17195 -10.17195
 Alpha  occ. eigenvalues --   -0.80810  -0.72904  -0.68141  -0.60929  -0.52714
 Alpha  occ. eigenvalues --   -0.47225  -0.44039  -0.43177  -0.39175  -0.37704
 Alpha  occ. eigenvalues --   -0.37362  -0.34104  -0.32929  -0.32185  -0.24976
 Alpha virt. eigenvalues --    0.02638   0.09537   0.12722   0.14124   0.14935
 Alpha virt. eigenvalues --    0.15366   0.17074   0.18133   0.19862   0.20126
 Alpha virt. eigenvalues --    0.21536   0.22895   0.25060   0.30477   0.37157

 Mulliken charges:
               1
     1  C   -0.248780
     2  C   -0.016171
     3  C   -0.083986
     4  C   -0.317474
     5  C   -0.309652
     6  H    0.091618
     7  H    0.092602
     8  H    0.076467
     9  H    0.098139
    10  H    0.105823
    11  H    0.105716
    12  H    0.097890
    13  H    0.099855
    14  H    0.108729
    15  H    0.099226
 Sum of Mulliken charges =  -0.00000

 Dipole moment (field-independent basis, Debye):
    X=             -0.3549    Y=             -0.0296    Z=              0.1285  Tot=              0.3786
 Quadrupole moment (field-independent basis, Debye-Ang):
   XX=            -32.8091   YY=            -32.4612   ZZ=            -33.8969
   XY=             -0.1544   XZ=             -0.6649   YZ=             -0.7214

  Exact polarizability:  65.425   2.292  52.959  -5.165  -3.572  41.399
 Approx polarizability:  87.982   7.069  71.241 -11.057  -7.331  60.918

                      1                      2                      3
                      A                      A                      A
 Frequencies --    111.8693               240.7144               267.6638
 Red. masses --      2.1783                 1.0301                 1.1587
 Frc consts  --      0.0161                 0.0352                 0.0489
 IR Inten    --      0.0294                 0.0307                 0.0665

                      4                      5                      6
                      A                      A                      A
 Frequencies --    288.1116               349.0822               379.8402
 Red. masses --      2.0272                 1.8885                 1.8949
 Frc consts  --      0.0991                 0.1356                 0.1611
 IR Inten    --      0.1409                 0.1761                 0.6542

                      7                      8                      9
                      A                      A                      A
 Frequencies --    537.4934               672.2894               785.7775
 Red. masses --      2.2288                 1.6868                 2.3981
 Frc consts  --      0.3794                 0.4492                 0.8724
 IR Inten    --      0.8710                 5.1066                 1.1731

                     10                     11                     12
                      A                      A                      A
 Frequencies --    928.5459               935.1444               938.8556
 Red. masses --      1.7462                 1.2566                 1.3416
 Frc consts  --      0.8871                 0.6474                 0.6967
 IR Inten    --      1.8388                 1.0953                33.5380

                     13                     14                     15
                      A                      A                      A
 Frequencies --    972.6561              1035.8085              1046.7882
 Red. masses --      1.4594                 1.3371                 1.1628
 Frc consts  --      0.8135                 0.8452                 0.7507
 IR Inten    --      0.1456                 3.4267                 8.5363

                     16                     17                     18
                      A                      A                      A
 Frequencies --   1118.9327              1159.5341              1212.1283
 Red. masses --      1.5376                 1.9889                 1.7614
 Frc consts  --      1.1342                 1.5755                 1.5248
 IR Inten    --      3.2119                 4.1315                 0.2860

                     19                     20                     21
                      A                      A                      A
 Frequencies --   1322.1639              1344.4641              1373.6807
 Red. masses --      1.2603                 1.3965                 1.4886
 Frc consts  --      1.2980                 1.4873                 1.6550
 IR Inten    --      2.3382                 1.2677                 4.1954

                     22                     23                     24
                      A                      A                      A
 Frequencies --   1413.1457              1428.3931              1464.0648
 Red. masses --      1.2743                 1.2459                 1.1824
 Frc consts  --      1.4993                 1.4978                 1.4933
 IR Inten    --      3.6461                 2.2377                 3.4101

                     25                     26                     27
                      A                      A                      A
 Frequencies --   1503.2931              1507.7362              1517.3011
 Red. masses --      1.0415                 1.0535                 1.0441
 Frc consts  --      1.3868                 1.4110                 1.4163
 IR Inten    --      1.3054                 0.8613                 5.9634

                     28                     29                     30
                      A                      A                      A
 Frequencies --   1527.8586              1725.5263              2989.5597
 Red. masses --      1.0626                 4.5447                 1.0823
 Frc consts  --      1.4614                 7.9725                 5.6994
 IR Inten    --      5.1151                10.8283                24.9900

                     31                     32                     33
                      A                      A                      A
 Frequencies --   3036.8172              3043.0069              3108.7618
 Red. masses --      1.0345                 1.0358                 1.1026
 Frc consts  --      5.6212                 5.6511                 6.2782
 IR Inten    --     32.4512                17.6243                 1.8368

                     34                     35                     36
                      A                      A                      A
 Frequencies --   3109.9474              3114.1375              3118.1096
 Red. masses --      1.1024                 1.1021                 1.1025
 Frc consts  --      6.2818                 6.2970                 6.3155
 IR Inten    --     25.0903                60.6641                34.6987

                     37                     38                     39
                      A                      A                      A
 Frequencies --   3127.9761              3161.0805              3239.9747
 Red. masses --      1.0848                 1.0646                 1.1155
 Frc consts  --      6.2537                 6.2676                 6.8990
 IR Inten    --     30.8710                 6.9864                18.7465

 - Thermochemistry -
 -------------------
 Temperature   298.150 Kelvin.  Pressure   1.00000 Atm.
 Atom     1 has atomic number  6 and mass  12.00000

 Molecular mass:    70.07825 amu.
 Principal axes and moments of inertia in atomic units:
                           1         2         3
     Eigenvalues --   248.56116 464.57141 632.12710
           X            0.99991   0.01307  -0.00209
           Y           -0.01309   0.99985  -0.01149
           Z            0.00194   0.01152   0.99993
 This molecule is an asymmetric top.
 Rotational symmetry number  1.
 Rotational temperatures (Kelvin)      0.34846     0.18644     0.13702
 Rotational constants (GHZ):           7.26075     3.88474     2.85503
 Zero-point vibrational energy     359826.1 (Joules/Mol)
                                   86.00051 (Kcal/Mol)
 Warning -- explicit consideration of   7 degrees of freedom as
           vibrations may cause significant error
 Vibrational temperatures:    160.95   346.33   385.11   414.53   502.25
          (Kelvin)            546.50   773.33   967.27  1130.56  1335.97
                             1345.46  1350.80  1399.43  1490.30  1506.09
                             1609.89  1668.31  1743.98  1902.30  1934.38
                             1976.42  2033.20  2055.14  2106.46  2162.90
                             2169.29  2183.06  2198.24  2482.64  4301.30
                             4369.30  4378.20  4472.81  4474.52  4480.54
                             4486.26  4500.45  4548.08  4661.60

 Zero-point correction=                           0.137051 (Hartree/Particle)
 Thermal correction to Energy=                    0.143461
 Thermal correction to Enthalpy=                  0.144406
 Thermal correction to Gibbs Free Energy=         0.107887
 Sum of electronic and zero-point Energies=           -196.411914
 Sum of electronic and thermal Energies=              -196.405504
 Sum of electronic and thermal Enthalpies=            -196.404559
 Sum of electronic and thermal Free Energies=         -196.441078

                     E (Thermal)             CV                S
                      KCal/Mol        Cal/Mol-Kelvin    Cal/Mol-Kelvin
 Total                   90.023             23.042             76.859
 Electronic               0.000              0.000              0.000
 Translational            0.889              2.981             38.658
 Rotational               0.889              2.981             25.793
 Vibrational             88.246             17.080             12.408
 Vibration     1          0.607              1.940              3.236
 Vibration     2          0.658              1.778              1.798
 Vibration     3          0.673              1.733              1.611
 Vibration     4          0.685              1.696              1.485
 Vibration     5          0.726              1.577              1.170
 Vibration     6          0.750              1.513              1.040
 Vibration     7          0.893              1.167              0.571

 Optimization completed.
    -- Stationary point found.
 Normal termination of Gaussian 09 at Fri Sep 10 21:22:25 2021.
