 Gaussian 09, Revision D.01,
 Gaussian 09:  ES64L-G09RevD.01 24-Apr-2013

 --------------------------------
 #P OPT=calcfc Freq B3LYP/6-31G**
 --------------------------------

 -------
 Frag_86
 -------
 Symbolic Z-matrix:
 Charge =  0 Multiplicity = 1

 SCF Done:  E(RB3LYP) =  -157.233280109     A.U. after   12 cycles
 SCF Done:  E(RB3LYP) =  -157.233428309     A.U. after   11 cycles
 SCF Done:  E(RB3LYP) =  -157.234142937     A.U. after   13 cycles
 SCF Done:  E(RB3LYP) =  -157.235374358     A.U. after   13 cycles
 SCF Done:  E(RB3LYP) =  -157.234789907     A.U. after   13 cycles
 SCF Done:  E(RB3LYP) =  -157.235940091     A.U. after   10 cycles
 SCF Done:  E(RB3LYP) =  -157.233194043     A.U. after   11 cycles
 SCF Done:  E(RB3LYP) =  -157.235952423     A.U. after    7 cycles
 SCF Done:  E(RB3LYP) =  -157.236091846     A.U. after    9 cycles
 SCF Done:  E(RB3LYP) =  -157.236254967     A.U. after   10 cycles
 SCF Done:  E(RB3LYP) =  -157.236339511     A.U. after   10 cycles
 SCF Done:  E(RB3LYP) =  -157.236382208     A.U. after    9 cycles
 SCF Done:  E(RB3LYP) =  -157.236398798     A.U. after    9 cycles
 SCF Done:  E(RB3LYP) =  -157.236399574     A.U. after    7 cycles
 SCF Done:  E(RB3LYP) =  -157.236399601     A.U. after    6 cycles
 Optimization completed.
    -- Stationary point found.
 Normal termination of Gaussian 09 at Fri Jul 23 10:24:03 2021.

 ----------------------------------------------------------------------
 #P Geom=AllCheck Guess=TCheck SCRF=Check GenChk RB3LYP/6-31G(d,p) Freq
 ----------------------------------------------------------------------

 Structure from the checkpoint file:  "/vol2/users/liuj201281/HOFBenchmark/IsodesmicSplit/Sample60/Ring26/Running/Gau-519935.chk"
 -------
 Frag_86
 -------
 Charge =  0 Multiplicity = 1

                         Standard orientation:
 ---------------------------------------------------------------------
 Center     Atomic      Atomic             Coordinates (Angstroms)
 Number     Number       Type             X           Y           Z
 ---------------------------------------------------------------------
      1          6           0       -1.591396   -0.521941   -0.000006
      2          6           0       -0.668995    0.664283    0.000012
      3          6           0        0.669001    0.664291    0.000001
      4          6           0        1.591403   -0.521936    0.000001
      5          1           0       -2.248193   -0.505970    0.879144
      6          1           0       -1.058739   -1.475705   -0.000253
      7          1           0       -2.248430   -0.505642   -0.878955
      8          1           0       -1.168400    1.633247    0.000026
      9          1           0        1.168396    1.633259   -0.000050
     10          1           0        2.248387   -0.505746    0.878986
     11          1           0        2.248211   -0.505949   -0.879129
     12          1           0        1.058697   -1.475681    0.000181
 ---------------------------------------------------------------------

 SCF Done:  E(RB3LYP) =  -157.236399601     A.U. after    1 cycles

 The electronic state is 1-A.
 Alpha  occ. eigenvalues --  -10.17842 -10.17761 -10.17718 -10.17715  -0.78873
 Alpha  occ. eigenvalues --   -0.71746  -0.64953  -0.52015  -0.47104  -0.41106
 Alpha  occ. eigenvalues --   -0.40736  -0.39605  -0.37979  -0.35700  -0.32644
 Alpha  occ. eigenvalues --   -0.23477
 Alpha virt. eigenvalues --    0.03610   0.10292   0.12028   0.14338   0.16862
 Alpha virt. eigenvalues --    0.17625   0.18998   0.19076   0.22380   0.22484
 Alpha virt. eigenvalues --    0.31631   0.46107   0.49166   0.50693   0.51865

 Mulliken charges:
               1
     1  C   -0.351752
     2  C   -0.060834
     3  C   -0.060837
     4  C   -0.351752
     5  H    0.114436
     6  H    0.107022
     7  H    0.114436
     8  H    0.076695
     9  H    0.076695
    10  H    0.114436
    11  H    0.114437
    12  H    0.107019
 Sum of Mulliken charges =   0.00000

 Dipole moment (field-independent basis, Debye):
    X=              0.0000    Y=             -0.2001    Z=              0.0000  Tot=              0.2001
 Quadrupole moment (field-independent basis, Debye-Ang):
   XX=            -24.7802   YY=            -25.7645   ZZ=            -27.5551
   XY=             -0.0001   XZ=             -0.0001   YZ=             -0.0001

  Exact polarizability:  60.280   0.000  40.731  -0.001   0.000  29.562
 Approx polarizability:  84.639   0.000  53.541  -0.001   0.000  40.495

                      1                      2                      3
                      A                      A                      A
 Frequencies --    130.5460               146.6795               288.0162
 Red. masses --      1.0587                 1.0354                 2.6020
 Frc consts  --      0.0106                 0.0131                 0.1272
 IR Inten    --      0.9219                 0.0000                 0.0011

                      4                      5                      6
                      A                      A                      A
 Frequencies --    395.1691               569.8127               699.3119
 Red. masses --      2.3114                 2.2046                 1.0989
 Frc consts  --      0.2127                 0.4217                 0.3166
 IR Inten    --      0.0000                 6.9470                30.9271

                      7                      8                      9
                      A                      A                      A
 Frequencies --    874.2028               985.7069              1010.1978
 Red. masses --      2.4930                 1.9233                 1.1138
 Frc consts  --      1.1225                 1.1010                 0.6697
 IR Inten    --      0.3931                14.1080                 0.0000

                     10                     11                     12
                      A                      A                      A
 Frequencies --   1028.6300              1062.0494              1071.1631
 Red. masses --      1.4424                 1.6072                 1.4350
 Frc consts  --      0.8992                 1.0681                 0.9701
 IR Inten    --      0.8927                 0.0000                 1.0367

                     13                     14                     15
                      A                      A                      A
 Frequencies --   1161.3548              1298.8996              1399.1507
 Red. masses --      2.0485                 1.1352                 1.2092
 Frc consts  --      1.6278                 1.1284                 1.3947
 IR Inten    --      0.9103                 0.0245                 4.2845

                     16                     17                     18
                      A                      A                      A
 Frequencies --   1431.6719              1449.6873              1494.7614
 Red. masses --      1.2226                 1.4434                 1.0441
 Frc consts  --      1.4764                 1.7873                 1.3745
 IR Inten    --      2.5430                 7.2466                 0.0000

                     19                     20                     21
                      A                      A                      A
 Frequencies --   1499.1123              1502.0091              1509.6256
 Red. masses --      1.0433                 1.0634                 1.0722
 Frc consts  --      1.3814                 1.4135                 1.4397
 IR Inten    --      9.3640                 1.9727                 4.5505

                     22                     23                     24
                      A                      A                      A
 Frequencies --   1751.1015              3028.3955              3031.1969
 Red. masses --      5.9738                 1.0391                 1.0405
 Frc consts  --     10.7926                 5.6148                 5.6327
 IR Inten    --      3.2532                47.3985                12.5952

                     25                     26                     27
                      A                      A                      A
 Frequencies --   3074.7633              3075.3730              3119.5810
 Red. masses --      1.0998                 1.0999                 1.0932
 Frc consts  --      6.1260                 6.1291                 6.2684
 IR Inten    --      0.1403                53.0287                 4.2795

                     28                     29                     30
                      A                      A                      A
 Frequencies --   3133.9303              3136.7582              3157.7366
 Red. masses --      1.0950                 1.0891                 1.0953
 Frc consts  --      6.3364                 6.3134                 6.4346
 IR Inten    --      9.3357                20.4263                64.4021

 - Thermochemistry -
 -------------------
 Temperature   298.150 Kelvin.  Pressure   1.00000 Atm.
 Atom     1 has atomic number  6 and mass  12.00000

 Molecular mass:    56.06260 amu.
 Principal axes and moments of inertia in atomic units:
                           1         2         3
     Eigenvalues --   110.66829 357.20104 445.62069
           X            1.00000   0.00000   0.00000
           Y            0.00000   1.00000   0.00000
           Z            0.00000   0.00000   1.00000
 This molecule is an asymmetric top.
 Rotational symmetry number  1.
 Rotational temperatures (Kelvin)      0.78264     0.24248     0.19437
 Rotational constants (GHZ):          16.30766     5.05245     4.04995
 Zero-point vibrational energy     284212.3 (Joules/Mol)
                                   67.92838 (Kcal/Mol)
 Warning -- explicit consideration of   5 degrees of freedom as
           vibrations may cause significant error
 Vibrational temperatures:    187.83   211.04   414.39   568.56   819.83
          (Kelvin)           1006.15  1257.78  1418.21  1453.45  1479.97
                             1528.05  1541.16  1670.93  1868.82  2013.06
                             2059.85  2085.77  2150.63  2156.89  2161.05
                             2172.01  2519.44  4357.18  4361.21  4423.89
                             4424.77  4488.38  4509.02  4513.09  4543.27

 Zero-point correction=                           0.108251 (Hartree/Particle)
 Thermal correction to Energy=                    0.113746
 Thermal correction to Enthalpy=                  0.114690
 Thermal correction to Gibbs Free Energy=         0.080457
 Sum of electronic and zero-point Energies=           -157.128149
 Sum of electronic and thermal Energies=              -157.122654
 Sum of electronic and thermal Enthalpies=            -157.121710
 Sum of electronic and thermal Free Energies=         -157.155942

                     E (Thermal)             CV                S
                      KCal/Mol        Cal/Mol-Kelvin    Cal/Mol-Kelvin
 Total                   71.377             18.156             72.049
 Electronic               0.000              0.000              0.000
 Translational            0.889              2.981             37.993
 Rotational               0.889              2.981             24.380
 Vibrational             69.599             12.195              9.675
 Vibration     1          0.612              1.923              2.938
 Vibration     2          0.617              1.906              2.715
 Vibration     3          0.685              1.696              1.486
 Vibration     4          0.762              1.480              0.981
 Vibration     5          0.926              1.097              0.505

 Optimization completed.
    -- Stationary point found.
 Normal termination of Gaussian 09 at Fri Jul 23 10:24:15 2021.
