 Gaussian 09, Revision E.01,
 Gaussian 09:  ES64L-G09RevE.01 30-Nov-2015

 ----------------------------
 #P OPT Freq B3LYP/6-31G(d,p)
 ----------------------------

 --------
 Frag_437
 --------
 Symbolic Z-matrix:
 Charge =  0 Multiplicity = 1

 SCF Done:  E(RB3LYP) =  -311.083390502     A.U. after   14 cycles
 SCF Done:  E(RB3LYP) =  -311.083439287     A.U. after    9 cycles
 SCF Done:  E(RB3LYP) =  -311.083442440     A.U. after    8 cycles
 SCF Done:  E(RB3LYP) =  -311.083443335     A.U. after    7 cycles
 Optimization completed.
    -- Stationary point found.
 Normal termination of Gaussian 09 at Thu Sep  8 15:01:08 2022.

 ----------------------------------------------------------------------
 #P Geom=AllCheck Guess=TCheck SCRF=Check GenChk RB3LYP/6-31G(d,p) Freq
 ----------------------------------------------------------------------

 Structure from the checkpoint file:  "B3LYP6-31Gdp.Frag_437.chk"
 --------
 Frag_437
 --------
 Charge =  0 Multiplicity = 1

                         Standard orientation:
 ---------------------------------------------------------------------
 Center     Atomic      Atomic             Coordinates (Angstroms)
 Number     Number       Type             X           Y           Z
 ---------------------------------------------------------------------
      1          6           0       -1.522353    1.359742   -0.000042
      2          6           0       -0.936063    0.159658   -0.000008
      3          6           0       -1.753249   -1.111765    0.000037
      4          6           0        0.587527    0.017314   -0.000009
      5          6           0        1.070329   -0.713802    1.268390
      6          6           0        1.070313   -0.714201   -1.268183
      7          8           0        1.132748    1.342802   -0.000221
      8          1           0       -0.943444    2.274353   -0.000088
      9          1           0       -2.605356    1.448551   -0.000030
     10          1           0       -2.821054   -0.879589    0.000146
     11          1           0       -1.548529   -1.733534   -0.879610
     12          1           0       -1.548362   -1.733595    0.879602
     13          1           0        0.692962   -1.738613    1.326452
     14          1           0        0.746681   -0.168696    2.159022
     15          1           0        2.165883   -0.768685    1.275412
     16          1           0        0.746609   -0.169409   -2.158988
     17          1           0        2.165869   -0.769032   -1.275227
     18          1           0        0.692991   -1.739048   -1.325884
     19          1           0        2.094741    1.253210   -0.000150
 ---------------------------------------------------------------------

 SCF Done:  E(RB3LYP) =  -311.083443335     A.U. after    1 cycles

 The electronic state is 1-A.
 Alpha  occ. eigenvalues --  -19.13791 -10.24389 -10.18459 -10.17862 -10.17680
 Alpha  occ. eigenvalues --  -10.17679 -10.15996  -1.01514  -0.80419  -0.74389
 Alpha  occ. eigenvalues --   -0.69038  -0.67805  -0.60591  -0.51598  -0.48159
 Alpha  occ. eigenvalues --   -0.46575  -0.43438  -0.41586  -0.41449  -0.40668
 Alpha  occ. eigenvalues --   -0.38855  -0.37926  -0.36718  -0.35314  -0.32910
 Alpha  occ. eigenvalues --   -0.31234  -0.26612  -0.23704
 Alpha virt. eigenvalues --    0.03245   0.06644   0.11255   0.12779   0.13569
 Alpha virt. eigenvalues --    0.14066   0.14882   0.17566   0.18719   0.19064
 Alpha virt. eigenvalues --    0.19758   0.20000   0.22455   0.23129   0.24729

 Mulliken charges:
               1
     1  C   -0.275729
     2  C    0.146176
     3  C   -0.371546
     4  C    0.239587
     5  C   -0.314292
     6  C   -0.314293
     7  O   -0.558553
     8  H    0.119199
     9  H    0.078833
    10  H    0.110124
    11  H    0.112345
    12  H    0.112337
    13  H    0.101222
    14  H    0.121051
    15  H    0.086450
    16  H    0.121050
    17  H    0.086450
    18  H    0.101223
    19  H    0.298365
 Sum of Mulliken charges =  -0.00000

 Dipole moment (field-independent basis, Debye):
    X=              1.0353    Y=             -1.4916    Z=              0.0003  Tot=              1.8157
 Quadrupole moment (field-independent basis, Debye-Ang):
   XX=            -39.7428   YY=            -46.1416   ZZ=            -45.7913
   XY=              0.8355   XZ=              0.0001   YZ=              0.0005

  Exact polarizability:  75.004  -5.416  73.929   0.000  -0.000  53.210
 Approx polarizability:  98.787 -10.125 112.623   0.000  -0.002  71.788

                      1                      2                      3
                      A                      A                      A
 Frequencies --     28.6321               178.4914               219.1162
 Red. masses --      2.4714                 1.1939                 1.4073
 Frc consts  --      0.0012                 0.0224                 0.0398
 IR Inten    --      0.8162                 1.2472                 0.1077

                      4                      5                      6
                      A                      A                      A
 Frequencies --    277.1007               277.9565               292.6493
 Red. masses --      1.0801                 1.0650                 2.8120
 Frc consts  --      0.0489                 0.0485                 0.1419
 IR Inten    --      0.3585               105.1861                 1.4290

                      7                      8                      9
                      A                      A                      A
 Frequencies --    294.1111               343.4575               401.2590
 Red. masses --      1.3910                 2.2519                 3.0703
 Frc consts  --      0.0709                 0.1565                 0.2913
 IR Inten    --      7.7421                 0.1910                 3.2830

                     10                     11                     12
                      A                      A                      A
 Frequencies --    423.8760               469.5430               513.2307
 Red. masses --      3.5250                 2.4692                 2.8291
 Frc consts  --      0.3731                 0.3207                 0.4391
 IR Inten    --      4.7758                 0.0731                10.3884

                     13                     14                     15
                      A                      A                      A
 Frequencies --    571.7280               689.4839               752.7498
 Red. masses --      2.4738                 3.2111                 1.1077
 Frc consts  --      0.4764                 0.8994                 0.3698
 IR Inten    --     10.9824                 0.0743                 0.4156

                     16                     17                     18
                      A                      A                      A
 Frequencies --    879.3600               919.8736               943.1180
 Red. masses --      2.5599                 1.5183                 1.3378
 Frc consts  --      1.1663                 0.7569                 0.7011
 IR Inten    --     16.5575                 0.6121                35.0714

                     19                     20                     21
                      A                      A                      A
 Frequencies --    960.3683               975.7192              1021.8289
 Red. masses --      1.7992                 2.1207                 1.2766
 Frc consts  --      0.9777                 1.1895                 0.7853
 IR Inten    --      2.8981                 9.8936                 0.0144

                     22                     23                     24
                      A                      A                      A
 Frequencies --   1029.5179              1082.2285              1138.2305
 Red. masses --      1.3223                 1.4851                 1.4880
 Frc consts  --      0.8257                 1.0248                 1.1358
 IR Inten    --      6.1550                 0.7241                77.2006

                     25                     26                     27
                      A                      A                      A
 Frequencies --   1198.3032              1212.8787              1281.2141
 Red. masses --      3.4556                 2.6632                 2.1084
 Frc consts  --      2.9236                 2.3083                 2.0391
 IR Inten    --     25.2087                21.9776                34.8855

                     28                     29                     30
                      A                      A                      A
 Frequencies --   1374.0261              1405.2890              1425.2142
 Red. masses --      1.8157                 1.2483                 1.2663
 Frc consts  --      2.0197                 1.4524                 1.5155
 IR Inten    --     22.8402                 6.7050                 4.6777

                     31                     32                     33
                      A                      A                      A
 Frequencies --   1431.4994              1455.8109              1490.5530
 Red. masses --      1.2451                 1.2119                 1.0462
 Frc consts  --      1.5033                 1.5133                 1.3695
 IR Inten    --      5.4892                 7.5635                 5.2300

                     34                     35                     36
                      A                      A                      A
 Frequencies --   1494.5916              1507.4503              1512.8068
 Red. masses --      1.0478                 1.0511                 1.0486
 Frc consts  --      1.3790                 1.4073                 1.4140
 IR Inten    --      0.2312                10.5597                 1.7444

                     37                     38                     39
                      A                      A                      A
 Frequencies --   1517.5103              1526.1176              1727.1598
 Red. masses --      1.0522                 1.0908                 5.3629
 Frc consts  --      1.4276                 1.4968                 9.4257
 IR Inten    --      3.7991                 8.1337                 7.3755

                     40                     41                     42
                      A                      A                      A
 Frequencies --   3036.1788              3036.5608              3042.8316
 Red. masses --      1.0399                 1.0382                 1.0400
 Frc consts  --      5.6480                 5.6400                 5.6736
 IR Inten    --     11.1039                19.6134                40.5145

                     43                     44                     45
                      A                      A                      A
 Frequencies --   3086.6083              3107.3815              3112.9298
 Red. masses --      1.0999                 1.0960                 1.0959
 Frc consts  --      6.1741                 6.2352                 6.2572
 IR Inten    --     23.1705                10.9421                58.4439

                     46                     47                     48
                      A                      A                      A
 Frequencies --   3127.6623              3137.8471              3140.5304
 Red. masses --      1.1000                 1.1035                 1.1031
 Frc consts  --      6.3402                 6.4014                 6.4105
 IR Inten    --     13.6603                10.2604                33.2639

                     49                     50                     51
                      A                      A                      A
 Frequencies --   3162.5533              3267.9462              3813.9647
 Red. masses --      1.0639                 1.1117                 1.0662
 Frc consts  --      6.2694                 6.9950                 9.1379
 IR Inten    --     16.8577                 4.9554                 8.5587

 - Thermochemistry -
 -------------------
 Temperature   298.150 Kelvin.  Pressure   1.00000 Atm.
 Atom     1 has atomic number  6 and mass  12.00000

 Molecular mass:   100.08882 amu.
 Principal axes and moments of inertia in atomic units:
                           1         2         3
     Eigenvalues --   562.90283 786.87566 947.07945
           X            0.99975  -0.02251   0.00000
           Y            0.02251   0.99975   0.00002
           Z           -0.00001  -0.00002   1.00000
 This molecule is an asymmetric top.
 Rotational symmetry number  1.
 Warning -- assumption of classical behavior for rotation
           may cause significant error
 Rotational temperatures (Kelvin)      0.15387     0.11007     0.09145
 Rotational constants (GHZ):           3.20613     2.29355     1.90559
 Zero-point vibrational energy     444514.7 (Joules/Mol)
                                  106.24156 (Kcal/Mol)
 Warning -- explicit consideration of  13 degrees of freedom as
           vibrations may cause significant error
 Vibrational temperatures:     41.20   256.81   315.26   398.69   399.92
          (Kelvin)            421.06   423.16   494.16   577.32   609.86
                              675.57   738.42   822.59   992.01  1083.04
                             1265.20  1323.49  1356.93  1381.75  1403.84
                             1470.18  1481.24  1557.08  1637.66  1724.09
                             1745.06  1843.38  1976.91  2021.89  2050.56
                             2059.61  2094.58  2144.57  2150.38  2168.88
                             2176.59  2183.36  2195.74  2484.99  4368.38
                             4368.93  4377.95  4440.94  4470.82  4478.81
                             4500.00  4514.66  4518.52  4550.20  4701.84
                             5487.44

 Zero-point correction=                           0.169307 (Hartree/Particle)
 Thermal correction to Energy=                    0.178176
 Thermal correction to Enthalpy=                  0.179120
 Thermal correction to Gibbs Free Energy=         0.136299
 Sum of electronic and zero-point Energies=           -310.914137
 Sum of electronic and thermal Energies=              -310.905267
 Sum of electronic and thermal Enthalpies=            -310.904323
 Sum of electronic and thermal Free Energies=         -310.947144

                     E (Thermal)             CV                S
                      KCal/Mol        Cal/Mol-Kelvin    Cal/Mol-Kelvin
 Total                  111.807             33.163             90.124
 Electronic               0.000              0.000              0.000
 Translational            0.889              2.981             39.721
 Rotational               0.889              2.981             27.530
 Vibrational            110.030             27.202             22.873
 Vibration     1          0.593              1.984              5.922
 Vibration     2          0.629              1.869              2.344
 Vibration     3          0.647              1.812              1.966
 Vibration     4          0.678              1.716              1.552
 Vibration     5          0.679              1.714              1.546
 Vibration     6          0.688              1.687              1.459
 Vibration     7          0.689              1.685              1.450
 Vibration     8          0.722              1.589              1.196
 Vibration     9          0.767              1.467              0.958
 Vibration    10          0.786              1.418              0.879
 Vibration    11          0.827              1.318              0.739
 Vibration    12          0.868              1.221              0.626
 Vibration    13          0.928              1.092              0.501

 Optimization completed.
    -- Stationary point found.
 Normal termination of Gaussian 09 at Thu Sep  8 15:01:27 2022.
