 Gaussian 09, Revision E.01,
 Gaussian 09:  ES64L-G09RevE.01 30-Nov-2015

 ----------------------------
 #P OPT Freq B3LYP/6-31G(d,p)
 ----------------------------

 --------
 Frag_734
 --------
 Symbolic Z-matrix:
 Charge =  0 Multiplicity = 1

 SCF Done:  E(RB3LYP) =  -263.345094110     A.U. after   15 cycles
 SCF Done:  E(RB3LYP) =  -263.345200373     A.U. after    9 cycles
 SCF Done:  E(RB3LYP) =  -263.345205707     A.U. after    9 cycles
 SCF Done:  E(RB3LYP) =  -263.345205601     A.U. after    9 cycles
 SCF Done:  E(RB3LYP) =  -263.345206246     A.U. after    8 cycles
 Optimization completed.
    -- Stationary point found.
 Normal termination of Gaussian 09 at Thu Sep  8 15:07:29 2022.

 ----------------------------------------------------------------------
 #P Geom=AllCheck Guess=TCheck SCRF=Check GenChk RB3LYP/6-31G(d,p) Freq
 ----------------------------------------------------------------------

 Structure from the checkpoint file:  "B3LYP6-31Gdp.Frag_734.chk"
 --------
 Frag_734
 --------
 Charge =  0 Multiplicity = 1

                         Standard orientation:
 ---------------------------------------------------------------------
 Center     Atomic      Atomic             Coordinates (Angstroms)
 Number     Number       Type             X           Y           Z
 ---------------------------------------------------------------------
      1          7           0       -1.974042   -0.111481    0.000010
      2          6           0       -0.835488   -0.668352    0.000032
      3          6           0        0.454442    0.133053   -0.000146
      4          7           0        1.594348   -0.608222    0.000010
      5          8           0        0.433804    1.356241    0.000052
      6          1           0       -1.818485    0.908761   -0.000077
      7          1           0       -0.772676   -1.762085    0.000063
      8          1           0        2.483346   -0.131517    0.000095
      9          1           0        1.581520   -1.615369    0.000049
 ---------------------------------------------------------------------

 SCF Done:  E(RB3LYP) =  -263.345206246     A.U. after    1 cycles

 The electronic state is 1-A.
 Alpha  occ. eigenvalues --  -19.13102 -14.37975 -14.33923 -10.30546 -10.24545
 Alpha  occ. eigenvalues --   -1.04940  -0.92523  -0.91323  -0.68025  -0.59012
 Alpha  occ. eigenvalues --   -0.56014  -0.51119  -0.45109  -0.43081  -0.41715
 Alpha  occ. eigenvalues --   -0.33013  -0.29268  -0.28649  -0.26525
 Alpha virt. eigenvalues --   -0.05453   0.05866   0.08127   0.10821   0.13476
 Alpha virt. eigenvalues --    0.15260   0.26089   0.28516   0.35550   0.38463
 Alpha virt. eigenvalues --    0.52028   0.53940   0.58969   0.61538   0.62026

 Mulliken charges:
               1
     1  N   -0.442332
     2  C    0.083685
     3  C    0.552018
     4  N   -0.609617
     5  O   -0.504695
     6  H    0.258832
     7  H    0.096302
     8  H    0.287641
     9  H    0.278167
 Sum of Mulliken charges =  -0.00000

 Dipole moment (field-independent basis, Debye):
    X=              3.1243    Y=             -2.8148    Z=             -0.0003  Tot=              4.2052
 Quadrupole moment (field-independent basis, Debye-Ang):
   XX=            -28.4784   YY=            -28.1978   ZZ=            -29.5565
   XY=             -4.9193   XZ=              0.0007   YZ=             -0.0004

  Exact polarizability:  47.957  -5.966  40.819   0.001  -0.000  16.296
 Approx polarizability:  71.204 -14.021  68.267   0.002   0.001  23.478

                      1                      2                      3
                      A                      A                      A
 Frequencies --    145.7859               225.6532               289.3483
 Red. masses --      2.2546                 1.3114                 4.4661
 Frc consts  --      0.0282                 0.0393                 0.2203
 IR Inten    --     10.0486               229.4133                13.4927

                      4                      5                      6
                      A                      A                      A
 Frequencies --    457.7139               502.5893               662.8812
 Red. masses --      3.3445                 1.3465                 1.6395
 Frc consts  --      0.4128                 0.2004                 0.4245
 IR Inten    --      8.5429                 0.4636                41.4358

                      7                      8                      9
                      A                      A                      A
 Frequencies --    664.2153               835.7885               888.4855
 Red. masses --      4.0732                 2.8898                 2.9086
 Frc consts  --      1.0588                 1.1894                 1.3528
 IR Inten    --     12.6931                18.5197                 0.3059

                     10                     11                     12
                      A                      A                      A
 Frequencies --   1090.4785              1166.1939              1246.2399
 Red. masses --      1.9286                 1.0691                 1.1759
 Frc consts  --      1.3512                 0.8567                 1.0760
 IR Inten    --      1.6347                60.5761                47.5053

                     13                     14                     15
                      A                      A                      A
 Frequencies --   1339.4713              1453.0979              1628.0842
 Red. masses --      2.6343                 1.4790                 1.2699
 Frc consts  --      2.7847                 1.8400                 1.9832
 IR Inten    --    210.6505                 0.7290               104.7293

                     16                     17                     18
                      A                      A                      A
 Frequencies --   1729.8157              1805.2592              3091.4127
 Red. masses --      9.5976                 9.2344                 1.0899
 Frc consts  --     16.9205                17.7312                 6.1371
 IR Inten    --     37.0407               216.9830                37.1168

                     19                     20                     21
                      A                      A                      A
 Frequencies --   3367.2760              3604.7404              3741.8332
 Red. masses --      1.0716                 1.0452                 1.1054
 Frc consts  --      7.1587                 8.0016                 9.1190
 IR Inten    --      3.6992                49.4389                45.0008

 - Thermochemistry -
 -------------------
 Temperature   298.150 Kelvin.  Pressure   1.00000 Atm.
 Atom     1 has atomic number  7 and mass  14.00307

 Molecular mass:    72.03236 amu.
 Principal axes and moments of inertia in atomic units:
                           1         2         3
     Eigenvalues --   166.83690 417.15084 583.98773
           X            0.99896  -0.04562   0.00000
           Y            0.04562   0.99896  -0.00001
           Z           -0.00000   0.00001   1.00000
 This molecule is an asymmetric top.
 Rotational symmetry number  1.
 Rotational temperatures (Kelvin)      0.51915     0.20763     0.14831
 Rotational constants (GHZ):          10.81740     4.32635     3.09038
 Zero-point vibrational energy     179059.2 (Joules/Mol)
                                   42.79618 (Kcal/Mol)
 Warning -- explicit consideration of   5 degrees of freedom as
           vibrations may cause significant error
 Vibrational temperatures:    209.75   324.66   416.31   658.55   723.11
          (Kelvin)            953.74   955.66  1202.51  1278.33  1568.95
                             1677.89  1793.06  1927.20  2090.68  2342.45
                             2488.82  2597.36  4447.85  4844.75  5186.41
                             5383.66

 Zero-point correction=                           0.068200 (Hartree/Particle)
 Thermal correction to Energy=                    0.073580
 Thermal correction to Enthalpy=                  0.074524
 Thermal correction to Gibbs Free Energy=         0.039971
 Sum of electronic and zero-point Energies=           -263.277006
 Sum of electronic and thermal Energies=              -263.271626
 Sum of electronic and thermal Enthalpies=            -263.270682
 Sum of electronic and thermal Free Energies=         -263.305235

                     E (Thermal)             CV                S
                      KCal/Mol        Cal/Mol-Kelvin    Cal/Mol-Kelvin
 Total                   46.172             17.879             72.723
 Electronic               0.000              0.000              0.000
 Translational            0.889              2.981             38.740
 Rotational               0.889              2.981             25.211
 Vibrational             44.395             11.918              8.771
 Vibration     1          0.617              1.907              2.727
 Vibration     2          0.650              1.802              1.913
 Vibration     3          0.686              1.694              1.478
 Vibration     4          0.816              1.344              0.773
 Vibration     5          0.858              1.244              0.652

 Optimization completed.
    -- Stationary point found.
 Normal termination of Gaussian 09 at Thu Sep  8 15:07:37 2022.
