 Gaussian 09, Revision E.01,
 Gaussian 09:  ES64L-G09RevE.01 30-Nov-2015

 ----------------------------
 #P OPT Freq B3LYP/6-31G(d,p)
 ----------------------------

 ---------
 Frag_1098
 ---------
 Symbolic Z-matrix:
 Charge =  0 Multiplicity = 1

 SCF Done:  E(RB3LYP) =  -301.145915006     A.U. after   12 cycles
 SCF Done:  E(RB3LYP) =  -301.145953211     A.U. after    9 cycles
 SCF Done:  E(RB3LYP) =  -301.145960788     A.U. after    9 cycles
 SCF Done:  E(RB3LYP) =  -301.145964466     A.U. after    7 cycles
 SCF Done:  E(RB3LYP) =  -301.145964792     A.U. after    7 cycles
 SCF Done:  E(RB3LYP) =  -301.145964737     A.U. after    6 cycles
 Optimization completed.
    -- Stationary point found.
 Normal termination of Gaussian 09 at Thu Sep  8 14:48:36 2022.

 ----------------------------------------------------------------------
 #P Geom=AllCheck Guess=TCheck SCRF=Check GenChk RB3LYP/6-31G(d,p) Freq
 ----------------------------------------------------------------------

 Structure from the checkpoint file:  "B3LYP6-31Gdp.Frag_1098.chk"
 ---------
 Frag_1098
 ---------
 Charge =  0 Multiplicity = 1

                         Standard orientation:
 ---------------------------------------------------------------------
 Center     Atomic      Atomic             Coordinates (Angstroms)
 Number     Number       Type             X           Y           Z
 ---------------------------------------------------------------------
      1          6           0        0.939901    1.241908    0.574649
      2          7           0        0.637824    0.202604   -0.412524
      3          6           0        1.658565   -0.840933   -0.425436
      4          7           0       -0.648466   -0.415028   -0.253429
      5          7           0       -1.693852    0.399905   -0.781992
      6          7           0       -0.915191   -0.751117    1.110538
      7          1           0        0.155903    2.008064    0.574026
      8          1           0        1.052919    0.852044    1.597292
      9          1           0        1.869710    1.737249    0.281557
     10          1           0        2.621623   -0.388581   -0.683644
     11          1           0        1.757591   -1.354342    0.544048
     12          1           0        1.397269   -1.577807   -1.187622
     13          1           0       -1.580480    0.369012   -1.793404
     14          1           0       -1.543564    1.380865   -0.514683
     15          1           0       -1.396020    0.025928    1.574554
     16          1           0       -1.587949   -1.512834    1.074445
 ---------------------------------------------------------------------

 SCF Done:  E(RB3LYP) =  -301.145964737     A.U. after    1 cycles

 The electronic state is 1-A.
 Alpha  occ. eigenvalues --  -14.39394 -14.34389 -14.34028 -14.33849 -10.20154
 Alpha  occ. eigenvalues --  -10.19131  -1.02573  -0.88407  -0.85377  -0.71086
 Alpha  occ. eigenvalues --   -0.69375  -0.59055  -0.51558  -0.50019  -0.49265
 Alpha  occ. eigenvalues --   -0.46126  -0.43491  -0.42324  -0.39217  -0.38255
 Alpha  occ. eigenvalues --   -0.36238  -0.27517  -0.25366  -0.23797  -0.21637
 Alpha virt. eigenvalues --    0.06771   0.10605   0.12296   0.13639   0.14429
 Alpha virt. eigenvalues --    0.15653   0.16427   0.17585   0.18309   0.18866
 Alpha virt. eigenvalues --    0.19929   0.21838   0.25230   0.26082   0.28030

 Mulliken charges:
               1
     1  C   -0.177933
     2  N   -0.281045
     3  C   -0.140900
     4  N   -0.143406
     5  N   -0.429064
     6  N   -0.426586
     7  H    0.087806
     8  H    0.110852
     9  H    0.115134
    10  H    0.097309
    11  H    0.101934
    12  H    0.114595
    13  H    0.260352
    14  H    0.220539
    15  H    0.226502
    16  H    0.263911
 Sum of Mulliken charges =  -0.00000

 Dipole moment (field-independent basis, Debye):
    X=             -0.0135    Y=              1.2759    Z=              0.3199  Tot=              1.3155
 Quadrupole moment (field-independent basis, Debye-Ang):
   XX=            -37.7000   YY=            -35.9707   ZZ=            -37.3241
   XY=             -0.3284   XZ=             -1.3688   YZ=              0.3871

  Exact polarizability:  57.097  -0.326  51.632  -0.296  -0.026  49.731
 Approx polarizability:  73.029  -0.060  71.234  -0.030  -0.254  70.447

                      1                      2                      3
                      A                      A                      A
 Frequencies --    120.4725               229.2563               239.1297
 Red. masses --      2.7139                 1.0838                 1.1275
 Frc consts  --      0.0232                 0.0336                 0.0380
 IR Inten    --      3.5017                44.4002                 2.1871

                      4                      5                      6
                      A                      A                      A
 Frequencies --    263.4145               293.8302               299.4968
 Red. masses --      1.0965                 1.5040                 2.0634
 Frc consts  --      0.0448                 0.0765                 0.1090
 IR Inten    --     10.3765                 6.0602                13.3356

                      7                      8                      9
                      A                      A                      A
 Frequencies --    322.8176               380.8999               488.4111
 Red. masses --      1.8184                 2.3517                 2.5244
 Frc consts  --      0.1116                 0.2010                 0.3548
 IR Inten    --     14.0366                 0.5278                28.7162

                     10                     11                     12
                      A                      A                      A
 Frequencies --    553.7953               582.9220               738.5148
 Red. masses --      3.0750                 3.2969                 4.7793
 Frc consts  --      0.5556                 0.6600                 1.5358
 IR Inten    --      2.8339                 1.4295                27.4883

                     13                     14                     15
                      A                      A                      A
 Frequencies --    855.9326               940.7225               951.9360
 Red. masses --      3.4930                 3.2334                 2.3212
 Frc consts  --      1.5077                 1.6859                 1.2393
 IR Inten    --     84.0465                25.4002                94.4076

                     16                     17                     18
                      A                      A                      A
 Frequencies --   1039.4437              1108.5746              1125.9327
 Red. masses --      1.5993                 1.2396                 1.7354
 Frc consts  --      1.0181                 0.8976                 1.2962
 IR Inten    --      9.0834                 2.7261                27.9766

                     19                     20                     21
                      A                      A                      A
 Frequencies --   1194.0546              1200.8164              1248.4779
 Red. masses --      1.5530                 2.0505                 2.5938
 Frc consts  --      1.3045                 1.7420                 2.3821
 IR Inten    --     42.5126                31.4062                 5.7490

                     22                     23                     24
                      A                      A                      A
 Frequencies --   1271.9195              1291.4555              1360.5354
 Red. masses --      2.1597                 1.2056                 1.3548
 Frc consts  --      2.0585                 1.1847                 1.4775
 IR Inten    --      6.3601                10.2473                 4.6487

                     25                     26                     27
                      A                      A                      A
 Frequencies --   1435.2516              1464.2180              1487.2175
 Red. masses --      1.1688                 1.1808                 1.0507
 Frc consts  --      1.4185                 1.4915                 1.3693
 IR Inten    --      0.1552                 1.3305                 8.4809

                     28                     29                     30
                      A                      A                      A
 Frequencies --   1502.6137              1517.5124              1531.3530
 Red. masses --      1.0498                 1.0488                 1.0490
 Frc consts  --      1.3966                 1.4230                 1.4493
 IR Inten    --      6.4550                 1.9070                 7.1029

                     31                     32                     33
                      A                      A                      A
 Frequencies --   1670.5218              1682.4892              2994.1085
 Red. masses --      1.0794                 1.0761                 1.0482
 Frc consts  --      1.7747                 1.7947                 5.5366
 IR Inten    --     12.2395                16.0239                50.9364

                     34                     35                     36
                      A                      A                      A
 Frequencies --   3003.6162              3075.4668              3085.7989
 Red. masses --      1.0444                 1.0948                 1.0864
 Frc consts  --      5.5512                 6.1008                 6.0951
 IR Inten    --     47.6781                36.3092                32.2405

                     37                     38                     39
                      A                      A                      A
 Frequencies --   3116.4745              3140.6720              3356.7499
 Red. masses --      1.0990                 1.1014                 1.0572
 Frc consts  --      6.2891                 6.4011                 7.0186
 IR Inten    --     29.5239                22.4951                24.0934

                     40                     41                     42
                      A                      A                      A
 Frequencies --   3394.8438              3536.0699              3550.0250
 Red. masses --      1.0573                 1.0822                 1.0840
 Frc consts  --      7.1796                 7.9729                 8.0490
 IR Inten    --      9.9826                 0.5180                 1.0305

 - Thermochemistry -
 -------------------
 Temperature   298.150 Kelvin.  Pressure   1.00000 Atm.
 Atom     1 has atomic number  6 and mass  12.00000

 Molecular mass:    90.09055 amu.
 Principal axes and moments of inertia in atomic units:
                           1         2         3
     Eigenvalues --   372.63961 644.51846 679.05421
           X            0.99981  -0.01779  -0.00749
           Y            0.01873   0.98789   0.15403
           Z            0.00466  -0.15414   0.98804
 This molecule is an asymmetric top.
 Rotational symmetry number  1.
 Rotational temperatures (Kelvin)      0.23243     0.13439     0.12755
 Rotational constants (GHZ):           4.84313     2.80014     2.65773
 Zero-point vibrational energy     374716.8 (Joules/Mol)
                                   89.55948 (Kcal/Mol)
 Warning -- explicit consideration of  11 degrees of freedom as
           vibrations may cause significant error
 Vibrational temperatures:    173.33   329.85   344.05   378.99   422.76
          (Kelvin)            430.91   464.46   548.03   702.71   796.79
                              838.69  1062.56  1231.49  1353.49  1369.62
                             1495.53  1594.99  1619.96  1717.98  1727.70
                             1796.28  1830.01  1858.11  1957.50  2065.00
                             2106.68  2139.77  2161.92  2183.36  2203.27
                             2403.51  2420.72  4307.85  4321.53  4424.91
                             4439.77  4483.91  4518.72  4829.61  4884.42
                             5087.61  5107.69

 Zero-point correction=                           0.142722 (Hartree/Particle)
 Thermal correction to Energy=                    0.150343
 Thermal correction to Enthalpy=                  0.151287
 Thermal correction to Gibbs Free Energy=         0.112102
 Sum of electronic and zero-point Energies=           -301.003243
 Sum of electronic and thermal Energies=              -300.995622
 Sum of electronic and thermal Enthalpies=            -300.994677
 Sum of electronic and thermal Free Energies=         -301.033863

                     E (Thermal)             CV                S
                      KCal/Mol        Cal/Mol-Kelvin    Cal/Mol-Kelvin
 Total                   94.342             27.827             82.473
 Electronic               0.000              0.000              0.000
 Translational            0.889              2.981             39.407
 Rotational               0.889              2.981             26.592
 Vibrational             92.564             21.866             16.474
 Vibration     1          0.609              1.932              3.093
 Vibration     2          0.652              1.796              1.885
 Vibration     3          0.657              1.781              1.809
 Vibration     4          0.670              1.740              1.639
 Vibration     5          0.689              1.685              1.452
 Vibration     6          0.692              1.675              1.420
 Vibration     7          0.708              1.630              1.296
 Vibration     8          0.751              1.511              1.036
 Vibration     9          0.844              1.276              0.688
 Vibration    10          0.909              1.131              0.536
 Vibration    11          0.940              1.068              0.480

 Optimization completed.
    -- Stationary point found.
 Normal termination of Gaussian 09 at Thu Sep  8 14:48:49 2022.
