 Gaussian 09, Revision E.01,
 Gaussian 09:  ES64L-G09RevE.01 30-Nov-2015

 ----------------------------
 #P OPT Freq B3LYP/6-31G(d,p)
 ----------------------------

 ---------
 Frag_1158
 ---------
 Symbolic Z-matrix:
 Charge =  0 Multiplicity = 1

 SCF Done:  E(RB3LYP) =  -303.798527007     A.U. after   15 cycles
 SCF Done:  E(RB3LYP) =  -303.798610473     A.U. after   11 cycles
 SCF Done:  E(RB3LYP) =  -303.798622516     A.U. after   11 cycles
 SCF Done:  E(RB3LYP) =  -303.798632830     A.U. after   11 cycles
 SCF Done:  E(RB3LYP) =  -303.798640320     A.U. after   11 cycles
 SCF Done:  E(RB3LYP) =  -303.798652113     A.U. after   11 cycles
 SCF Done:  E(RB3LYP) =  -303.798659626     A.U. after   11 cycles
 SCF Done:  E(RB3LYP) =  -303.798664707     A.U. after   10 cycles
 SCF Done:  E(RB3LYP) =  -303.798668098     A.U. after   10 cycles
 SCF Done:  E(RB3LYP) =  -303.798669459     A.U. after    8 cycles
 SCF Done:  E(RB3LYP) =  -303.798669733     A.U. after    8 cycles
 SCF Done:  E(RB3LYP) =  -303.798669849     A.U. after    8 cycles
 SCF Done:  E(RB3LYP) =  -303.798669983     A.U. after    8 cycles
 SCF Done:  E(RB3LYP) =  -303.798670120     A.U. after    8 cycles
 SCF Done:  E(RB3LYP) =  -303.798670296     A.U. after    9 cycles
 SCF Done:  E(RB3LYP) =  -303.798670423     A.U. after    8 cycles
 Optimization completed.
    -- Stationary point found.
 Normal termination of Gaussian 09 at Thu Sep  8 14:51:24 2022.

 ----------------------------------------------------------------------
 #P Geom=AllCheck Guess=TCheck SCRF=Check GenChk RB3LYP/6-31G(d,p) Freq
 ----------------------------------------------------------------------

 Structure from the checkpoint file:  "B3LYP6-31Gdp.Frag_1158.chk"
 ---------
 Frag_1158
 ---------
 Charge =  0 Multiplicity = 1

                         Standard orientation:
 ---------------------------------------------------------------------
 Center     Atomic      Atomic             Coordinates (Angstroms)
 Number     Number       Type             X           Y           Z
 ---------------------------------------------------------------------
      1          6           0       -1.674418   -0.908877   -0.040258
      2          6           0       -0.623768    0.152892   -0.011217
      3          7           0       -0.944878    1.523666   -0.019740
      4          7           0        0.631321   -0.236453   -0.010165
      5          6           0        1.741213    0.731576   -0.070950
      6          8           0        0.980256   -1.479260    0.083593
      7          1           0       -1.834350   -1.335521    0.958692
      8          1           0       -2.627480   -0.507451   -0.398725
      9          1           0       -1.344290   -1.731019   -0.679169
     10          1           0       -1.937597    1.674366   -0.141852
     11          1           0       -0.623667    2.041740    0.792058
     12          1           0        2.140698    0.893717    0.934453
     13          1           0        1.412450    1.675521   -0.507727
     14          1           0        2.508925    0.258695   -0.682589
 ---------------------------------------------------------------------

 SCF Done:  E(RB3LYP) =  -303.798670423     A.U. after    1 cycles

 The electronic state is 1-A.
 Alpha  occ. eigenvalues --  -19.08030 -14.43803 -14.35621 -10.25200 -10.21609
 Alpha  occ. eigenvalues --  -10.18838  -1.06300  -0.92767  -0.81246  -0.75851
 Alpha  occ. eigenvalues --   -0.69018  -0.55490  -0.53111  -0.51031  -0.47381
 Alpha  occ. eigenvalues --   -0.44674  -0.41433  -0.40627  -0.39588  -0.39071
 Alpha  occ. eigenvalues --   -0.35184  -0.30312  -0.21260  -0.17406
 Alpha virt. eigenvalues --    0.00825   0.06326   0.10870   0.13724   0.14032
 Alpha virt. eigenvalues --    0.14971   0.15680   0.17338   0.18383   0.19165
 Alpha virt. eigenvalues --    0.24699   0.25815   0.35171   0.37644   0.49750

 Mulliken charges:
               1
     1  C   -0.346357
     2  C    0.391643
     3  N   -0.638890
     4  N    0.008140
     5  C   -0.192017
     6  O   -0.554222
     7  H    0.137725
     8  H    0.091909
     9  H    0.159276
    10  H    0.264259
    11  H    0.266442
    12  H    0.131864
    13  H    0.130510
    14  H    0.149717
 Sum of Mulliken charges =   0.00000

 Dipole moment (field-independent basis, Debye):
    X=             -2.1803    Y=              3.9714    Z=              0.8037  Tot=              4.6012
 Quadrupole moment (field-independent basis, Debye-Ang):
   XX=            -31.6126   YY=            -39.1036   ZZ=            -36.2526
   XY=              2.8692   XZ=             -0.6433   YZ=              2.8644

  Exact polarizability:  67.799  -5.834  57.042   0.617   0.772  34.067
 Approx polarizability: 103.861 -29.123  95.876   2.314  -0.379  48.305

                      1                      2                      3
                      A                      A                      A
 Frequencies --     54.4965               105.7047               164.1214
 Red. masses --      1.0965                 1.0745                 1.3624
 Frc consts  --      0.0019                 0.0071                 0.0216
 IR Inten    --      0.5526                25.3652                 2.4767

                      4                      5                      6
                      A                      A                      A
 Frequencies --    175.5766               308.7429               324.5699
 Red. masses --      2.2419                 2.5337                 3.4383
 Frc consts  --      0.0407                 0.1423                 0.2134
 IR Inten    --      6.8968                 9.1361                 1.5540

                      7                      8                      9
                      A                      A                      A
 Frequencies --    398.6364               494.4740               551.4705
 Red. masses --      2.4799                 3.0971                 3.9111
 Frc consts  --      0.2322                 0.4462                 0.7008
 IR Inten    --      2.2326                 4.6064                10.4706

                     10                     11                     12
                      A                      A                      A
 Frequencies --    588.3900               687.2272               767.8033
 Red. masses --      4.9095                 1.3956                 3.5213
 Frc consts  --      1.0014                 0.3883                 1.2231
 IR Inten    --     13.6549               224.3594                14.6512

                     13                     14                     15
                      A                      A                      A
 Frequencies --    956.1334              1037.0806              1051.8380
 Red. masses --      2.0925                 1.4878                 1.5111
 Frc consts  --      1.1271                 0.9428                 0.9850
 IR Inten    --     11.6898                 4.4455                 9.7631

                     16                     17                     18
                      A                      A                      A
 Frequencies --   1111.3338              1142.0825              1203.9756
 Red. masses --      1.4186                 1.3770                 2.3671
 Frc consts  --      1.0323                 1.0582                 2.0216
 IR Inten    --      0.6121                 3.4942                26.2311

                     19                     20                     21
                      A                      A                      A
 Frequencies --   1303.1041              1382.9889              1427.8618
 Red. masses --      4.1598                 1.8509                 1.2172
 Frc consts  --      4.1618                 2.0858                 1.4621
 IR Inten    --    178.6872                 1.4599                 3.7386

                     22                     23                     24
                      A                      A                      A
 Frequencies --   1442.6756              1467.2853              1495.3230
 Red. masses --      1.7921                 1.0600                 1.1113
 Frc consts  --      2.1975                 1.3445                 1.4640
 IR Inten    --      9.7139                 7.5354                 1.3582

                     25                     26                     27
                      A                      A                      A
 Frequencies --   1498.1388              1506.5778              1654.6672
 Red. masses --      1.0664                 1.0733                 1.4457
 Frc consts  --      1.4102                 1.4354                 2.3322
 IR Inten    --      7.2920                 4.8227                22.7249

                     28                     29                     30
                      A                      A                      A
 Frequencies --   1699.8910              3032.4938              3064.0391
 Red. masses --      2.7951                 1.0418                 1.0338
 Frc consts  --      4.7587                 5.6449                 5.7187
 IR Inten    --     20.6228                25.6807                23.8774

                     31                     32                     33
                      A                      A                      A
 Frequencies --   3092.9576              3144.5141              3146.3710
 Red. masses --      1.0950                 1.1014                 1.1020
 Frc consts  --      6.1719                 6.4167                 6.4274
 IR Inten    --     19.5224                 3.8769                11.5293

                     34                     35                     36
                      A                      A                      A
 Frequencies --   3181.9157              3524.2421              3640.3460
 Red. masses --      1.1061                 1.0534                 1.0913
 Frc consts  --      6.5984                 7.7085                 8.5207
 IR Inten    --      3.5019                 3.2602                18.5061

 - Thermochemistry -
 -------------------
 Temperature   298.150 Kelvin.  Pressure   1.00000 Atm.
 Atom     1 has atomic number  6 and mass  12.00000

 Molecular mass:    88.06366 amu.
 Principal axes and moments of inertia in atomic units:
                           1         2         3
     Eigenvalues --   369.76925 508.81889 850.05907
           X            0.98602   0.16662  -0.00274
           Y           -0.16657   0.98594   0.01310
           Z            0.00489  -0.01246   0.99991
 This molecule is an asymmetric top.
 Rotational symmetry number  1.
 Rotational temperatures (Kelvin)      0.23424     0.17023     0.10189
 Rotational constants (GHZ):           4.88072     3.54692     2.12308
 Zero-point vibrational energy     310006.6 (Joules/Mol)
                                   74.09335 (Kcal/Mol)
 Warning -- explicit consideration of  10 degrees of freedom as
           vibrations may cause significant error
 Vibrational temperatures:     78.41   152.09   236.13   252.62   444.21
          (Kelvin)            466.98   573.55   711.44   793.44   846.56
                              988.77  1104.70  1375.66  1492.13  1513.36
                             1598.96  1643.20  1732.25  1874.87  1989.81
                             2054.37  2075.69  2111.09  2151.43  2155.48
                             2167.63  2380.69  2445.76  4363.08  4408.46
                             4450.07  4524.25  4526.92  4578.06  5070.59
                             5237.64

 Zero-point correction=                           0.118075 (Hartree/Particle)
 Thermal correction to Energy=                    0.125800
 Thermal correction to Enthalpy=                  0.126744
 Thermal correction to Gibbs Free Energy=         0.086261
 Sum of electronic and zero-point Energies=           -303.680595
 Sum of electronic and thermal Energies=              -303.672870
 Sum of electronic and thermal Enthalpies=            -303.671926
 Sum of electronic and thermal Free Energies=         -303.712409

                     E (Thermal)             CV                S
                      KCal/Mol        Cal/Mol-Kelvin    Cal/Mol-Kelvin
 Total                   78.941             26.056             85.203
 Electronic               0.000              0.000              0.000
 Translational            0.889              2.981             39.339
 Rotational               0.889              2.981             26.572
 Vibrational             77.163             20.094             19.292
 Vibration     1          0.596              1.976              4.647
 Vibration     2          0.605              1.945              3.346
 Vibration     3          0.623              1.887              2.502
 Vibration     4          0.628              1.872              2.375
 Vibration     5          0.698              1.657              1.369
 Vibration     6          0.709              1.626              1.287
 Vibration     7          0.765              1.473              0.968
 Vibration     8          0.850              1.262              0.672
 Vibration     9          0.907              1.136              0.541
 Vibration    10          0.946              1.057              0.470

 Optimization completed.
    -- Stationary point found.
 Normal termination of Gaussian 09 at Thu Sep  8 14:51:35 2022.
