 Gaussian 09, Revision D.01,
 Gaussian 09:  ES64L-G09RevD.01 24-Apr-2013

 -------------------------
 #P OPT Freq B3LYP/6-31G**
 -------------------------

 -------
 Frag_84
 -------
 Symbolic Z-matrix:
 Charge =  0 Multiplicity = 1

 SCF Done:  E(RB3LYP) =  -133.961538279     A.U. after   12 cycles
 Optimization completed.
    -- Stationary point found.
 Normal termination of Gaussian 09 at Fri Jul 23 03:37:34 2021.

 ----------------------------------------------------------------------
 #P Geom=AllCheck Guess=TCheck SCRF=Check GenChk RB3LYP/6-31G(d,p) Freq
 ----------------------------------------------------------------------

 Structure from the checkpoint file:  "/vol2/users/liuj201281/HOFBenchmark/IsodesmicSplit/Sample60/Ring26/Running/Gau-305516.chk"
 -------
 Frag_84
 -------
 Charge =  0 Multiplicity = 1

                         Standard orientation:
 ---------------------------------------------------------------------
 Center     Atomic      Atomic             Coordinates (Angstroms)
 Number     Number       Type             X           Y           Z
 ---------------------------------------------------------------------
      1          6           0        1.205207   -0.141809   -0.000004
      2          6           0       -0.190089    0.409001   -0.000004
      3          7           0       -1.207594   -0.356491   -0.000004
      4          1           0        1.757310    0.209287    0.880496
      5          1           0        1.177699   -1.233209   -0.000004
      6          1           0        1.757310    0.209187   -0.880404
      7          1           0       -0.260980    1.508402   -0.000004
      8          1           0       -2.068890    0.198616   -0.000004
 ---------------------------------------------------------------------

 SCF Done:  E(RB3LYP) =  -133.961538279     A.U. after    1 cycles

 The electronic state is 1-A.
 Alpha  occ. eigenvalues --  -14.31790 -10.23424 -10.18473  -0.89822  -0.73065
 Alpha  occ. eigenvalues --   -0.56469  -0.50600  -0.42176  -0.39756  -0.38651
 Alpha  occ. eigenvalues --   -0.30520  -0.25940
 Alpha virt. eigenvalues --    0.00441   0.09492   0.12958   0.16288   0.16759
 Alpha virt. eigenvalues --    0.16875   0.25282   0.36719   0.54574   0.55241
 Alpha virt. eigenvalues --    0.56367   0.60720   0.60894   0.71118   0.72876

 Mulliken charges:
               1
     1  C   -0.348083
     2  C    0.129277
     3  N   -0.463956
     4  H    0.121044
     5  H    0.136586
     6  H    0.121066
     7  H    0.076478
     8  H    0.227588
 Sum of Mulliken charges =   0.00000

 Dipole moment (field-independent basis, Debye):
    X=              0.6928    Y=              1.8288    Z=             -0.0001  Tot=              1.9557
 Quadrupole moment (field-independent basis, Debye-Ang):
   XX=            -17.2280   YY=            -19.7977   ZZ=            -19.4908
   XY=             -2.3245   XZ=             -0.0001   YZ=              0.0001

  Exact polarizability:  38.259   2.389  27.897   0.001   0.001  18.610
 Approx polarizability:  52.412   8.752  40.529   0.001   0.001  25.333

                      1                      2                      3
                      A                      A                      A
 Frequencies --    197.3338               488.7169               681.4745
 Red. masses --      1.2332                 2.3780                 1.1136
 Frc consts  --      0.0283                 0.3346                 0.3047
 IR Inten    --      1.0072                16.4333                52.1590

                      4                      5                      6
                      A                      A                      A
 Frequencies --    927.2902              1063.0308              1080.0333
 Red. masses --      2.1205                 1.4608                 1.3486
 Frc consts  --      1.0743                 0.9726                 0.9269
 IR Inten    --      7.8957                25.8127                11.6829

                      7                      8                      9
                      A                      A                      A
 Frequencies --   1129.6277              1281.8145              1398.8237
 Red. masses --      1.3430                 1.2146                 1.2466
 Frc consts  --      1.0097                 1.1758                 1.4372
 IR Inten    --      7.8522                36.4520                 9.4351

                     10                     11                     12
                      A                      A                      A
 Frequencies --   1447.0789              1483.8530              1492.3125
 Red. masses --      1.5081                 1.0538                 1.0461
 Frc consts  --      1.8606                 1.3670                 1.3726
 IR Inten    --     21.5510                10.7315                 7.9659

                     13                     14                     15
                      A                      A                      A
 Frequencies --   1743.9286              3004.1388              3037.9703
 Red. masses --      6.0484                 1.0848                 1.0392
 Frc consts  --     10.8380                 5.7684                 5.6510
 IR Inten    --     65.9510                68.1560                12.1255

                     16                     17                     18
                      A                      A                      A
 Frequencies --   3092.3726              3153.4304              3439.6398
 Red. masses --      1.0995                 1.1015                 1.0759
 Frc consts  --      6.1949                 6.4537                 7.4999
 IR Inten    --     17.3729                11.8582                 5.6118

 - Thermochemistry -
 -------------------
 Temperature   298.150 Kelvin.  Pressure   1.00000 Atm.
 Atom     1 has atomic number  6 and mass  12.00000

 Molecular mass:    43.04220 amu.
 Principal axes and moments of inertia in atomic units:
                           1         2         3
     Eigenvalues --    33.83837 184.88952 207.56820
           X            0.99940  -0.03460   0.00000
           Y            0.03460   0.99940  -0.00002
           Z            0.00000   0.00002   1.00000
 This molecule is an asymmetric top.
 Rotational symmetry number  1.
 Rotational temperatures (Kelvin)      2.55963     0.46846     0.41728
 Rotational constants (GHZ):          53.33416     9.76119     8.69469
 Zero-point vibrational energy     180294.4 (Joules/Mol)
                                   43.09140 (Kcal/Mol)
 Warning -- explicit consideration of   2 degrees of freedom as
           vibrations may cause significant error
 Vibrational temperatures:    283.92   703.15   980.49  1334.16  1529.46
          (Kelvin)           1553.93  1625.28  1844.24  2012.59  2082.02
                             2134.93  2147.10  2509.12  4322.28  4370.96
                             4449.23  4537.08  4948.87

 Zero-point correction=                           0.068671 (Hartree/Particle)
 Thermal correction to Energy=                    0.072585
 Thermal correction to Enthalpy=                  0.073530
 Thermal correction to Gibbs Free Energy=         0.043796
 Sum of electronic and zero-point Energies=           -133.892868
 Sum of electronic and thermal Energies=              -133.888953
 Sum of electronic and thermal Enthalpies=            -133.888009
 Sum of electronic and thermal Free Energies=         -133.917743

                     E (Thermal)             CV                S
                      KCal/Mol        Cal/Mol-Kelvin    Cal/Mol-Kelvin
 Total                   45.548             11.817             62.580
 Electronic               0.000              0.000              0.000
 Translational            0.889              2.981             37.205
 Rotational               0.889              2.981             21.790
 Vibrational             43.771              5.855              3.585
 Vibration     1          0.637              1.844              2.158
 Vibration     2          0.845              1.275              0.687

 Optimization completed.
    -- Stationary point found.
 Normal termination of Gaussian 09 at Fri Jul 23 03:37:42 2021.
