 Gaussian 09, Revision E.01,
 Gaussian 09:  ES64L-G09RevE.01 30-Nov-2015

 ----------------------------
 #P OPT Freq B3LYP/6-31G(d,p)
 ----------------------------

 --------
 Frag_562
 --------
 Symbolic Z-matrix:
 Charge =  0 Multiplicity = 1

 SCF Done:  E(RB3LYP) =  -251.909149968     A.U. after   14 cycles
 SCF Done:  E(RB3LYP) =  -251.909186323     A.U. after   10 cycles
 SCF Done:  E(RB3LYP) =  -251.909187952     A.U. after    7 cycles
 SCF Done:  E(RB3LYP) =  -251.909188092     A.U. after    7 cycles
 Optimization completed.
    -- Stationary point found.
 Normal termination of Gaussian 09 at Thu Sep  8 14:57:04 2022.

 ----------------------------------------------------------------------
 #P Geom=AllCheck Guess=TCheck SCRF=Check GenChk RB3LYP/6-31G(d,p) Freq
 ----------------------------------------------------------------------

 Structure from the checkpoint file:  "B3LYP6-31Gdp.Frag_562.chk"
 --------
 Frag_562
 --------
 Charge =  0 Multiplicity = 1

                         Standard orientation:
 ---------------------------------------------------------------------
 Center     Atomic      Atomic             Coordinates (Angstroms)
 Number     Number       Type             X           Y           Z
 ---------------------------------------------------------------------
      1          6           0        1.826129   -0.510689   -0.816025
      2          6           0        0.830053   -0.026790   -0.056425
      3          7           0        1.050858    0.655713    1.148916
      4          6           0       -0.632802   -0.258990   -0.403547
      5          6           0       -1.351824   -1.090443    0.674877
      6          6           0       -1.380734    1.060954   -0.676672
      7          1           0        2.870794   -0.344089   -0.567645
      8          1           0        1.615977   -1.115477   -1.689583
      9          1           0        0.392962    1.400477    1.340335
     10          1           0        2.003225    0.975022    1.273877
     11          1           0       -0.638186   -0.834452   -1.336149
     12          1           0       -0.846810   -2.048395    0.829235
     13          1           0       -2.387486   -1.291278    0.379837
     14          1           0       -1.368268   -0.566355    1.635524
     15          1           0       -1.474963    1.677233    0.226229
     16          1           0       -2.398070    0.857731   -1.026752
     17          1           0       -0.870111    1.655339   -1.440563
 ---------------------------------------------------------------------

 SCF Done:  E(RB3LYP) =  -251.909188092     A.U. after    1 cycles

 The electronic state is 1-A.
 Alpha  occ. eigenvalues --  -14.32962 -10.21022 -10.19112 -10.17830 -10.16979
 Alpha  occ. eigenvalues --  -10.14775  -0.90299  -0.78827  -0.71336  -0.68092
 Alpha  occ. eigenvalues --   -0.60093  -0.54215  -0.50580  -0.45426  -0.43050
 Alpha  occ. eigenvalues --   -0.41584  -0.41022  -0.38792  -0.37960  -0.34392
 Alpha  occ. eigenvalues --   -0.33064  -0.32294  -0.30614  -0.19648
 Alpha virt. eigenvalues --    0.05079   0.07104   0.11738   0.12285   0.14419
 Alpha virt. eigenvalues --    0.15244   0.16473   0.17519   0.19413   0.19602
 Alpha virt. eigenvalues --    0.20103   0.21451   0.23316   0.25928   0.27250

 Mulliken charges:
               1
     1  C   -0.333589
     2  C    0.334030
     3  N   -0.635271
     4  C   -0.119445
     5  C   -0.296781
     6  C   -0.315539
     7  H    0.068699
     8  H    0.081914
     9  H    0.250648
    10  H    0.251646
    11  H    0.095897
    12  H    0.111296
    13  H    0.095005
    14  H    0.105539
    15  H    0.089302
    16  H    0.105543
    17  H    0.111107
 Sum of Mulliken charges =  -0.00000

 Dipole moment (field-independent basis, Debye):
    X=             -0.4551    Y=              1.3603    Z=              0.2476  Tot=              1.4557
 Quadrupole moment (field-independent basis, Debye-Ang):
   XX=            -37.5255   YY=            -37.7828   ZZ=            -39.9075
   XY=              1.8710   XZ=              1.4900   YZ=              2.9905

  Exact polarizability:  71.288  -3.542  52.278  -5.092   8.019  57.998
 Approx polarizability:  94.661  -7.775  71.768 -11.486  16.728  87.053

                      1                      2                      3
                      A                      A                      A
 Frequencies --     68.1258               220.4345               244.3919
 Red. masses --      2.8135                 1.3010                 1.4387
 Frc consts  --      0.0077                 0.0372                 0.0506
 IR Inten    --      0.8897                 0.9464                 1.8764

                      4                      5                      6
                      A                      A                      A
 Frequencies --    261.8364               286.7600               326.1627
 Red. masses --      1.2322                 2.3704                 1.5743
 Frc consts  --      0.0498                 0.1148                 0.0987
 IR Inten    --      0.8168                 2.7542                12.2526

                      7                      8                      9
                      A                      A                      A
 Frequencies --    336.7970               458.8706               548.2985
 Red. masses --      1.4259                 2.2052                 2.3532
 Frc consts  --      0.0953                 0.2736                 0.4168
 IR Inten    --     26.7920                 5.7387                11.8314

                     10                     11                     12
                      A                      A                      A
 Frequencies --    610.0154               679.9206               748.3656
 Red. masses --      1.5899                 1.5023                 1.4128
 Frc consts  --      0.3486                 0.4092                 0.4662
 IR Inten    --    162.2263                36.4741                33.5011

                     13                     14                     15
                      A                      A                      A
 Frequencies --    753.5659               810.4886               916.7980
 Red. masses --      2.3725                 1.5191                 2.3265
 Frc consts  --      0.7938                 0.5879                 1.1521
 IR Inten    --      2.5415                72.1225                 2.7541

                     16                     17                     18
                      A                      A                      A
 Frequencies --    936.1548               967.1845               998.3951
 Red. masses --      1.1872                 1.4857                 1.5473
 Frc consts  --      0.6130                 0.8188                 0.9087
 IR Inten    --      0.9151                 0.0142                 5.4169

                     19                     20                     21
                      A                      A                      A
 Frequencies --   1076.0340              1123.5494              1163.7815
 Red. masses --      1.4396                 2.2569                 1.4352
 Frc consts  --      0.9821                 1.6786                 1.1453
 IR Inten    --      7.4151                 2.9062                 4.6058

                     22                     23                     24
                      A                      A                      A
 Frequencies --   1193.8307              1344.1555              1345.7841
 Red. masses --      1.8807                 1.3439                 1.3292
 Frc consts  --      1.5793                 1.4306                 1.4184
 IR Inten    --      3.9017                 5.4687                 4.2745

                     25                     26                     27
                      A                      A                      A
 Frequencies --   1369.9837              1412.4950              1435.0180
 Red. masses --      3.2118                 1.2301                 1.2536
 Frc consts  --      3.5516                 1.4460                 1.5209
 IR Inten    --     33.4094                 3.0335                 1.3462

                     28                     29                     30
                      A                      A                      A
 Frequencies --   1466.8542              1502.9603              1504.8239
 Red. masses --      1.1769                 1.0477                 1.0458
 Frc consts  --      1.4920                 1.3944                 1.3953
 IR Inten    --      0.6763                 0.3718                 1.2240

                     31                     32                     33
                      A                      A                      A
 Frequencies --   1519.5013              1525.6254              1661.9627
 Red. masses --      1.0479                 1.0608                 1.1627
 Frc consts  --      1.4256                 1.4548                 1.8922
 IR Inten    --      3.1059                 9.4148                45.7375

                     34                     35                     36
                      A                      A                      A
 Frequencies --   1724.4033              3033.5936              3045.3171
 Red. masses --      4.6176                 1.0389                 1.0359
 Frc consts  --      8.0900                 5.6328                 5.6603
 IR Inten    --    104.7454                23.7384                26.4344

                     37                     38                     39
                      A                      A                      A
 Frequencies --   3056.5253              3098.9009              3116.2161
 Red. masses --      1.0841                 1.0984                 1.1017
 Frc consts  --      5.9674                 6.2146                 6.3033
 IR Inten    --     10.0307                28.7092                40.0314

                     40                     41                     42
                      A                      A                      A
 Frequencies --   3121.0176              3126.8827              3159.0152
 Red. masses --      1.1031                 1.1024                 1.0623
 Frc consts  --      6.3309                 6.3506                 6.2457
 IR Inten    --     30.9662                29.3441                 8.7405

                     43                     44                     45
                      A                      A                      A
 Frequencies --   3251.6319              3551.4565              3653.9877
 Red. masses --      1.1135                 1.0474                 1.0973
 Frc consts  --      6.9365                 7.7836                 8.6319
 IR Inten    --     15.7750                 3.1366                 5.0285

 - Thermochemistry -
 -------------------
 Temperature   298.150 Kelvin.  Pressure   1.00000 Atm.
 Atom     1 has atomic number  6 and mass  12.00000

 Molecular mass:    85.08915 amu.
 Principal axes and moments of inertia in atomic units:
                           1         2         3
     Eigenvalues --   392.54302 715.64392 719.01318
           X            0.99995   0.00185  -0.00955
           Y            0.00159   0.93743   0.34818
           Z            0.00960  -0.34818   0.93738
 This molecule is an asymmetric top.
 Rotational symmetry number  1.
 Rotational temperatures (Kelvin)      0.22065     0.12103     0.12046
 Rotational constants (GHZ):           4.59756     2.52184     2.51003
 Zero-point vibrational energy     405282.1 (Joules/Mol)
                                   96.86474 (Kcal/Mol)
 Warning -- explicit consideration of  10 degrees of freedom as
           vibrations may cause significant error
 Vibrational temperatures:     98.02   317.16   351.63   376.72   412.58
          (Kelvin)            469.27   484.58   660.21   788.88   877.68
                              978.25  1076.73  1084.21  1166.11  1319.07
                             1346.92  1391.56  1436.47  1548.17  1616.53
                             1674.42  1717.65  1933.94  1936.28  1971.10
                             2032.26  2064.67  2110.47  2162.42  2165.10
                             2186.22  2195.03  2391.19  2481.03  4364.66
                             4381.53  4397.65  4458.62  4483.53  4490.44
                             4498.88  4545.11  4678.37  5109.75  5257.27

 Zero-point correction=                           0.154364 (Hartree/Particle)
 Thermal correction to Energy=                    0.162007
 Thermal correction to Enthalpy=                  0.162952
 Thermal correction to Gibbs Free Energy=         0.123402
 Sum of electronic and zero-point Energies=           -251.754824
 Sum of electronic and thermal Energies=              -251.747181
 Sum of electronic and thermal Enthalpies=            -251.746236
 Sum of electronic and thermal Free Energies=         -251.785786

                     E (Thermal)             CV                S
                      KCal/Mol        Cal/Mol-Kelvin    Cal/Mol-Kelvin
 Total                  101.661             28.384             83.240
 Electronic               0.000              0.000              0.000
 Translational            0.889              2.981             39.237
 Rotational               0.889              2.981             26.804
 Vibrational             99.884             22.423             17.199
 Vibration     1          0.598              1.969              4.207
 Vibration     2          0.647              1.810              1.956
 Vibration     3          0.660              1.772              1.771
 Vibration     4          0.669              1.743              1.649
 Vibration     5          0.684              1.698              1.493
 Vibration     6          0.710              1.623              1.279
 Vibration     7          0.718              1.602              1.227
 Vibration     8          0.817              1.341              0.769
 Vibration     9          0.904              1.143              0.548
 Vibration    10          0.969              1.011              0.433

 Normal termination of Gaussian 09 at Thu Sep  8 14:57:18 2022.
