 Gaussian 09, Revision E.01,
 Gaussian 09:  ES64L-G09RevE.01 30-Nov-2015

 ----------------------------
 #P OPT Freq B3LYP/6-31G(d,p)
 ----------------------------

 --------
 Frag_813
 --------
 Symbolic Z-matrix:
 Charge =  0 Multiplicity = 1

 SCF Done:  E(RB3LYP) =  -303.767934531     A.U. after   13 cycles
 SCF Done:  E(RB3LYP) =  -303.768019873     A.U. after   10 cycles
 SCF Done:  E(RB3LYP) =  -303.768037765     A.U. after    9 cycles
 SCF Done:  E(RB3LYP) =  -303.768044173     A.U. after    9 cycles
 SCF Done:  E(RB3LYP) =  -303.768045468     A.U. after    7 cycles
 SCF Done:  E(RB3LYP) =  -303.768045752     A.U. after    8 cycles
 Optimization completed.
    -- Stationary point found.
 Normal termination of Gaussian 09 at Thu Sep  8 15:07:42 2022.

 ----------------------------------------------------------------------
 #P Geom=AllCheck Guess=TCheck SCRF=Check GenChk RB3LYP/6-31G(d,p) Freq
 ----------------------------------------------------------------------

 Structure from the checkpoint file:  "B3LYP6-31Gdp.Frag_813.chk"
 --------
 Frag_813
 --------
 Charge =  0 Multiplicity = 1

                         Standard orientation:
 ---------------------------------------------------------------------
 Center     Atomic      Atomic             Coordinates (Angstroms)
 Number     Number       Type             X           Y           Z
 ---------------------------------------------------------------------
      1          6           0        1.051467    1.456511    0.286590
      2          6           0        0.711254    0.203300   -0.031938
      3          6           0        1.703312   -0.919450   -0.188128
      4          7           0       -0.630102   -0.179462   -0.364824
      5          7           0       -1.035618   -1.316969    0.353155
      6          8           0       -1.551330    0.908265   -0.089725
      7          1           0        2.094703    1.707996    0.437689
      8          1           0        0.313180    2.239110    0.390488
      9          1           0        2.721842   -0.530435   -0.125124
     10          1           0        1.573431   -1.416431   -1.155313
     11          1           0        1.566265   -1.684588    0.580887
     12          1           0       -1.896490   -1.649961   -0.071811
     13          1           0       -1.247179   -1.053584    1.320255
     14          1           0       -1.851268    1.154622   -0.976731
 ---------------------------------------------------------------------

 SCF Done:  E(RB3LYP) =  -303.768045752     A.U. after    1 cycles

 The electronic state is 1-A.
 Alpha  occ. eigenvalues --  -19.17263 -14.41098 -14.35451 -10.21369 -10.17466
 Alpha  occ. eigenvalues --  -10.15810  -1.07268  -0.93037  -0.80886  -0.70904
 Alpha  occ. eigenvalues --   -0.67635  -0.54867  -0.53045  -0.50082  -0.47109
 Alpha  occ. eigenvalues --   -0.43479  -0.41016  -0.40015  -0.38093  -0.35213
 Alpha  occ. eigenvalues --   -0.31179  -0.28921  -0.26224  -0.21268
 Alpha virt. eigenvalues --    0.03364   0.07631   0.08984   0.12557   0.13827
 Alpha virt. eigenvalues --    0.15355   0.15552   0.18155   0.18820   0.20427
 Alpha virt. eigenvalues --    0.22858   0.25983   0.32578   0.37703   0.52952

 Mulliken charges:
               1
     1  C   -0.299654
     2  C    0.312237
     3  C   -0.341900
     4  N   -0.191222
     5  N   -0.415646
     6  O   -0.439089
     7  H    0.084390
     8  H    0.104684
     9  H    0.105809
    10  H    0.120187
    11  H    0.131986
    12  H    0.256310
    13  H    0.245832
    14  H    0.326078
 Sum of Mulliken charges =  -0.00000

 Dipole moment (field-independent basis, Debye):
    X=             -1.1466    Y=             -0.3665    Z=             -0.4512  Tot=              1.2856
 Quadrupole moment (field-independent basis, Debye-Ang):
   XX=            -31.6495   YY=            -36.9291   ZZ=            -35.6302
   XY=              1.0798   XZ=              1.7774   YZ=             -1.9808

  Exact polarizability:  56.496   4.573  62.548   2.372   1.894  36.025
 Approx polarizability:  72.288   7.892  94.654   4.861   5.621  53.037

                      1                      2                      3
                      A                      A                      A
 Frequencies --     87.0132               174.7168               253.2881
 Red. masses --      3.2027                 1.0862                 1.2158
 Frc consts  --      0.0143                 0.0195                 0.0460
 IR Inten    --      3.4972                 0.9327                71.0098

                      4                      5                      6
                      A                      A                      A
 Frequencies --    295.3590               314.5187               411.3354
 Red. masses --      1.8668                 3.4144                 2.6076
 Frc consts  --      0.0960                 0.1990                 0.2599
 IR Inten    --     46.0912                 3.3176                 4.1325

                      7                      8                      9
                      A                      A                      A
 Frequencies --    439.9549               492.7971               527.0749
 Red. masses --      1.4216                 2.5257                 3.5725
 Frc consts  --      0.1621                 0.3614                 0.5847
 IR Inten    --     13.4811                26.8319                25.0041

                     10                     11                     12
                      A                      A                      A
 Frequencies --    569.1662               743.5674               778.7929
 Red. masses --      2.1496                 2.9973                 1.4618
 Frc consts  --      0.4103                 0.9764                 0.5224
 IR Inten    --      7.6258                18.7830                 3.7537

                     13                     14                     15
                      A                      A                      A
 Frequencies --    881.5208               903.6233               918.2611
 Red. masses --      1.3487                 2.2693                 3.8508
 Frc consts  --      0.6175                 1.0917                 1.9131
 IR Inten    --     52.5456                31.2673               123.8128

                     16                     17                     18
                      A                      A                      A
 Frequencies --    954.9882              1038.2144              1080.6635
 Red. masses --      1.8376                 1.5490                 1.4840
 Frc consts  --      0.9874                 0.9837                 1.0211
 IR Inten    --      4.6107                 6.6077                 1.3005

                     19                     20                     21
                      A                      A                      A
 Frequencies --   1202.1535              1295.5567              1330.4693
 Red. masses --      2.2232                 1.4522                 2.0220
 Frc consts  --      1.8929                 1.4361                 2.1088
 IR Inten    --     12.8100                32.2372                33.9982

                     22                     23                     24
                      A                      A                      A
 Frequencies --   1363.8346              1417.0277              1443.4341
 Red. masses --      1.2769                 1.2213                 1.2456
 Frc consts  --      1.3993                 1.4448                 1.5290
 IR Inten    --     39.4672                 4.8110                 1.2527

                     25                     26                     27
                      A                      A                      A
 Frequencies --   1484.3782              1506.0721              1691.6006
 Red. masses --      1.0461                 1.0530                 1.1042
 Frc consts  --      1.3581                 1.4073                 1.8616
 IR Inten    --      5.6328                 8.7056                14.7164

                     28                     29                     30
                      A                      A                      A
 Frequencies --   1730.6558              3055.2017              3117.5773
 Red. masses --      5.0864                 1.0366                 1.0992
 Frc consts  --      8.9759                 5.7008                 6.2946
 IR Inten    --     52.0934                18.6979                14.6564

                     31                     32                     33
                      A                      A                      A
 Frequencies --   3144.5414              3189.5230              3288.5254
 Red. masses --      1.1035                 1.0612                 1.1149
 Frc consts  --      6.4286                 6.3607                 7.1037
 IR Inten    --     18.2702                 4.2836                 4.7718

                     34                     35                     36
                      A                      A                      A
 Frequencies --   3404.0138              3559.5577              3793.1323
 Red. masses --      1.0552                 1.0863                 1.0680
 Frc consts  --      7.2039                 8.1092                 9.0534
 IR Inten    --     11.8322                 1.1993                36.7111

 - Thermochemistry -
 -------------------
 Temperature   298.150 Kelvin.  Pressure   1.00000 Atm.
 Atom     1 has atomic number  6 and mass  12.00000

 Molecular mass:    88.06366 amu.
 Principal axes and moments of inertia in atomic units:
                           1         2         3
     Eigenvalues --   365.34930 530.79604 825.21845
           X            0.99999   0.00464   0.00080
           Y           -0.00464   0.99999  -0.00071
           Z           -0.00081   0.00070   1.00000
 This molecule is an asymmetric top.
 Rotational symmetry number  1.
 Rotational temperatures (Kelvin)      0.23707     0.16318     0.10496
 Rotational constants (GHZ):           4.93977     3.40007     2.18699
 Zero-point vibrational energy     310323.9 (Joules/Mol)
                                   74.16920 (Kcal/Mol)
 Warning -- explicit consideration of  10 degrees of freedom as
           vibrations may cause significant error
 Vibrational temperatures:    125.19   251.38   364.42   424.96   452.52
          (Kelvin)            591.82   633.00   709.02   758.34   818.90
                             1069.83  1120.51  1268.31  1300.11  1321.17
                             1374.01  1493.76  1554.83  1729.63  1864.01
                             1914.25  1962.25  2038.78  2076.78  2135.69
                             2166.90  2433.83  2490.02  4395.75  4485.49
                             4524.29  4589.01  4731.45  4897.61  5121.40
                             5457.46

 Zero-point correction=                           0.118196 (Hartree/Particle)
 Thermal correction to Energy=                    0.125402
 Thermal correction to Enthalpy=                  0.126346
 Thermal correction to Gibbs Free Energy=         0.087682
 Sum of electronic and zero-point Energies=           -303.649850
 Sum of electronic and thermal Energies=              -303.642644
 Sum of electronic and thermal Enthalpies=            -303.641700
 Sum of electronic and thermal Free Energies=         -303.680364

                     E (Thermal)             CV                S
                      KCal/Mol        Cal/Mol-Kelvin    Cal/Mol-Kelvin
 Total                   78.691             26.278             81.376
 Electronic               0.000              0.000              0.000
 Translational            0.889              2.981             39.339
 Rotational               0.889              2.981             26.573
 Vibrational             76.913             20.316             15.464
 Vibration     1          0.601              1.958              3.726
 Vibration     2          0.627              1.874              2.384
 Vibration     3          0.664              1.757              1.708
 Vibration     4          0.690              1.682              1.443
 Vibration     5          0.702              1.646              1.338
 Vibration     6          0.775              1.446              0.922
 Vibration     7          0.800              1.383              0.827
 Vibration     8          0.848              1.266              0.676
 Vibration     9          0.882              1.190              0.594
 Vibration    10          0.925              1.098              0.506

 Normal termination of Gaussian 09 at Thu Sep  8 15:07:53 2022.
