 Gaussian 09, Revision E.01,
 Gaussian 09:  ES64L-G09RevE.01 30-Nov-2015

 --------------------------------
 #P OPT=calcfc Freq B3LYP/6-31G**
 --------------------------------

 --------
 Frag_339
 --------
 Symbolic Z-matrix:
 Charge =  0 Multiplicity = 1

 SCF Done:  E(RB3LYP) =  -190.521802218     A.U. after   12 cycles
 SCF Done:  E(RB3LYP) =  -190.526207551     A.U. after   11 cycles
 SCF Done:  E(RB3LYP) =  -190.526317746     A.U. after   10 cycles
 SCF Done:  E(RB3LYP) =  -190.526322000     A.U. after    8 cycles
 SCF Done:  E(RB3LYP) =  -190.526322242     A.U. after    7 cycles
 Optimization completed.
    -- Stationary point found.
 Normal termination of Gaussian 09 at Fri Sep 10 19:27:43 2021.

 ----------------------------------------------------------------------
 #P Geom=AllCheck Guess=TCheck SCRF=Check GenChk RB3LYP/6-31G(d,p) Freq
 ----------------------------------------------------------------------

 Structure from the checkpoint file:  "/public/home/users/caep010/.cache/gau_scr/Gau-214427.chk"
 --------
 Frag_339
 --------
 Charge =  0 Multiplicity = 1

                         Standard orientation:
 ---------------------------------------------------------------------
 Center     Atomic      Atomic             Coordinates (Angstroms)
 Number     Number       Type             X           Y           Z
 ---------------------------------------------------------------------
      1          6           0        1.532205   -0.476780    0.096556
      2          7           0        0.609475    0.541467   -0.392973
      3          6           0       -0.682442    0.560879    0.301160
      4          7           0       -1.593415   -0.503891   -0.082111
      5          1           0        1.130079   -1.472873   -0.118288
      6          1           0        2.487232   -0.394565   -0.430254
      7          1           0        1.730951   -0.426689    1.183347
      8          1           0        1.043323    1.457887   -0.312055
      9          1           0       -0.573943    0.511485    1.399916
     10          1           0       -1.156627    1.520266    0.064188
     11          1           0       -1.619720   -0.561243   -1.098375
     12          1           0       -1.252291   -1.401895    0.250819
 ---------------------------------------------------------------------

 SCF Done:  E(RB3LYP) =  -190.526322242     A.U. after    1 cycles

 The electronic state is 1-A.
 Alpha  occ. eigenvalues --  -14.31441 -14.30739 -10.22675 -10.20228  -0.91378
 Alpha  occ. eigenvalues --   -0.84453  -0.68463  -0.60883  -0.49704  -0.48447
 Alpha  occ. eigenvalues --   -0.44673  -0.41772  -0.39527  -0.37155  -0.34974
 Alpha  occ. eigenvalues --   -0.24103  -0.22174
 Alpha virt. eigenvalues --    0.07884   0.10206   0.13045   0.15378   0.16052
 Alpha virt. eigenvalues --    0.16874   0.18632   0.20809   0.21724   0.25783
 Alpha virt. eigenvalues --    0.28450   0.52804   0.53274   0.55355   0.57468

 Mulliken charges:
               1
     1  C   -0.176361
     2  N   -0.487676
     3  C    0.062144
     4  N   -0.581608
     5  H    0.102695
     6  H    0.108845
     7  H    0.081345
     8  H    0.232707
     9  H    0.081150
    10  H    0.100902
    11  H    0.239716
    12  H    0.236141
 Sum of Mulliken charges =  -0.00000

 Dipole moment (field-independent basis, Debye):
    X=              1.4889    Y=             -0.0024    Z=              0.2563  Tot=              1.5108
 Quadrupole moment (field-independent basis, Debye-Ang):
   XX=            -29.5830   YY=            -22.9684   ZZ=            -27.1514
   XY=              0.5965   XZ=              1.7127   YZ=              0.5048

  Exact polarizability:  40.966   0.119  37.828   0.852  -0.301  33.681
 Approx polarizability:  50.215   1.251  50.740   0.872  -1.527  46.744

                      1                      2                      3
                      A                      A                      A
 Frequencies --    140.2534               223.5703               309.5057
 Red. masses --      1.8749                 1.1510                 1.3788
 Frc consts  --      0.0217                 0.0339                 0.0778
 IR Inten    --      3.2465                 2.5751                20.7266

                      4                      5                      6
                      A                      A                      A
 Frequencies --    388.0222               496.5517               770.8599
 Red. masses --      1.6354                 1.9963                 1.3816
 Frc consts  --      0.1451                 0.2900                 0.4837
 IR Inten    --     23.5307                62.3006               102.5419

                      7                      8                      9
                      A                      A                      A
 Frequencies --    850.3995               922.4680               948.0143
 Red. masses --      2.0252                 1.2499                 1.9607
 Frc consts  --      0.8629                 0.6266                 1.0382
 IR Inten    --    125.3030                 4.9767               113.5543

                     10                     11                     12
                      A                      A                      A
 Frequencies --   1077.9100              1124.9589              1159.2731
 Red. masses --      1.7258                 1.9671                 2.0126
 Frc consts  --      1.1814                 1.4667                 1.5936
 IR Inten    --      3.0746                24.8830                50.3501

                     13                     14                     15
                      A                      A                      A
 Frequencies --   1182.4575              1279.2758              1397.6169
 Red. masses --      1.7650                 1.4730                 1.1747
 Frc consts  --      1.4540                 1.4203                 1.3520
 IR Inten    --     10.6229                 7.5597                 1.0371

                     16                     17                     18
                      A                      A                      A
 Frequencies --   1410.7991              1463.8402              1487.8836
 Red. masses --      1.2130                 1.1980                 1.2248
 Frc consts  --      1.4225                 1.5124                 1.5975
 IR Inten    --     36.0503                 2.5422                 6.5647

                     19                     20                     21
                      A                      A                      A
 Frequencies --   1504.0967              1515.3452              1530.7055
 Red. masses --      1.0533                 1.1018                 1.0583
 Frc consts  --      1.4040                 1.4907                 1.4610
 IR Inten    --      4.9871                 1.1781                 8.1952

                     22                     23                     24
                      A                      A                      A
 Frequencies --   1678.0125              2944.4648              2955.0874
 Red. masses --      1.0920                 1.0611                 1.0708
 Frc consts  --      1.8117                 5.4201                 5.5095
 IR Inten    --     18.1800                65.0017               118.7044

                     25                     26                     27
                      A                      A                      A
 Frequencies --   3068.1726              3071.0012              3117.1499
 Red. masses --      1.0917                 1.0746                 1.1012
 Frc consts  --      6.0548                 5.9714                 6.3039
 IR Inten    --     52.5645                31.3182                28.6864

                     28                     29                     30
                      A                      A                      A
 Frequencies --   3490.6399              3516.0116              3578.1778
 Red. masses --      1.0490                 1.0743                 1.0926
 Frc consts  --      7.5310                 7.8246                 8.2417
 IR Inten    --      0.5522                 1.9512                 0.3609

 - Thermochemistry -
 -------------------
 Temperature   298.150 Kelvin.  Pressure   1.00000 Atm.
 Atom     1 has atomic number  6 and mass  12.00000

 Molecular mass:    60.06875 amu.
 Principal axes and moments of inertia in atomic units:
                           1         2         3
     Eigenvalues --   114.58268 358.63840 413.34173
           X            0.99973  -0.01900   0.01303
           Y            0.01862   0.99943   0.02811
           Z           -0.01355  -0.02786   0.99952
 This molecule is an asymmetric top.
 Rotational symmetry number  1.
 Rotational temperatures (Kelvin)      0.75591     0.24151     0.20955
 Rotational constants (GHZ):          15.75056     5.03220     4.36622
 Zero-point vibrational energy     290707.7 (Joules/Mol)
                                   69.48080 (Kcal/Mol)
 Warning -- explicit consideration of   5 degrees of freedom as
           vibrations may cause significant error
 Vibrational temperatures:    201.79   321.67   445.31   558.28   714.43
          (Kelvin)           1109.09  1223.53  1327.22  1363.98  1550.87
                             1618.56  1667.93  1701.29  1840.59  2010.86
                             2029.82  2106.14  2140.73  2164.06  2180.24
                             2202.34  2414.28  4236.42  4251.71  4414.41
                             4418.48  4484.88  5022.25  5058.75  5148.19

 Zero-point correction=                           0.110725 (Hartree/Particle)
 Thermal correction to Energy=                    0.116087
 Thermal correction to Enthalpy=                  0.117031
 Thermal correction to Gibbs Free Energy=         0.083151
 Sum of electronic and zero-point Energies=           -190.415598
 Sum of electronic and thermal Energies=              -190.410235
 Sum of electronic and thermal Enthalpies=            -190.409291
 Sum of electronic and thermal Free Energies=         -190.443171

                     E (Thermal)             CV                S
                      KCal/Mol        Cal/Mol-Kelvin    Cal/Mol-Kelvin
 Total                   72.846             18.059             71.306
 Electronic               0.000              0.000              0.000
 Translational            0.889              2.981             38.199
 Rotational               0.889              2.981             24.344
 Vibrational             71.068             12.098              8.763
 Vibration     1          0.615              1.913              2.800
 Vibration     2          0.649              1.805              1.930
 Vibration     3          0.699              1.656              1.365
 Vibration     4          0.756              1.496              1.008
 Vibration     5          0.852              1.258              0.667

 Optimization completed.
    -- Stationary point found.
 Normal termination of Gaussian 09 at Fri Sep 10 19:27:50 2021.
