 Gaussian 09, Revision E.01,
 Gaussian 09:  ES64L-G09RevE.01 30-Nov-2015

 --------------------------------
 #P OPT=calcfc Freq B3LYP/6-31G**
 --------------------------------

 --------
 Frag_193
 --------
 Symbolic Z-matrix:
 Charge =  0 Multiplicity = 1

 SCF Done:  E(RB3LYP) =  -302.664533404     A.U. after   13 cycles
 SCF Done:  E(RB3LYP) =  -302.682068862     A.U. after   13 cycles
 SCF Done:  E(RB3LYP) =  -302.684612522     A.U. after   13 cycles
 SCF Done:  E(RB3LYP) =  -302.680488695     A.U. after   13 cycles
 SCF Done:  E(RB3LYP) =  -302.684878792     A.U. after   11 cycles
 SCF Done:  E(RB3LYP) =  -302.635324520     A.U. after   13 cycles
 SCF Done:  E(RB3LYP) =  -302.684906972     A.U. after    8 cycles
 SCF Done:  E(RB3LYP) =  -302.683708922     A.U. after   13 cycles
 SCF Done:  E(RB3LYP) =  -302.685102725     A.U. after   11 cycles
 SCF Done:  E(RB3LYP) =  -302.685156178     A.U. after   11 cycles
 SCF Done:  E(RB3LYP) =  -302.684899017     A.U. after   11 cycles
 SCF Done:  E(RB3LYP) =  -302.685213468     A.U. after    8 cycles
 SCF Done:  E(RB3LYP) =  -302.685278134     A.U. after    9 cycles
 SCF Done:  E(RB3LYP) =  -302.685289529     A.U. after    8 cycles
 SCF Done:  E(RB3LYP) =  -302.685290254     A.U. after    8 cycles
 Optimization completed.
    -- Stationary point found.
 Normal termination of Gaussian 09 at Sat Aug 21 02:20:26 2021.

 ----------------------------------------------------------------------
 #P Geom=AllCheck Guess=TCheck SCRF=Check GenChk RB3LYP/6-31G(d,p) Freq
 ----------------------------------------------------------------------

 Structure from the checkpoint file:  "/public/home/users/caep010/.cache/gau_scr/Gau-220897.chk"
 --------
 Frag_193
 --------
 Charge =  0 Multiplicity = 1

                         Standard orientation:
 ---------------------------------------------------------------------
 Center     Atomic      Atomic             Coordinates (Angstroms)
 Number     Number       Type             X           Y           Z
 ---------------------------------------------------------------------
      1          8           0       -2.090665    0.000009    0.000065
      2          6           0       -0.873538    0.000024   -0.000076
      3          7           0       -0.039146   -1.101774   -0.174419
      4          6           0        1.340456   -0.757931    0.146702
      5          6           0        1.340484    0.757982   -0.146641
      6          7           0       -0.039131    1.101717    0.174346
      7          1           0       -0.425289   -1.999356    0.080284
      8          1           0        2.056180   -1.299522   -0.477967
      9          1           0        1.583694   -0.946519    1.202837
     10          1           0        2.056145    1.299634    0.478049
     11          1           0        1.583800    0.946526   -1.202768
     12          1           0       -0.425681    1.999118   -0.080358
 ---------------------------------------------------------------------

 SCF Done:  E(RB3LYP) =  -302.685290254     A.U. after    1 cycles

 The electronic state is 1-A.
 Alpha  occ. eigenvalues --  -19.09905 -14.34969 -14.34967 -10.29876 -10.23613
 Alpha  occ. eigenvalues --  -10.23593  -1.03676  -0.95576  -0.87841  -0.74671
 Alpha  occ. eigenvalues --   -0.63508  -0.61436  -0.50728  -0.50702  -0.47458
 Alpha  occ. eigenvalues --   -0.43959  -0.40387  -0.40020  -0.39064  -0.38576
 Alpha  occ. eigenvalues --   -0.25834  -0.24827  -0.24589
 Alpha virt. eigenvalues --    0.06062   0.07595   0.10784   0.10807   0.13840
 Alpha virt. eigenvalues --    0.15341   0.16685   0.17995   0.19324   0.25984
 Alpha virt. eigenvalues --    0.27181   0.33243   0.40786   0.50759   0.52796

 Mulliken charges:
               1
     1  O   -0.525070
     2  C    0.712321
     3  N   -0.545239
     4  C   -0.044444
     5  C   -0.044417
     6  N   -0.545208
     7  H    0.266674
     8  H    0.115603
     9  H    0.113745
    10  H    0.115614
    11  H    0.113746
    12  H    0.266676
 Sum of Mulliken charges =  -0.00000

 Dipole moment (field-independent basis, Debye):
    X=              4.1022    Y=              0.0001    Z=             -0.0001  Tot=              4.1022
 Quadrupole moment (field-independent basis, Debye-Ang):
   XX=            -41.0877   YY=            -28.5115   ZZ=            -36.0153
   XY=             -0.0005   XZ=              0.0006   YZ=             -2.1708

  Exact polarizability:  55.668  -0.000  46.066  -0.000  -0.544  31.493
 Approx polarizability:  81.867  -0.000  64.121  -0.001   1.339  45.315

                      1                      2                      3
                      A                      A                      A
 Frequencies --    207.6107               239.7594               470.0782
 Red. masses --      4.5288                 1.9953                 2.9407
 Frc consts  --      0.1150                 0.0676                 0.3829
 IR Inten    --      9.3893                 1.7177                66.1240

                      4                      5                      6
                      A                      A                      A
 Frequencies --    530.5349               555.1240               694.5446
 Red. masses --      1.3941                 1.4474                 2.3244
 Frc consts  --      0.2312                 0.2628                 0.6606
 IR Inten    --    206.3227                 3.7398                31.6204

                      7                      8                      9
                      A                      A                      A
 Frequencies --    719.4059               762.0075               915.4951
 Red. masses --      4.1734                 9.8574                 1.5801
 Frc consts  --      1.2726                 3.3723                 0.7803
 IR Inten    --      7.8038                53.3442                 1.9044

                     10                     11                     12
                      A                      A                      A
 Frequencies --    935.9250               970.8591              1056.4505
 Red. masses --      3.1505                 2.8227                 2.0634
 Frc consts  --      1.6260                 1.5676                 1.3569
 IR Inten    --      0.3352                11.8685                14.8510

                     13                     14                     15
                      A                      A                      A
 Frequencies --   1107.8217              1132.3000              1222.0713
 Red. masses --      2.2130                 1.6578                 1.1297
 Frc consts  --      1.6002                 1.2523                 0.9941
 IR Inten    --     28.3166                 9.2682                 3.2208

                     16                     17                     18
                      A                      A                      A
 Frequencies --   1230.1421              1273.0732              1338.7588
 Red. masses --      1.2194                 2.5098                 1.4115
 Frc consts  --      1.0872                 2.3966                 1.4906
 IR Inten    --      0.1638               112.5981                42.7292

                     19                     20                     21
                      A                      A                      A
 Frequencies --   1376.0419              1443.9899              1445.0870
 Red. masses --      1.5444                 1.6195                 2.0665
 Frc consts  --      1.7229                 1.9896                 2.5425
 IR Inten    --      1.4009                 0.2421                82.0960

                     22                     23                     24
                      A                      A                      A
 Frequencies --   1537.5145              1544.2237              1857.1765
 Red. masses --      1.1210                 1.0975                 9.6088
 Frc consts  --      1.5613                 1.5419                19.5265
 IR Inten    --     12.3632                 8.4480               522.0575

                     25                     26                     27
                      A                      A                      A
 Frequencies --   3005.1050              3012.1097              3096.1958
 Red. masses --      1.0739                 1.0671                 1.0921
 Frc consts  --      5.7140                 5.7042                 6.1683
 IR Inten    --     40.8327                76.8859                38.0358

                     28                     29                     30
                      A                      A                      A
 Frequencies --   3101.9465              3646.6410              3646.7157
 Red. masses --      1.0991                 1.0784                 1.0769
 Frc consts  --      6.2311                 8.4496                 8.4379
 IR Inten    --     38.3583                 7.8949                51.8494

 - Thermochemistry -
 -------------------
 Temperature   298.150 Kelvin.  Pressure   1.00000 Atm.
 Atom     1 has atomic number  8 and mass  15.99491

 Molecular mass:    86.04801 amu.
 Principal axes and moments of inertia in atomic units:
                           1         2         3
     Eigenvalues --   235.00167 501.49474 702.74669
           X            1.00000  -0.00001   0.00000
           Y            0.00001   0.99971  -0.02390
           Z           -0.00000   0.02390   0.99971
 This molecule is an asymmetric top.
 Rotational symmetry number  1.
 Rotational temperatures (Kelvin)      0.36857     0.17271     0.12325
 Rotational constants (GHZ):           7.67970     3.59872     2.56812
 Zero-point vibrational energy     263625.3 (Joules/Mol)
                                   63.00796 (Kcal/Mol)
 Warning -- explicit consideration of   5 degrees of freedom as
           vibrations may cause significant error
 Vibrational temperatures:    298.71   344.96   676.34   763.32   798.70
          (Kelvin)            999.29  1035.06  1096.36  1317.19  1346.59
                             1396.85  1519.99  1593.91  1629.13  1758.29
                             1769.90  1831.67  1926.17  1979.81  2077.58
                             2079.16  2212.14  2221.79  2672.06  4323.67
                             4333.75  4454.73  4463.00  5246.70  5246.80

 Zero-point correction=                           0.100410 (Hartree/Particle)
 Thermal correction to Energy=                    0.105535
 Thermal correction to Enthalpy=                  0.106480
 Thermal correction to Gibbs Free Energy=         0.072033
 Sum of electronic and zero-point Energies=           -302.584881
 Sum of electronic and thermal Energies=              -302.579755
 Sum of electronic and thermal Enthalpies=            -302.578811
 Sum of electronic and thermal Free Energies=         -302.613257

                     E (Thermal)             CV                S
                      KCal/Mol        Cal/Mol-Kelvin    Cal/Mol-Kelvin
 Total                   66.224             18.850             72.499
 Electronic               0.000              0.000              0.000
 Translational            0.889              2.981             39.270
 Rotational               0.889              2.981             25.918
 Vibrational             64.447             12.888              7.310
 Vibration     1          0.641              1.829              2.065
 Vibration     2          0.657              1.780              1.805
 Vibration     3          0.827              1.316              0.737
 Vibration     4          0.885              1.182              0.586
 Vibration     5          0.911              1.128              0.534

 Optimization completed.
    -- Stationary point found.
 Normal termination of Gaussian 09 at Sat Aug 21 02:20:35 2021.
