 Gaussian 09, Revision E.01,
 Gaussian 09:  ES64L-G09RevE.01 30-Nov-2015

 ----------------------------
 #P OPT Freq B3LYP/6-31G(d,p)
 ----------------------------

 ---------
 Frag_1117
 ---------
 Symbolic Z-matrix:
 Charge =  0 Multiplicity = 1

 SCF Done:  E(RB3LYP) =  -300.326213066     A.U. after   16 cycles
 SCF Done:  E(RB3LYP) =  -300.326331697     A.U. after   11 cycles
 SCF Done:  E(RB3LYP) =  -300.326351785     A.U. after   10 cycles
 SCF Done:  E(RB3LYP) =  -300.326364558     A.U. after   11 cycles
 SCF Done:  E(RB3LYP) =  -300.326375446     A.U. after   10 cycles
 SCF Done:  E(RB3LYP) =  -300.326385958     A.U. after   12 cycles
 SCF Done:  E(RB3LYP) =  -300.326391726     A.U. after   10 cycles
 SCF Done:  E(RB3LYP) =  -300.326394836     A.U. after   10 cycles
 SCF Done:  E(RB3LYP) =  -300.326396598     A.U. after   10 cycles
 SCF Done:  E(RB3LYP) =  -300.326397441     A.U. after    9 cycles
 SCF Done:  E(RB3LYP) =  -300.326397776     A.U. after    9 cycles
 Optimization completed.
    -- Stationary point found.
 Normal termination of Gaussian 09 at Thu Sep  8 14:52:01 2022.

 ----------------------------------------------------------------------
 #P Geom=AllCheck Guess=TCheck SCRF=Check GenChk RB3LYP/6-31G(d,p) Freq
 ----------------------------------------------------------------------

 Structure from the checkpoint file:  "B3LYP6-31Gdp.Frag_1117.chk"
 ---------
 Frag_1117
 ---------
 Charge =  0 Multiplicity = 1

                         Standard orientation:
 ---------------------------------------------------------------------
 Center     Atomic      Atomic             Coordinates (Angstroms)
 Number     Number       Type             X           Y           Z
 ---------------------------------------------------------------------
      1          6           0       -0.463853    1.387382    0.018959
      2          7           0       -0.337146   -0.049537   -0.179793
      3          8           0       -1.476279   -0.781304    0.158906
      4          7           0        0.802101   -0.745246    0.031272
      5          8           0        1.819610   -0.065252    0.016214
      6          1           0        0.531898    1.811411   -0.104856
      7          1           0       -1.149273    1.800850   -0.723341
      8          1           0       -0.842563    1.593905    1.025326
      9          1           0       -1.758279   -1.194526   -0.672196
 ---------------------------------------------------------------------

 SCF Done:  E(RB3LYP) =  -300.326397776     A.U. after    1 cycles

 The electronic state is 1-A.
 Alpha  occ. eigenvalues --  -19.21684 -19.17395 -14.46370 -14.45192 -10.23620
 Alpha  occ. eigenvalues --   -1.16566  -1.10101  -0.89867  -0.76620  -0.62742
 Alpha  occ. eigenvalues --   -0.55251  -0.51773  -0.50821  -0.43909  -0.42710
 Alpha  occ. eigenvalues --   -0.42161  -0.40081  -0.34202  -0.27137  -0.23612
 Alpha virt. eigenvalues --   -0.04950   0.04972   0.10274   0.12497   0.14873
 Alpha virt. eigenvalues --    0.15983   0.18345   0.27052   0.33768   0.51504
 Alpha virt. eigenvalues --    0.52321   0.53728   0.63272   0.65528   0.68001

 Mulliken charges:
               1
     1  C   -0.178731
     2  N   -0.039706
     3  O   -0.395112
     4  N    0.173526
     5  O   -0.348981
     6  H    0.165317
     7  H    0.133688
     8  H    0.145497
     9  H    0.344503
 Sum of Mulliken charges =  -0.00000

 Dipole moment (field-independent basis, Debye):
    X=             -2.9375    Y=              1.2845    Z=             -1.3107  Tot=              3.4636
 Quadrupole moment (field-independent basis, Debye-Ang):
   XX=            -31.6024   YY=            -26.5144   ZZ=            -27.3376
   XY=              1.5547   XZ=              2.6245   YZ=              2.0862

  Exact polarizability:  45.704  -0.355  32.671   1.600   0.643  22.730
 Approx polarizability:  82.955   1.326  43.954   3.899   0.206  32.722

                      1                      2                      3
                      A                      A                      A
 Frequencies --    100.0532               210.4599               230.2544
 Red. masses --      1.1292                 2.7084                 1.3696
 Frc consts  --      0.0067                 0.0707                 0.0428
 IR Inten    --      0.2137                 3.7539               104.2604

                      4                      5                      6
                      A                      A                      A
 Frequencies --    345.1507               352.7719               443.2379
 Red. masses --      4.7405                 4.0782                 5.3811
 Frc consts  --      0.3327                 0.2990                 0.6229
 IR Inten    --      7.1338                 9.9037                 9.1101

                      7                      8                      9
                      A                      A                      A
 Frequencies --    675.1908               826.1711              1004.5644
 Red. masses --      7.4022                 5.2561                 2.5970
 Frc consts  --      1.9882                 2.1138                 1.5441
 IR Inten    --      7.9342                33.4024                65.9384

                     10                     11                     12
                      A                      A                      A
 Frequencies --   1133.1116              1206.8381              1262.8310
 Red. masses --      1.3289                 4.9271                 2.6179
 Frc consts  --      1.0053                 4.2281                 2.4597
 IR Inten    --     13.7458               192.0435                 7.1994

                     13                     14                     15
                      A                      A                      A
 Frequencies --   1416.5417              1422.6182              1497.3431
 Red. masses --      1.1997                 1.2408                 1.0461
 Frc consts  --      1.4184                 1.4795                 1.3819
 IR Inten    --      2.2125                30.7262                11.1593

                     16                     17                     18
                      A                      A                      A
 Frequencies --   1510.1162              1593.5805              3058.8272
 Red. masses --      1.0591                12.4763                 1.0357
 Frc consts  --      1.4230                18.6674                 5.7097
 IR Inten    --      6.8269               136.0209                20.4049

                     19                     20                     21
                      A                      A                      A
 Frequencies --   3136.7588              3186.1160              3759.7884
 Red. masses --      1.1027                 1.1022                 1.0682
 Frc consts  --      6.3927                 6.5922                 8.8971
 IR Inten    --     15.7819                 0.1027                45.7976

 - Thermochemistry -
 -------------------
 Temperature   298.150 Kelvin.  Pressure   1.00000 Atm.
 Atom     1 has atomic number  6 and mass  12.00000

 Molecular mass:    76.02728 amu.
 Principal axes and moments of inertia in atomic units:
                           1         2         3
     Eigenvalues --   192.90761 390.07177 562.26489
           X            0.99990  -0.00954   0.01058
           Y            0.00934   0.99978   0.01880
           Z           -0.01075  -0.01870   0.99977
 This molecule is an asymmetric top.
 Rotational symmetry number  1.
 Rotational temperatures (Kelvin)      0.44899     0.22205     0.15404
 Rotational constants (GHZ):           9.35547     4.62669     3.20977
 Zero-point vibrational energy     169704.2 (Joules/Mol)
                                   40.56027 (Kcal/Mol)
 Warning -- explicit consideration of   6 degrees of freedom as
           vibrations may cause significant error
 Vibrational temperatures:    143.95   302.80   331.28   496.59   507.56
          (Kelvin)            637.72   971.45  1188.67  1445.34  1630.29
                             1736.37  1816.93  2038.09  2046.83  2154.34
                             2172.72  2292.80  4400.96  4513.09  4584.10
                             5409.49

 Zero-point correction=                           0.064637 (Hartree/Particle)
 Thermal correction to Energy=                    0.070566
 Thermal correction to Enthalpy=                  0.071510
 Thermal correction to Gibbs Free Energy=         0.035644
 Sum of electronic and zero-point Energies=           -300.261761
 Sum of electronic and thermal Energies=              -300.255832
 Sum of electronic and thermal Enthalpies=            -300.254887
 Sum of electronic and thermal Free Energies=         -300.290754

                     E (Thermal)             CV                S
                      KCal/Mol        Cal/Mol-Kelvin    Cal/Mol-Kelvin
 Total                   44.281             18.940             75.487
 Electronic               0.000              0.000              0.000
 Translational            0.889              2.981             38.901
 Rotational               0.889              2.981             25.251
 Vibrational             42.504             12.978             11.335
 Vibration     1          0.604              1.949              3.453
 Vibration     2          0.643              1.825              2.040
 Vibration     3          0.652              1.795              1.877
 Vibration     4          0.724              1.585              1.188
 Vibration     5          0.729              1.570              1.154
 Vibration     6          0.803              1.376              0.816

 Optimization completed.
    -- Stationary point found.
 Normal termination of Gaussian 09 at Thu Sep  8 14:52:09 2022.
