 Gaussian 09, Revision E.01,
 Gaussian 09:  ES64L-G09RevE.01 30-Nov-2015

 ----------------------------
 #P OPT Freq B3LYP/6-31G(d,p)
 ----------------------------

 --------
 Frag_559
 --------
 Symbolic Z-matrix:
 Charge =  0 Multiplicity = 1

 SCF Done:  E(RB3LYP) =  -228.627429553     A.U. after   13 cycles
 SCF Done:  E(RB3LYP) =  -228.627469696     A.U. after   10 cycles
 SCF Done:  E(RB3LYP) =  -228.627473238     A.U. after    9 cycles
 SCF Done:  E(RB3LYP) =  -228.627474223     A.U. after    8 cycles
 SCF Done:  E(RB3LYP) =  -228.627474886     A.U. after    8 cycles
 SCF Done:  E(RB3LYP) =  -228.627475186     A.U. after    8 cycles
 SCF Done:  E(RB3LYP) =  -228.627475299     A.U. after    7 cycles
 SCF Done:  E(RB3LYP) =  -228.627475442     A.U. after    7 cycles
 SCF Done:  E(RB3LYP) =  -228.627475544     A.U. after    7 cycles
 Optimization completed.
    -- Stationary point found.
 Normal termination of Gaussian 09 at Thu Sep  8 15:23:29 2022.

 ----------------------------------------------------------------------
 #P Geom=AllCheck Guess=TCheck SCRF=Check GenChk RB3LYP/6-31G(d,p) Freq
 ----------------------------------------------------------------------

 Structure from the checkpoint file:  "B3LYP6-31Gdp.Frag_559.chk"
 --------
 Frag_559
 --------
 Charge =  0 Multiplicity = 1

                         Standard orientation:
 ---------------------------------------------------------------------
 Center     Atomic      Atomic             Coordinates (Angstroms)
 Number     Number       Type             X           Y           Z
 ---------------------------------------------------------------------
      1          6           0       -0.817923    1.342800    0.056637
      2          6           0       -0.610214   -0.154095    0.037249
      3          7           0       -1.507942   -1.034601   -0.179287
      4          6           0        0.799708   -0.646424    0.331752
      5          7           0        1.827851    0.164607   -0.338491
      6          1           0       -1.860711    1.604987   -0.141043
      7          1           0       -0.180258    1.813103   -0.698940
      8          1           0       -0.532220    1.764350    1.029215
      9          1           0       -2.418150   -0.584597   -0.326823
     10          1           0        0.857907   -1.675240   -0.029792
     11          1           0        0.917583   -0.688173    1.430456
     12          1           0        2.062556    0.977515    0.225610
     13          1           0        2.684505   -0.375678   -0.418067
 ---------------------------------------------------------------------

 SCF Done:  E(RB3LYP) =  -228.627475544     A.U. after    1 cycles

 The electronic state is 1-A.
 Alpha  occ. eigenvalues --  -14.31842 -14.30499 -10.22864 -10.20974 -10.18696
 Alpha  occ. eigenvalues --   -0.90348  -0.87133  -0.72825  -0.67834  -0.53480
 Alpha  occ. eigenvalues --   -0.49602  -0.46622  -0.44844  -0.42359  -0.41077
 Alpha  occ. eigenvalues --   -0.37991  -0.35623  -0.29186  -0.25774  -0.23392
 Alpha virt. eigenvalues --    0.01345   0.07371   0.10622   0.12594   0.15041
 Alpha virt. eigenvalues --    0.15330   0.16771   0.17896   0.20917   0.22973
 Alpha virt. eigenvalues --    0.26005   0.29163   0.42047   0.51679   0.54976

 Mulliken charges:
               1
     1  C   -0.376300
     2  C    0.311373
     3  N   -0.521495
     4  C   -0.107432
     5  N   -0.604563
     6  H    0.108246
     7  H    0.149009
     8  H    0.114828
     9  H    0.213619
    10  H    0.133032
    11  H    0.095788
    12  H    0.237880
    13  H    0.246017
 Sum of Mulliken charges =  -0.00000

 Dipole moment (field-independent basis, Debye):
    X=              1.2296    Y=              1.9075    Z=              1.3406  Tot=              2.6359
 Quadrupole moment (field-independent basis, Debye-Ang):
   XX=            -26.1425   YY=            -33.3884   ZZ=            -33.0287
   XY=             -3.7258   XZ=              2.0267   YZ=              0.6410

  Exact polarizability:  55.002   3.176  47.696   2.186   1.625  33.297
 Approx polarizability:  72.627  10.063  68.302   3.603   3.877  47.870

                      1                      2                      3
                      A                      A                      A
 Frequencies --     79.3938               153.4033               192.6116
 Red. masses --      2.4567                 1.0579                 1.0681
 Frc consts  --      0.0091                 0.0147                 0.0233
 IR Inten    --      1.5862                27.9593                25.4967

                      4                      5                      6
                      A                      A                      A
 Frequencies --    270.5983               405.9945               489.5321
 Red. masses --      3.0036                 2.2714                 3.0845
 Frc consts  --      0.1296                 0.2206                 0.4355
 IR Inten    --      9.4019                 1.4374                15.5655

                      7                      8                      9
                      A                      A                      A
 Frequencies --    560.1205               771.8881               829.5859
 Red. masses --      2.8345                 2.6118                 1.2959
 Frc consts  --      0.5239                 0.9168                 0.5255
 IR Inten    --      5.5338                16.1730                55.7248

                     10                     11                     12
                      A                      A                      A
 Frequencies --    855.0003               992.0041              1007.0450
 Red. masses --      1.2918                 1.6257                 1.4285
 Frc consts  --      0.5564                 0.9426                 0.8535
 IR Inten    --     51.3157                 2.5637                79.4571

                     13                     14                     15
                      A                      A                      A
 Frequencies --   1067.2680              1080.7283              1136.8439
 Red. masses --      2.1432                 1.6199                 1.7266
 Frc consts  --      1.4383                 1.1147                 1.3148
 IR Inten    --     29.8396                 6.8791                18.7312

                     16                     17                     18
                      A                      A                      A
 Frequencies --   1194.1244              1328.4024              1368.1881
 Red. masses --      1.2761                 1.2008                 1.3793
 Frc consts  --      1.0721                 1.2485                 1.5213
 IR Inten    --      7.0497                10.6794                20.3959

                     19                     20                     21
                      A                      A                      A
 Frequencies --   1408.6640              1422.9585              1483.6654
 Red. masses --      1.2930                 1.8912                 1.0545
 Frc consts  --      1.5116                 2.2562                 1.3676
 IR Inten    --     14.8811                57.1602                 6.8948

                     22                     23                     24
                      A                      A                      A
 Frequencies --   1496.2351              1503.6582              1669.2474
 Red. masses --      1.0704                 1.0707                 1.0889
 Frc consts  --      1.4119                 1.4264                 1.7876
 IR Inten    --      3.3457                25.7334                21.4151

                     25                     26                     27
                      A                      A                      A
 Frequencies --   1740.7583              2943.6387              3033.9435
 Red. masses --      8.1763                 1.0730                 1.0394
 Frc consts  --     14.5977                 5.4782                 5.6369
 IR Inten    --     61.2925                62.3580                12.2614

                     28                     29                     30
                      A                      A                      A
 Frequencies --   3102.0679              3123.0189              3133.8542
 Red. masses --      1.0952                 1.0895                 1.1038
 Frc consts  --      6.2092                 6.2607                 6.3872
 IR Inten    --     13.4998                10.9071                14.7882

                     31                     32                     33
                      A                      A                      A
 Frequencies --   3416.2998              3502.0703              3586.0477
 Red. masses --      1.0743                 1.0504                 1.0924
 Frc consts  --      7.3876                 7.5902                 8.2767
 IR Inten    --     13.8945                 0.6282                 0.1291

 - Thermochemistry -
 -------------------
 Temperature   298.150 Kelvin.  Pressure   1.00000 Atm.
 Atom     1 has atomic number  6 and mass  12.00000

 Molecular mass:    72.06875 amu.
 Principal axes and moments of inertia in atomic units:
                           1         2         3
     Eigenvalues --   225.52795 461.45419 634.28329
           X            0.99826  -0.05783   0.01119
           Y            0.05785   0.99833  -0.00092
           Z           -0.01112   0.00157   0.99994
 This molecule is an asymmetric top.
 Rotational symmetry number  1.
 Rotational temperatures (Kelvin)      0.38405     0.18770     0.13655
 Rotational constants (GHZ):           8.00230     3.91099     2.84532
 Zero-point vibrational energy     301153.1 (Joules/Mol)
                                   71.97731 (Kcal/Mol)
 Warning -- explicit consideration of   7 degrees of freedom as
           vibrations may cause significant error
 Vibrational temperatures:    114.23   220.71   277.12   389.33   584.13
          (Kelvin)            704.33   805.89  1110.57  1193.59  1230.15
                             1427.27  1448.91  1535.56  1554.93  1635.66
                             1718.08  1911.27  1968.51  2026.75  2047.32
                             2134.66  2152.75  2163.43  2401.67  2504.56
                             4235.23  4365.16  4463.18  4493.32  4508.91
                             4915.29  5038.69  5159.52

 Zero-point correction=                           0.114703 (Hartree/Particle)
 Thermal correction to Energy=                    0.121138
 Thermal correction to Enthalpy=                  0.122082
 Thermal correction to Gibbs Free Energy=         0.085001
 Sum of electronic and zero-point Energies=           -228.512772
 Sum of electronic and thermal Energies=              -228.506337
 Sum of electronic and thermal Enthalpies=            -228.505393
 Sum of electronic and thermal Free Energies=         -228.542475

                     E (Thermal)             CV                S
                      KCal/Mol        Cal/Mol-Kelvin    Cal/Mol-Kelvin
 Total                   76.015             21.691             78.044
 Electronic               0.000              0.000              0.000
 Translational            0.889              2.981             38.742
 Rotational               0.889              2.981             25.693
 Vibrational             74.238             15.729             13.609
 Vibration     1          0.600              1.963              3.906
 Vibration     2          0.619              1.899              2.630
 Vibration     3          0.635              1.850              2.203
 Vibration     4          0.674              1.727              1.592
 Vibration     5          0.771              1.457              0.941
 Vibration     6          0.845              1.273              0.685
 Vibration     7          0.916              1.118              0.524

 Optimization completed.
    -- Stationary point found.
 Normal termination of Gaussian 09 at Thu Sep  8 15:23:38 2022.
