 Gaussian 09, Revision E.01,
 Gaussian 09:  ES64L-G09RevE.01 30-Nov-2015

 ----------------------------
 #P OPT Freq B3LYP/6-31G(d,p)
 ----------------------------

 --------
 Frag_869
 --------
 Symbolic Z-matrix:
 Charge =  0 Multiplicity = 1

 SCF Done:  E(RB3LYP) =  -303.798999582     A.U. after   14 cycles
 SCF Done:  E(RB3LYP) =  -303.799082695     A.U. after    9 cycles
 SCF Done:  E(RB3LYP) =  -303.799085975     A.U. after    8 cycles
 SCF Done:  E(RB3LYP) =  -303.799083037     A.U. after    9 cycles
 SCF Done:  E(RB3LYP) =  -303.799086574     A.U. after    9 cycles
 Optimization completed.
    -- Stationary point found.
 Normal termination of Gaussian 09 at Thu Sep  8 14:56:12 2022.

 ----------------------------------------------------------------------
 #P Geom=AllCheck Guess=TCheck SCRF=Check GenChk RB3LYP/6-31G(d,p) Freq
 ----------------------------------------------------------------------

 Structure from the checkpoint file:  "B3LYP6-31Gdp.Frag_869.chk"
 --------
 Frag_869
 --------
 Charge =  0 Multiplicity = 1

                         Standard orientation:
 ---------------------------------------------------------------------
 Center     Atomic      Atomic             Coordinates (Angstroms)
 Number     Number       Type             X           Y           Z
 ---------------------------------------------------------------------
      1          6           0        1.285392   -1.275583    0.014387
      2          6           0        0.607183   -0.000006   -0.480860
      3          6           0        1.285319    1.275622    0.014357
      4          7           0       -0.821611   -0.000034    0.011126
      5          7           0       -1.716975   -0.000027   -0.889721
      6          8           0       -0.995735    0.000015    1.249588
      7          1           0        2.318042   -1.301035   -0.344689
      8          1           0        0.770683   -2.165593   -0.358566
      9          1           0        1.289177   -1.302374    1.106322
     10          1           0        0.519960   -0.000020   -1.568301
     11          1           0        1.289103    1.302438    1.106291
     12          1           0        0.770559    2.165594   -0.358617
     13          1           0        2.317968    1.301125   -0.344718
     14          1           0       -2.606879   -0.000023   -0.371557
 ---------------------------------------------------------------------

 SCF Done:  E(RB3LYP) =  -303.799086574     A.U. after    1 cycles

 The electronic state is 1-A.
 Alpha  occ. eigenvalues --  -19.15169 -14.51849 -14.35985 -10.24607 -10.19333
 Alpha  occ. eigenvalues --  -10.19332  -1.15583  -0.95035  -0.83174  -0.70621
 Alpha  occ. eigenvalues --   -0.69263  -0.57016  -0.52859  -0.49789  -0.49579
 Alpha  occ. eigenvalues --   -0.45972  -0.41100  -0.40662  -0.39689  -0.36204
 Alpha  occ. eigenvalues --   -0.36141  -0.31944  -0.26658  -0.26478
 Alpha virt. eigenvalues --   -0.03886   0.08894   0.10849   0.12607   0.13850
 Alpha virt. eigenvalues --    0.14369   0.16586   0.17479   0.18071   0.18314
 Alpha virt. eigenvalues --    0.20449   0.24692   0.27508   0.36307   0.48244

 Mulliken charges:
               1
     1  C   -0.316647
     2  C    0.042147
     3  C   -0.316645
     4  N    0.225254
     5  N   -0.325776
     6  O   -0.448767
     7  H    0.115701
     8  H    0.122864
     9  H    0.140713
    10  H    0.133155
    11  H    0.140714
    12  H    0.122864
    13  H    0.115701
    14  H    0.248722
 Sum of Mulliken charges =  -0.00000

 Dipole moment (field-independent basis, Debye):
    X=              1.7171    Y=             -0.0000    Z=             -0.8899  Tot=              1.9340
 Quadrupole moment (field-independent basis, Debye-Ang):
   XX=            -33.5303   YY=            -35.5622   ZZ=            -41.6653
   XY=              0.0000   XZ=             -0.4218   YZ=             -0.0001

  Exact polarizability:  58.751   0.000  41.904   3.849   0.000  50.944
 Approx polarizability:  78.335   0.000  53.781  13.017   0.001 100.560

                      1                      2                      3
                      A                      A                      A
 Frequencies --     60.0281               211.1725               245.4869
 Red. masses --      4.6569                 1.0490                 1.0594
 Frc consts  --      0.0099                 0.0276                 0.0376
 IR Inten    --      0.4525                 0.0047                 0.6620

                      4                      5                      6
                      A                      A                      A
 Frequencies --    267.1543               308.4252               340.8964
 Red. masses --      2.7683                 3.2617                 2.6475
 Frc consts  --      0.1164                 0.1828                 0.1813
 IR Inten    --      0.8021                 3.3426                 1.2858

                      7                      8                      9
                      A                      A                      A
 Frequencies --    535.3139               626.8207               700.5347
 Red. masses --      3.6247                 2.8516                 3.4538
 Frc consts  --      0.6120                 0.6601                 0.9986
 IR Inten    --     17.9311                12.9333                 6.9527

                     10                     11                     12
                      A                      A                      A
 Frequencies --    798.9323               914.7666               935.4265
 Red. masses --      3.0886                 2.4391                 1.3557
 Frc consts  --      1.1615                 1.2025                 0.6989
 IR Inten    --     24.0185                 1.3741                69.7113

                     13                     14                     15
                      A                      A                      A
 Frequencies --    949.8218               966.9860              1126.3229
 Red. masses --      1.1675                 1.5038                 1.5469
 Frc consts  --      0.6206                 0.8285                 1.1562
 IR Inten    --      4.0796                 0.9843                20.4885

                     16                     17                     18
                      A                      A                      A
 Frequencies --   1154.9060              1208.7328              1279.6681
 Red. masses --      2.1206                 1.8963                 3.2824
 Frc consts  --      1.6665                 1.6324                 3.1670
 IR Inten    --      6.7073                 3.4216                20.3686

                     19                     20                     21
                      A                      A                      A
 Frequencies --   1340.5184              1370.0227              1410.6556
 Red. masses --      1.3959                 1.3600                 1.3017
 Frc consts  --      1.4779                 1.5040                 1.5262
 IR Inten    --     38.9009                 2.6899                 9.8142

                     22                     23                     24
                      A                      A                      A
 Frequencies --   1425.7103              1494.4999              1505.7206
 Red. masses --      1.2278                 1.0438                 1.0458
 Frc consts  --      1.4704                 1.3735                 1.3969
 IR Inten    --     19.5791                 0.9867                 0.2822

                     25                     26                     27
                      A                      A                      A
 Frequencies --   1508.7580              1521.2742              1534.6691
 Red. masses --      1.0531                 1.3813                 1.3302
 Frc consts  --      1.4124                 1.8834                 1.8459
 IR Inten    --     14.2730                 6.6320                18.6916

                     28                     29                     30
                      A                      A                      A
 Frequencies --   1619.6472              3059.3519              3062.7414
 Red. masses --      7.8321                 1.0346                 1.0355
 Frc consts  --     12.1051                 5.7053                 5.7227
 IR Inten    --    201.1480                17.6402                 8.1001

                     31                     32                     33
                      A                      A                      A
 Frequencies --   3124.5387              3133.3652              3135.9945
 Red. masses --      1.0889                 1.1033                 1.1030
 Frc consts  --      6.2637                 6.3821                 6.3911
 IR Inten    --      0.5580                11.7431                22.4894

                     34                     35                     36
                      A                      A                      A
 Frequencies --   3150.3416              3158.3483              3395.2852
 Red. masses --      1.1037                 1.1007                 1.0710
 Frc consts  --      6.4540                 6.4692                 7.2744
 IR Inten    --      2.5494                18.5862                 1.0284

 - Thermochemistry -
 -------------------
 Temperature   298.150 Kelvin.  Pressure   1.00000 Atm.
 Atom     1 has atomic number  6 and mass  12.00000

 Molecular mass:    88.06366 amu.
 Principal axes and moments of inertia in atomic units:
                           1         2         3
     Eigenvalues --   356.18145 632.36569 671.40134
           X            0.99996  -0.00000   0.00853
           Y            0.00000   1.00000  -0.00001
           Z           -0.00853   0.00001   0.99996
 This molecule is an asymmetric top.
 Rotational symmetry number  1.
 Rotational temperatures (Kelvin)      0.24317     0.13697     0.12900
 Rotational constants (GHZ):           5.06692     2.85395     2.68802
 Zero-point vibrational energy     314515.2 (Joules/Mol)
                                   75.17094 (Kcal/Mol)
 Warning -- explicit consideration of   7 degrees of freedom as
           vibrations may cause significant error
 Vibrational temperatures:     86.37   303.83   353.20   384.37   443.75
          (Kelvin)            490.47   770.20   901.85  1007.91  1149.48
                             1316.14  1345.87  1366.58  1391.28  1620.53
                             1661.65  1739.09  1841.15  1928.70  1971.15
                             2029.62  2051.28  2150.25  2166.39  2170.76
                             2188.77  2208.04  2330.31  4401.72  4406.60
                             4495.51  4508.21  4511.99  4532.63  4544.15
                             4885.05

 Zero-point correction=                           0.119793 (Hartree/Particle)
 Thermal correction to Energy=                    0.126569
 Thermal correction to Enthalpy=                  0.127513
 Thermal correction to Gibbs Free Energy=         0.089225
 Sum of electronic and zero-point Energies=           -303.679294
 Sum of electronic and thermal Energies=              -303.672517
 Sum of electronic and thermal Enthalpies=            -303.671573
 Sum of electronic and thermal Free Energies=         -303.709862

                     E (Thermal)             CV                S
                      KCal/Mol        Cal/Mol-Kelvin    Cal/Mol-Kelvin
 Total                   79.423             23.632             80.586
 Electronic               0.000              0.000              0.000
 Translational            0.889              2.981             39.339
 Rotational               0.889              2.981             26.517
 Vibrational             77.646             17.670             14.730
 Vibration     1          0.597              1.973              4.456
 Vibration     2          0.643              1.824              2.034
 Vibration     3          0.660              1.770              1.763
 Vibration     4          0.672              1.733              1.615
 Vibration     5          0.698              1.658              1.371
 Vibration     6          0.720              1.594              1.208
 Vibration     7          0.890              1.172              0.575

 Optimization completed.
    -- Stationary point found.
 Normal termination of Gaussian 09 at Thu Sep  8 14:56:23 2022.
