 Gaussian 09, Revision E.01,
 Gaussian 09:  ES64L-G09RevE.01 30-Nov-2015

 ----------------------------
 #P OPT Freq B3LYP/6-31G(d,p)
 ----------------------------

 ---------
 Frag_1108
 ---------
 Symbolic Z-matrix:
 Charge =  0 Multiplicity = 1

 SCF Done:  E(RB3LYP) =  -395.157710805     A.U. after   14 cycles
 SCF Done:  E(RB3LYP) =  -395.157831362     A.U. after   11 cycles
 SCF Done:  E(RB3LYP) =  -395.157820407     A.U. after   10 cycles
 SCF Done:  E(RB3LYP) =  -395.157840381     A.U. after   11 cycles
 SCF Done:  E(RB3LYP) =  -395.157843597     A.U. after    9 cycles
 SCF Done:  E(RB3LYP) =  -395.157844811     A.U. after    8 cycles
 SCF Done:  E(RB3LYP) =  -395.157845352     A.U. after    7 cycles
 SCF Done:  E(RB3LYP) =  -395.157845841     A.U. after    8 cycles
 Optimization completed.
    -- Stationary point found.
 Normal termination of Gaussian 09 at Thu Sep  8 14:53:39 2022.

 ----------------------------------------------------------------------
 #P Geom=AllCheck Guess=TCheck SCRF=Check GenChk RB3LYP/6-31G(d,p) Freq
 ----------------------------------------------------------------------

 Structure from the checkpoint file:  "B3LYP6-31Gdp.Frag_1108.chk"
 ---------
 Frag_1108
 ---------
 Charge =  0 Multiplicity = 1

                         Standard orientation:
 ---------------------------------------------------------------------
 Center     Atomic      Atomic             Coordinates (Angstroms)
 Number     Number       Type             X           Y           Z
 ---------------------------------------------------------------------
      1          7           0        1.607621    1.087310    0.083609
      2          6           0        0.962395   -0.087655    0.000312
      3          8           0        1.489780   -1.198400   -0.060476
      4          6           0       -0.590543    0.005654   -0.004549
      5          7           0       -1.034108   -0.371300    1.325178
      6          7           0       -1.057584    1.349526   -0.300234
      7          8           0       -1.038275   -0.868010   -1.035039
      8          1           0        1.047483    1.929209    0.069573
      9          1           0        2.615132    1.108468    0.089785
     10          1           0       -0.512890   -1.195469    1.617703
     11          1           0       -2.010330   -0.656931    1.254395
     12          1           0       -1.369711    1.383714   -1.266163
     13          1           0       -1.833128    1.590705    0.307624
     14          1           0       -0.391206   -1.595162   -1.043242
 ---------------------------------------------------------------------

 SCF Done:  E(RB3LYP) =  -395.157845841     A.U. after    1 cycles

 The electronic state is 1-A.
 Alpha  occ. eigenvalues --  -19.14371 -19.11824 -14.35848 -14.32868 -14.32321
 Alpha  occ. eigenvalues --  -10.29754 -10.28634  -1.05297  -1.01555  -0.91948
 Alpha  occ. eigenvalues --   -0.89709  -0.85257  -0.66881  -0.58005  -0.55511
 Alpha  occ. eigenvalues --   -0.52924  -0.51770  -0.46885  -0.45774  -0.43225
 Alpha  occ. eigenvalues --   -0.41546  -0.38970  -0.35658  -0.31513  -0.29019
 Alpha  occ. eigenvalues --   -0.27086  -0.25266  -0.23869
 Alpha virt. eigenvalues --    0.02392   0.07365   0.09994   0.12195   0.13576
 Alpha virt. eigenvalues --    0.14333   0.15550   0.16718   0.22999   0.25440
 Alpha virt. eigenvalues --    0.26090   0.30399   0.34001   0.40494   0.55095

 Mulliken charges:
               1
     1  N   -0.597886
     2  C    0.574455
     3  O   -0.541635
     4  C    0.414612
     5  N   -0.583937
     6  N   -0.622041
     7  O   -0.550724
     8  H    0.299550
     9  H    0.276149
    10  H    0.254530
    11  H    0.242694
    12  H    0.262071
    13  H    0.256428
    14  H    0.315736
 Sum of Mulliken charges =  -0.00000

 Dipole moment (field-independent basis, Debye):
    X=             -0.8305    Y=              1.9546    Z=              0.1013  Tot=              2.1261
 Quadrupole moment (field-independent basis, Debye-Ang):
   XX=            -36.2607   YY=            -38.4900   ZZ=            -42.7687
   XY=              4.3286   XZ=             -1.0847   YZ=             -2.6241

  Exact polarizability:  51.169  -0.218  52.019  -0.361  -0.336  37.008
 Approx polarizability:  66.901  -3.521  81.635   0.727   1.670  52.883

                      1                      2                      3
                      A                      A                      A
 Frequencies --     46.2136               193.9789               253.0872
 Red. masses --      4.8373                 1.1905                 3.6473
 Frc consts  --      0.0061                 0.0264                 0.1376
 IR Inten    --      3.2986                 3.1996                 3.8675

                      4                      5                      6
                      A                      A                      A
 Frequencies --    288.5373               329.6446               377.3927
 Red. masses --      4.2506                 1.1021                 3.4619
 Frc consts  --      0.2085                 0.0706                 0.2905
 IR Inten    --     21.4960                51.5606                 3.8947

                      7                      8                      9
                      A                      A                      A
 Frequencies --    399.4346               418.0096               479.7337
 Red. masses --      1.4491                 3.2097                 2.8482
 Frc consts  --      0.1362                 0.3304                 0.3862
 IR Inten    --    147.6207                22.2739                69.0900

                     10                     11                     12
                      A                      A                      A
 Frequencies --    547.2345               564.0006               613.1651
 Red. masses --      1.7202                 1.6255                 3.1096
 Frc consts  --      0.3035                 0.3046                 0.6888
 IR Inten    --     18.2802               125.7074                38.9595

                     13                     14                     15
                      A                      A                      A
 Frequencies --    700.1187               745.4015               789.4750
 Red. masses --      1.1966                 3.0599                 4.4199
 Frc consts  --      0.3456                 1.0017                 1.6231
 IR Inten    --     20.4236                23.6955                26.6234

                     16                     17                     18
                      A                      A                      A
 Frequencies --    853.5840               898.2768              1005.0047
 Red. masses --      1.6802                 1.7929                 2.8095
 Frc consts  --      0.7213                 0.8524                 1.6719
 IR Inten    --    134.8932               109.4871               119.0324

                     19                     20                     21
                      A                      A                      A
 Frequencies --   1030.7723              1112.7128              1190.1106
 Red. masses --      1.7032                 1.9005                 2.6555
 Frc consts  --      1.0662                 1.3864                 2.2160
 IR Inten    --     14.0548                 5.2479               226.4244

                     22                     23                     24
                      A                      A                      A
 Frequencies --   1239.6876              1322.1720              1366.7525
 Red. masses --      1.3196                 1.7760                 2.2033
 Frc consts  --      1.1948                 1.8293                 2.4249
 IR Inten    --      1.8384                52.7776                95.3773

                     25                     26                     27
                      A                      A                      A
 Frequencies --   1477.0857              1585.2736              1636.4181
 Red. masses --      2.1665                 1.4464                 1.1215
 Frc consts  --      2.7849                 2.1416                 1.7694
 IR Inten    --     43.2416               138.8676                53.6304

                     28                     29                     30
                      A                      A                      A
 Frequencies --   1673.8925              1791.7307              3480.4439
 Red. masses --      1.1138                 8.7432                 1.0503
 Frc consts  --      1.8388                16.5374                 7.4959
 IR Inten    --     63.9720               282.8633                 1.2323

                     31                     32                     33
                      A                      A                      A
 Frequencies --   3524.7173              3567.1408              3570.8145
 Red. masses --      1.0488                 1.0905                 1.0455
 Frc consts  --      7.6767                 8.1757                 7.8544
 IR Inten    --      4.4847                 5.9644                56.7272

                     34                     35                     36
                      A                      A                      A
 Frequencies --   3623.1244              3711.5403              3727.7828
 Red. masses --      1.0950                 1.0648                 1.1050
 Frc consts  --      8.4692                 8.6421                 9.0470
 IR Inten    --      9.9353                53.0350                81.8692

 - Thermochemistry -
 -------------------
 Temperature   298.150 Kelvin.  Pressure   1.00000 Atm.
 Atom     1 has atomic number  7 and mass  14.00307

 Molecular mass:   105.05383 amu.
 Principal axes and moments of inertia in atomic units:
                           1         2         3
     Eigenvalues --   510.66534 724.08738 877.25777
           X            0.99900   0.04195  -0.01555
           Y           -0.04267   0.99788  -0.04923
           Z            0.01345   0.04984   0.99867
 This molecule is an asymmetric top.
 Rotational symmetry number  1.
 Warning -- assumption of classical behavior for rotation
           may cause significant error
 Rotational temperatures (Kelvin)      0.16961     0.11962     0.09873
 Rotational constants (GHZ):           3.53410     2.49244     2.05725
 Zero-point vibrational energy     299870.7 (Joules/Mol)
                                   71.67082 (Kcal/Mol)
 Warning -- explicit consideration of  12 degrees of freedom as
           vibrations may cause significant error
 Vibrational temperatures:     66.49   279.09   364.14   415.14   474.28
          (Kelvin)            542.98   574.70   601.42   690.23   787.35
                              811.47   882.21  1007.31  1072.47  1135.88
                             1228.12  1292.42  1445.98  1483.05  1600.94
                             1712.30  1783.63  1902.31  1966.45  2125.19
                             2280.85  2354.44  2408.35  2577.90  5007.58
                             5071.28  5132.31  5137.60  5212.86  5340.07
                             5363.44

 Zero-point correction=                           0.114215 (Hartree/Particle)
 Thermal correction to Energy=                    0.122027
 Thermal correction to Enthalpy=                  0.122971
 Thermal correction to Gibbs Free Energy=         0.082417
 Sum of electronic and zero-point Energies=           -395.043631
 Sum of electronic and thermal Energies=              -395.035819
 Sum of electronic and thermal Enthalpies=            -395.034874
 Sum of electronic and thermal Free Energies=         -395.075429

                     E (Thermal)             CV                S
                      KCal/Mol        Cal/Mol-Kelvin    Cal/Mol-Kelvin
 Total                   76.573             29.026             85.354
 Electronic               0.000              0.000              0.000
 Translational            0.889              2.981             39.865
 Rotational               0.889              2.981             27.275
 Vibrational             74.796             23.065             18.214
 Vibration     1          0.595              1.979              4.973
 Vibration     2          0.635              1.848              2.189
 Vibration     3          0.664              1.758              1.709
 Vibration     4          0.685              1.695              1.483
 Vibration     5          0.712              1.616              1.262
 Vibration     6          0.748              1.518              1.050
 Vibration     7          0.765              1.471              0.965
 Vibration     8          0.781              1.431              0.899
 Vibration     9          0.836              1.295              0.711
 Vibration    10          0.902              1.146              0.550
 Vibration    11          0.920              1.109              0.516
 Vibration    12          0.972              1.004              0.428

 Normal termination of Gaussian 09 at Thu Sep  8 14:53:52 2022.
