 Gaussian 09, Revision E.01,
 Gaussian 09:  ES64L-G09RevE.01 30-Nov-2015

 ----------------------------
 #P OPT Freq B3LYP/6-31G(d,p)
 ----------------------------

 --------
 Frag_932
 --------
 Symbolic Z-matrix:
 Charge =  0 Multiplicity = 1

 SCF Done:  E(RB3LYP) =  -303.753880504     A.U. after   15 cycles
 SCF Done:  E(RB3LYP) =  -303.753975723     A.U. after   11 cycles
 SCF Done:  E(RB3LYP) =  -303.753985412     A.U. after   11 cycles
 SCF Done:  E(RB3LYP) =  -303.753995575     A.U. after    9 cycles
 SCF Done:  E(RB3LYP) =  -303.753999824     A.U. after    9 cycles
 SCF Done:  E(RB3LYP) =  -303.754003345     A.U. after   10 cycles
 SCF Done:  E(RB3LYP) =  -303.754005643     A.U. after    9 cycles
 SCF Done:  E(RB3LYP) =  -303.754006803     A.U. after    9 cycles
 SCF Done:  E(RB3LYP) =  -303.754007127     A.U. after    8 cycles
 Optimization completed.
    -- Stationary point found.
 Normal termination of Gaussian 09 at Thu Sep  8 15:13:26 2022.

 ----------------------------------------------------------------------
 #P Geom=AllCheck Guess=TCheck SCRF=Check GenChk RB3LYP/6-31G(d,p) Freq
 ----------------------------------------------------------------------

 Structure from the checkpoint file:  "B3LYP6-31Gdp.Frag_932.chk"
 --------
 Frag_932
 --------
 Charge =  0 Multiplicity = 1

                         Standard orientation:
 ---------------------------------------------------------------------
 Center     Atomic      Atomic             Coordinates (Angstroms)
 Number     Number       Type             X           Y           Z
 ---------------------------------------------------------------------
      1          6           0        1.477437    1.045063    0.172548
      2          7           0        0.795943   -0.054684   -0.053121
      3          8           0        1.310777   -1.202655   -0.108647
      4          7           0       -0.608221   -0.003898   -0.325450
      5          6           0       -1.302031   -1.180205    0.201804
      6          6           0       -1.263106    1.263259   -0.040604
      7          1           0        2.543676    0.918971    0.267479
      8          1           0        0.997510    2.003774    0.240104
      9          1           0       -1.418985   -1.147631    1.296356
     10          1           0       -2.289814   -1.213008   -0.262567
     11          1           0       -0.740217   -2.068297   -0.073331
     12          1           0       -2.322698    1.138120   -0.270627
     13          1           0       -0.875274    2.050693   -0.691481
     14          1           0       -1.168265    1.579992    1.010753
 ---------------------------------------------------------------------

 SCF Done:  E(RB3LYP) =  -303.754007128     A.U. after    1 cycles

 The electronic state is 1-A.
 Alpha  occ. eigenvalues --  -19.11958 -14.50400 -14.38665 -10.23151 -10.21463
 Alpha  occ. eigenvalues --  -10.20942  -1.12616  -0.94701  -0.83211  -0.73080
 Alpha  occ. eigenvalues --   -0.69132  -0.56835  -0.54457  -0.49624  -0.49385
 Alpha  occ. eigenvalues --   -0.44349  -0.43367  -0.42753  -0.41649  -0.40021
 Alpha  occ. eigenvalues --   -0.38182  -0.25871  -0.24656  -0.21459
 Alpha virt. eigenvalues --   -0.00670   0.08343   0.10677   0.11792   0.13599
 Alpha virt. eigenvalues --    0.14682   0.16713   0.16787   0.17989   0.18896
 Alpha virt. eigenvalues --    0.21190   0.21982   0.28506   0.32287   0.49647

 Mulliken charges:
               1
     1  C   -0.123018
     2  N    0.258601
     3  O   -0.500632
     4  N   -0.284710
     5  C   -0.175687
     6  C   -0.188175
     7  H    0.133396
     8  H    0.113989
     9  H    0.102851
    10  H    0.116783
    11  H    0.171009
    12  H    0.128994
    13  H    0.133593
    14  H    0.113006
 Sum of Mulliken charges =  -0.00000

 Dipole moment (field-independent basis, Debye):
    X=             -2.5491    Y=              2.5906    Z=              0.7405  Tot=              3.7091
 Quadrupole moment (field-independent basis, Debye-Ang):
   XX=            -35.1749   YY=            -35.8817   ZZ=            -38.5360
   XY=              3.6175   XZ=              0.2793   YZ=             -0.3603

  Exact polarizability:  62.909   4.958  62.244   1.505   1.933  34.014
 Approx polarizability:  85.669   6.818 110.610   4.289   7.147  49.840

                      1                      2                      3
                      A                      A                      A
 Frequencies --     52.7356               175.4319               266.6299
 Red. masses --      3.1724                 1.1048                 2.7282
 Frc consts  --      0.0052                 0.0200                 0.1143
 IR Inten    --      3.7430                 0.2749                10.7051

                      4                      5                      6
                      A                      A                      A
 Frequencies --    284.1640               382.9218               436.6536
 Red. masses --      1.1679                 2.6998                 2.2244
 Frc consts  --      0.0556                 0.2332                 0.2499
 IR Inten    --      0.5565                 6.9716                 0.9950

                      7                      8                      9
                      A                      A                      A
 Frequencies --    543.1837               570.5775               603.9302
 Red. masses --      2.8443                 4.4159                 1.2667
 Frc consts  --      0.4944                 0.8470                 0.2722
 IR Inten    --      7.4861                 1.7778                29.6038

                     10                     11                     12
                      A                      A                      A
 Frequencies --    670.2881               731.6631               749.4813
 Red. masses --      1.5265                 2.8236                 3.4104
 Frc consts  --      0.4041                 0.8906                 1.1287
 IR Inten    --     20.8043                40.4358                26.6281

                     13                     14                     15
                      A                      A                      A
 Frequencies --    951.6453              1054.4677              1096.9107
 Red. masses --      2.9303                 1.4897                 2.0385
 Frc consts  --      1.5635                 0.9759                 1.4451
 IR Inten    --     65.2222                 8.9939                30.2431

                     16                     17                     18
                      A                      A                      A
 Frequencies --   1125.0102              1171.9856              1261.9955
 Red. masses --      1.2352                 1.3989                 1.9677
 Frc consts  --      0.9211                 1.1321                 1.8464
 IR Inten    --      5.7310                18.0015                 0.9075

                     19                     20                     21
                      A                      A                      A
 Frequencies --   1276.5823              1321.3777              1429.1096
 Red. masses --      4.2813                 2.5433                 1.1552
 Frc consts  --      4.1108                 2.6163                 1.3901
 IR Inten    --      5.2855                71.2728                10.7138

                     22                     23                     24
                      A                      A                      A
 Frequencies --   1472.1423              1476.5071              1497.5801
 Red. masses --      1.2344                 1.2642                 1.0584
 Frc consts  --      1.5762                 1.6238                 1.3986
 IR Inten    --      9.7451                20.2328                11.4416

                     25                     26                     27
                      A                      A                      A
 Frequencies --   1507.0519              1519.0512              1534.5317
 Red. masses --      1.0606                 1.0551                 1.0563
 Frc consts  --      1.4193                 1.4344                 1.4655
 IR Inten    --     19.8495                 1.3136                21.4720

                     28                     29                     30
                      A                      A                      A
 Frequencies --   1644.5648              2987.5317              2999.5683
 Red. masses --      7.2786                 1.0534                 1.0561
 Frc consts  --     11.5985                 5.5393                 5.5985
 IR Inten    --    205.1012                31.0349                76.9738

                     31                     32                     33
                      A                      A                      A
 Frequencies --   3103.1249              3120.3875              3146.1893
 Red. masses --      1.0823                 1.0855                 1.1019
 Frc consts  --      6.1405                 6.2274                 6.4264
 IR Inten    --     18.6876                24.6542                14.2333

                     34                     35                     36
                      A                      A                      A
 Frequencies --   3207.3656              3242.8389              3372.2989
 Red. masses --      1.0973                 1.0514                 1.1244
 Frc consts  --      6.6508                 6.5144                 7.5341
 IR Inten    --      0.4807                 4.0397                 0.0574

 - Thermochemistry -
 -------------------
 Temperature   298.150 Kelvin.  Pressure   1.00000 Atm.
 Atom     1 has atomic number  6 and mass  12.00000

 Molecular mass:    88.06366 amu.
 Principal axes and moments of inertia in atomic units:
                           1         2         3
     Eigenvalues --   349.15093 486.67780 792.73807
           X            0.99518   0.09802  -0.00255
           Y           -0.09804   0.99517  -0.00430
           Z            0.00212   0.00453   0.99999
 This molecule is an asymmetric top.
 Rotational symmetry number  1.
 Rotational temperatures (Kelvin)      0.24807     0.17797     0.10926
 Rotational constants (GHZ):           5.16894     3.70829     2.27659
 Zero-point vibrational energy     310954.2 (Joules/Mol)
                                   74.31983 (Kcal/Mol)
 Warning -- explicit consideration of   9 degrees of freedom as
           vibrations may cause significant error
 Vibrational temperatures:     75.87   252.41   383.62   408.85   550.94
          (Kelvin)            628.25   781.52   820.93   868.92   964.39
                             1052.70  1078.34  1369.20  1517.14  1578.21
                             1618.64  1686.22  1815.73  1836.71  1901.17
                             2056.17  2118.08  2124.36  2154.68  2168.31
                             2185.57  2207.85  2366.16  4298.39  4315.70
                             4464.70  4489.54  4526.66  4614.68  4665.72
                             4851.98

 Zero-point correction=                           0.118436 (Hartree/Particle)
 Thermal correction to Energy=                    0.125268
 Thermal correction to Enthalpy=                  0.126212
 Thermal correction to Gibbs Free Energy=         0.087856
 Sum of electronic and zero-point Energies=           -303.635571
 Sum of electronic and thermal Energies=              -303.628739
 Sum of electronic and thermal Enthalpies=            -303.627795
 Sum of electronic and thermal Free Energies=         -303.666151

                     E (Thermal)             CV                S
                      KCal/Mol        Cal/Mol-Kelvin    Cal/Mol-Kelvin
 Total                   78.607             24.389             80.726
 Electronic               0.000              0.000              0.000
 Translational            0.889              2.981             39.339
 Rotational               0.889              2.981             26.402
 Vibrational             76.829             18.427             14.985
 Vibration     1          0.596              1.977              4.712
 Vibration     2          0.627              1.873              2.376
 Vibration     3          0.672              1.734              1.618
 Vibration     4          0.683              1.703              1.508
 Vibration     5          0.752              1.507              1.028
 Vibration     6          0.797              1.390              0.837
 Vibration     7          0.898              1.155              0.558
 Vibration     8          0.927              1.095              0.503
 Vibration     9          0.962              1.023              0.443

 Normal termination of Gaussian 09 at Thu Sep  8 15:13:37 2022.
