 Gaussian 09, Revision E.01,
 Gaussian 09:  ES64L-G09RevE.01 30-Nov-2015

 ----------------------------
 #P OPT Freq B3LYP/6-31G(d,p)
 ----------------------------

 ---------
 Frag_1099
 ---------
 Symbolic Z-matrix:
 Charge =  0 Multiplicity = 1

 SCF Done:  E(RB3LYP) =  -205.331868749     A.U. after   13 cycles
 SCF Done:  E(RB3LYP) =  -205.331911182     A.U. after   10 cycles
 SCF Done:  E(RB3LYP) =  -205.331916736     A.U. after    8 cycles
 SCF Done:  E(RB3LYP) =  -205.331918502     A.U. after    8 cycles
 SCF Done:  E(RB3LYP) =  -205.331919082     A.U. after    8 cycles
 Optimization completed.
    -- Stationary point found.
 Normal termination of Gaussian 09 at Thu Sep  8 14:49:09 2022.

 ----------------------------------------------------------------------
 #P Geom=AllCheck Guess=TCheck SCRF=Check GenChk RB3LYP/6-31G(d,p) Freq
 ----------------------------------------------------------------------

 Structure from the checkpoint file:  "B3LYP6-31Gdp.Frag_1099.chk"
 ---------
 Frag_1099
 ---------
 Charge =  0 Multiplicity = 1

                         Standard orientation:
 ---------------------------------------------------------------------
 Center     Atomic      Atomic             Coordinates (Angstroms)
 Number     Number       Type             X           Y           Z
 ---------------------------------------------------------------------
      1          7           0       -1.802497   -0.075951    0.111107
      2          6           0       -0.482391    0.352441   -0.012022
      3          7           0        0.491895   -0.470848   -0.029659
      4          7           0        1.784906    0.078571   -0.102861
      5          1           0       -2.462100    0.454562   -0.445400
      6          1           0       -1.893847   -1.073242   -0.049338
      7          1           0       -0.357223    1.442549   -0.025978
      8          1           0        2.418215   -0.601999    0.303730
      9          1           0        1.869168    0.941079    0.439008
 ---------------------------------------------------------------------

 SCF Done:  E(RB3LYP) =  -205.331919082     A.U. after    1 cycles

 The electronic state is 1-A.
 Alpha  occ. eigenvalues --  -14.34315 -14.33924 -14.33255 -10.23780  -0.97048
 Alpha  occ. eigenvalues --   -0.89994  -0.76998  -0.59294  -0.53199  -0.50498
 Alpha  occ. eigenvalues --   -0.44969  -0.42740  -0.38150  -0.30108  -0.26064
 Alpha  occ. eigenvalues --   -0.19333
 Alpha virt. eigenvalues --    0.03627   0.08124   0.10345   0.12422   0.16451
 Alpha virt. eigenvalues --    0.17040   0.22457   0.30116   0.38558   0.56038
 Alpha virt. eigenvalues --    0.58589   0.62248   0.63062   0.68833   0.70171

 Mulliken charges:
               1
     1  N   -0.594492
     2  C    0.267282
     3  N   -0.312767
     4  N   -0.448627
     5  H    0.256778
     6  H    0.264222
     7  H    0.075372
     8  H    0.261191
     9  H    0.231042
 Sum of Mulliken charges =  -0.00000

 Dipole moment (field-independent basis, Debye):
    X=             -0.8178    Y=              1.1336    Z=              0.3037  Tot=              1.4304
 Quadrupole moment (field-independent basis, Debye-Ang):
   XX=            -18.7066   YY=            -22.2779   ZZ=            -26.3457
   XY=              0.4502   XZ=              6.1832   YZ=              0.1043

  Exact polarizability:  54.284  -2.294  31.169   1.978   0.063  16.528
 Approx polarizability:  78.223  -9.105  46.391  -0.157   0.532  23.066

                      1                      2                      3
                      A                      A                      A
 Frequencies --    205.1441               297.8596               330.1250
 Red. masses --      1.2197                 2.3436                 2.4527
 Frc consts  --      0.0302                 0.1225                 0.1575
 IR Inten    --     37.0174                16.3193                66.9412

                      4                      5                      6
                      A                      A                      A
 Frequencies --    399.3508               592.6826               730.3248
 Red. masses --      1.4582                 3.6485                 1.4115
 Frc consts  --      0.1370                 0.7551                 0.4436
 IR Inten    --     53.0590                 4.1880               361.4530

                      7                      8                      9
                      A                      A                      A
 Frequencies --    842.6569               951.4443              1044.1088
 Red. masses --      1.7720                 1.4842                 1.6109
 Frc consts  --      0.7414                 0.7916                 1.0347
 IR Inten    --    145.3316                 5.5258                38.5329

                     10                     11                     12
                      A                      A                      A
 Frequencies --   1170.2075              1259.9032              1311.5764
 Red. masses --      2.2447                 1.3994                 1.4868
 Frc consts  --      1.8111                 1.3088                 1.5069
 IR Inten    --     33.9678                21.8249                 7.7904

                     13                     14                     15
                      A                      A                      A
 Frequencies --   1432.0893              1637.3619              1668.2874
 Red. masses --      1.4940                 1.1712                 1.1201
 Frc consts  --      1.8053                 1.8500                 1.8368
 IR Inten    --      8.3532                43.7502                15.6865

                     16                     17                     18
                      A                      A                      A
 Frequencies --   1765.5247              3061.7442              3425.8324
 Red. masses --      5.0253                 1.0877                 1.0541
 Frc consts  --      9.2291                 6.0074                 7.2891
 IR Inten    --     91.4872                48.3770                14.3209

                     19                     20                     21
                      A                      A                      A
 Frequencies --   3533.9012              3579.5361              3645.4187
 Red. masses --      1.0472                 1.0884                 1.0976
 Frc consts  --      7.7053                 8.2170                 8.5940
 IR Inten    --      6.1270                 2.2802                10.3728

 - Thermochemistry -
 -------------------
 Temperature   298.150 Kelvin.  Pressure   1.00000 Atm.
 Atom     1 has atomic number  7 and mass  14.00307

 Molecular mass:    59.04835 amu.
 Principal axes and moments of inertia in atomic units:
                           1         2         3
     Eigenvalues --    36.49210 415.60608 446.67716
           X            0.99970   0.00629   0.02384
           Y           -0.00646   0.99995   0.00731
           Z           -0.02379  -0.00747   0.99969
 This molecule is an asymmetric top.
 Rotational symmetry number  1.
 Rotational temperatures (Kelvin)      2.37349     0.20840     0.19391
 Rotational constants (GHZ):          49.45566     4.34243     4.04037
 Zero-point vibrational energy     196696.5 (Joules/Mol)
                                   47.01158 (Kcal/Mol)
 Warning -- explicit consideration of   5 degrees of freedom as
           vibrations may cause significant error
 Vibrational temperatures:    295.16   428.55   474.98   574.58   852.74
          (Kelvin)           1050.77  1212.39  1368.91  1502.24  1683.67
                             1812.72  1887.06  2060.45  2355.80  2400.29
                             2540.19  4405.16  4929.00  5084.49  5150.15
                             5244.94

 Zero-point correction=                           0.074918 (Hartree/Particle)
 Thermal correction to Energy=                    0.079883
 Thermal correction to Enthalpy=                  0.080827
 Thermal correction to Gibbs Free Energy=         0.048254
 Sum of electronic and zero-point Energies=           -205.257001
 Sum of electronic and thermal Energies=              -205.252036
 Sum of electronic and thermal Enthalpies=            -205.251092
 Sum of electronic and thermal Free Energies=         -205.283665

                     E (Thermal)             CV                S
                      KCal/Mol        Cal/Mol-Kelvin    Cal/Mol-Kelvin
 Total                   50.127             16.474             68.557
 Electronic               0.000              0.000              0.000
 Translational            0.889              2.981             38.148
 Rotational               0.889              2.981             23.431
 Vibrational             48.350             10.512              6.978
 Vibration     1          0.640              1.833              2.086
 Vibration     2          0.691              1.678              1.429
 Vibration     3          0.713              1.615              1.259
 Vibration     4          0.765              1.472              0.965
 Vibration     5          0.950              1.047              0.462

 Optimization completed.
    -- Stationary point found.
 Normal termination of Gaussian 09 at Thu Sep  8 14:49:15 2022.
