 Gaussian 09, Revision E.01,
 Gaussian 09:  ES64L-G09RevE.01 30-Nov-2015

 --------------------------------
 #P OPT=calcfc Freq B3LYP/6-31G**
 --------------------------------

 --------
 Frag_364
 --------
 Symbolic Z-matrix:
 Charge =  0 Multiplicity = 1

 SCF Done:  E(RB3LYP) =  -225.256507176     A.U. after   13 cycles
 SCF Done:  E(RB3LYP) =  -225.271583451     A.U. after   14 cycles
 SCF Done:  E(RB3LYP) =  -225.270518057     A.U. after   12 cycles
 SCF Done:  E(RB3LYP) =  -225.271903374     A.U. after   10 cycles
 SCF Done:  E(RB3LYP) =  -225.270516534     A.U. after   14 cycles
 SCF Done:  E(RB3LYP) =  -225.273171458     A.U. after   12 cycles
 SCF Done:  E(RB3LYP) =  -225.273713736     A.U. after   12 cycles
 SCF Done:  E(RB3LYP) =  -225.273767608     A.U. after   11 cycles
 SCF Done:  E(RB3LYP) =  -225.273787654     A.U. after    9 cycles
 SCF Done:  E(RB3LYP) =  -225.273787940     A.U. after    7 cycles
 Optimization completed.
    -- Stationary point found.
 Normal termination of Gaussian 09 at Fri Sep 10 21:03:11 2021.

 ----------------------------------------------------------------------
 #P Geom=AllCheck Guess=TCheck SCRF=Check GenChk RB3LYP/6-31G(d,p) Freq
 ----------------------------------------------------------------------

 Structure from the checkpoint file:  "/public/home/users/caep010/.cache/gau_scr/Gau-15415.chk"
 --------
 Frag_364
 --------
 Charge =  0 Multiplicity = 1

                         Standard orientation:
 ---------------------------------------------------------------------
 Center     Atomic      Atomic             Coordinates (Angstroms)
 Number     Number       Type             X           Y           Z
 ---------------------------------------------------------------------
      1          7           0        1.161050   -0.615839    0.076524
      2          6           0        0.000091    0.143621   -0.000032
      3          7           0       -1.161396   -0.615376   -0.076593
      4          8           0        0.000363    1.364092    0.000063
      5          1           0        1.992350   -0.065458   -0.086023
      6          1           0        1.161245   -1.513499   -0.388280
      7          1           0       -1.992424   -0.064321    0.085415
      8          1           0       -1.162205   -1.512674    0.389055
 ---------------------------------------------------------------------

 SCF Done:  E(RB3LYP) =  -225.273787940     A.U. after    1 cycles

 The electronic state is 1-A.
 Alpha  occ. eigenvalues --  -19.10175 -14.34868 -14.34866 -10.30782  -1.03560
 Alpha  occ. eigenvalues --   -0.91402  -0.87550  -0.60427  -0.54083  -0.52937
 Alpha  occ. eigenvalues --   -0.45918  -0.41588  -0.40522  -0.27451  -0.27222
 Alpha  occ. eigenvalues --   -0.24963
 Alpha virt. eigenvalues --    0.05275   0.06365   0.12274   0.12864   0.15124
 Alpha virt. eigenvalues --    0.25460   0.33208   0.38736   0.56433   0.58771
 Alpha virt. eigenvalues --    0.59841   0.64707   0.68431   0.69149   0.73328

 Mulliken charges:
               1
     1  N   -0.614647
     2  C    0.653637
     3  N   -0.614756
     4  O   -0.503087
     5  H    0.278043
     6  H    0.261395
     7  H    0.278031
     8  H    0.261384
 Sum of Mulliken charges =  -0.00000

 Dipole moment (field-independent basis, Debye):
    X=             -0.0002    Y=             -3.5373    Z=              0.0003  Tot=              3.5373
 Quadrupole moment (field-independent basis, Debye-Ang):
   XX=            -17.1406   YY=            -24.6094   ZZ=            -24.6662
   XY=             -0.0035   XZ=             -2.9762   YZ=             -0.0018

  Exact polarizability:  31.742   0.000  32.617  -0.216  -0.002  14.050
 Approx polarizability:  40.454   0.002  53.281   0.942  -0.003  19.344

                      1                      2                      3
                      A                      A                      A
 Frequencies --    392.2564               451.0563               471.9359
 Red. masses --      1.0562                 1.1828                 2.2718
 Frc consts  --      0.0957                 0.1418                 0.2981
 IR Inten    --     69.2576               102.5138                 2.6172

                      4                      5                      6
                      A                      A                      A
 Frequencies --    548.6747               581.8224               599.5500
 Red. masses --      1.7008                 1.9049                 1.3061
 Frc consts  --      0.3017                 0.3799                 0.2766
 IR Inten    --    152.5939               147.5667                84.8345

                      7                      8                      9
                      A                      A                      A
 Frequencies --    782.5456               954.6535              1051.7974
 Red. masses --      6.0601                 3.9155                 1.4418
 Frc consts  --      2.1865                 2.1024                 0.9398
 IR Inten    --    106.8700                 6.6790                23.3348

                     10                     11                     12
                      A                      A                      A
 Frequencies --   1184.0387              1421.1762              1634.7546
 Red. masses --      1.5801                 3.1606                 1.1610
 Frc consts  --      1.3051                 3.7612                 1.8280
 IR Inten    --      2.7593               195.5109                 0.1749

                     13                     14                     15
                      A                      A                      A
 Frequencies --   1638.6781              1835.7025              3574.6197
 Red. masses --      1.2525                 7.3837                 1.0470
 Frc consts  --      1.9816                14.6597                 7.8827
 IR Inten    --    193.9912               357.5915                36.1177

                     16                     17                     18
                      A                      A                      A
 Frequencies --   3579.3456              3698.2062              3698.9717
 Red. masses --      1.0479                 1.0998                 1.0998
 Frc consts  --      7.9097                 8.8624                 8.8663
 IR Inten    --      2.0045                27.2532                26.7142

 - Thermochemistry -
 -------------------
 Temperature   298.150 Kelvin.  Pressure   1.00000 Atm.
 Atom     1 has atomic number  7 and mass  14.00307

 Molecular mass:    60.03236 amu.
 Principal axes and moments of inertia in atomic units:
                           1         2         3
     Eigenvalues --   162.61279 174.87401 334.26087
           X            0.99967  -0.00050  -0.02571
           Y            0.00050   1.00000  -0.00002
           Z            0.02571   0.00000   0.99967
 This molecule is an asymmetric top.
 Rotational symmetry number  1.
 Rotational temperatures (Kelvin)      0.53264     0.49529     0.25912
 Rotational constants (GHZ):          11.09840    10.32024     5.39920
 Zero-point vibrational energy     168074.0 (Joules/Mol)
                                   40.17066 (Kcal/Mol)
 Warning -- explicit consideration of   6 degrees of freedom as
           vibrations may cause significant error
 Vibrational temperatures:    564.37   648.97   679.01   789.42   837.11
          (Kelvin)            862.62  1125.91  1373.53  1513.30  1703.57
                             2044.75  2352.04  2357.69  2641.16  5143.07
                             5149.87  5320.89  5321.99

 Zero-point correction=                           0.064016 (Hartree/Particle)
 Thermal correction to Energy=                    0.068384
 Thermal correction to Enthalpy=                  0.069328
 Thermal correction to Gibbs Free Energy=         0.037757
 Sum of electronic and zero-point Energies=           -225.209772
 Sum of electronic and thermal Energies=              -225.205404
 Sum of electronic and thermal Enthalpies=            -225.204460
 Sum of electronic and thermal Free Energies=         -225.236031

                     E (Thermal)             CV                S
                      KCal/Mol        Cal/Mol-Kelvin    Cal/Mol-Kelvin
 Total                   42.912             15.227             66.447
 Electronic               0.000              0.000              0.000
 Translational            0.889              2.981             38.197
 Rotational               0.889              2.981             23.767
 Vibrational             41.134              9.265              4.482
 Vibration     1          0.760              1.487              0.992
 Vibration     2          0.810              1.359              0.793
 Vibration     3          0.829              1.312              0.732
 Vibration     4          0.904              1.143              0.547
 Vibration     5          0.939              1.071              0.482
 Vibration     6          0.958              1.033              0.450

 Optimization completed.
    -- Stationary point found.
 Normal termination of Gaussian 09 at Fri Sep 10 21:03:17 2021.
