 Gaussian 09, Revision E.01,
 Gaussian 09:  ES64L-G09RevE.01 30-Nov-2015

 ----------------------------
 #P OPT Freq B3LYP/6-31G(d,p)
 ----------------------------

 --------
 Frag_802
 --------
 Symbolic Z-matrix:
 Charge =  0 Multiplicity = 1

 SCF Done:  E(RB3LYP) =  -246.036949390     A.U. after   15 cycles
 SCF Done:  E(RB3LYP) =  -246.037127895     A.U. after   11 cycles
 SCF Done:  E(RB3LYP) =  -246.037038586     A.U. after   11 cycles
 SCF Done:  E(RB3LYP) =  -246.037132767     A.U. after   11 cycles
 SCF Done:  E(RB3LYP) =  -246.037131308     A.U. after    9 cycles
 SCF Done:  E(RB3LYP) =  -246.037133407     A.U. after    9 cycles
 Optimization completed.
    -- Stationary point found.
 Normal termination of Gaussian 09 at Thu Sep  8 15:16:35 2022.

 ----------------------------------------------------------------------
 #P Geom=AllCheck Guess=TCheck SCRF=Check GenChk RB3LYP/6-31G(d,p) Freq
 ----------------------------------------------------------------------

 Structure from the checkpoint file:  "B3LYP6-31Gdp.Frag_802.chk"
 --------
 Frag_802
 --------
 Charge =  0 Multiplicity = 1

                         Standard orientation:
 ---------------------------------------------------------------------
 Center     Atomic      Atomic             Coordinates (Angstroms)
 Number     Number       Type             X           Y           Z
 ---------------------------------------------------------------------
      1          6           0        2.176830    0.069589    0.000015
      2          6           0        0.970892   -0.003785    0.000236
      3          6           0       -0.485192   -0.145837   -0.000146
      4          7           0       -1.155281    1.043263   -0.000011
      5          8           0       -1.036739   -1.235899    0.000007
      6          1           0        3.242052    0.117021   -0.000636
      7          1           0       -0.672705    1.926971    0.000069
      8          1           0       -2.163646    1.020558   -0.000038
 ---------------------------------------------------------------------

 SCF Done:  E(RB3LYP) =  -246.037133407     A.U. after    1 cycles

 The electronic state is 1-A.
 Alpha  occ. eigenvalues --  -19.12350 -14.36940 -10.31531 -10.20981 -10.20526
 Alpha  occ. eigenvalues --   -1.04241  -0.91628  -0.76944  -0.65912  -0.57137
 Alpha  occ. eigenvalues --   -0.53884  -0.50304  -0.42320  -0.42267  -0.30229
 Alpha  occ. eigenvalues --   -0.29348  -0.27743  -0.26278
 Alpha virt. eigenvalues --   -0.02912   0.03173   0.08214   0.10808   0.12809
 Alpha virt. eigenvalues --    0.12811   0.23353   0.31658   0.36966   0.43563
 Alpha virt. eigenvalues --    0.50748   0.52070   0.52726   0.59690   0.61872

 Mulliken charges:
               1
     1  C   -0.408883
     2  C    0.278602
     3  C    0.453511
     4  N   -0.595363
     5  O   -0.466435
     6  H    0.174274
     7  H    0.279132
     8  H    0.285163
 Sum of Mulliken charges =   0.00000

 Dipole moment (field-independent basis, Debye):
    X=              0.8541    Y=              3.7388    Z=             -0.0008  Tot=              3.8351
 Quadrupole moment (field-independent basis, Debye-Ang):
   XX=            -20.0386   YY=            -28.3011   ZZ=            -29.2107
   XY=             -4.1666   XZ=             -0.0024   YZ=              0.0001

  Exact polarizability:  57.676   0.898  33.810  -0.003   0.000  15.686
 Approx polarizability:  93.939   8.251  57.334  -0.008  -0.001  21.588

                      1                      2                      3
                      A                      A                      A
 Frequencies --    134.5985               185.6468               258.7837
 Red. masses --      1.2169                 4.2152                 4.2474
 Frc consts  --      0.0130                 0.0856                 0.1676
 IR Inten    --    243.8733                 7.2728                 0.3555

                      4                      5                      6
                      A                      A                      A
 Frequencies --    486.4402               568.1442               597.0910
 Red. masses --      3.2918                 1.1313                 8.7385
 Frc consts  --      0.4589                 0.2152                 1.8356
 IR Inten    --      4.2822                 6.1389                 5.6098

                      7                      8                      9
                      A                      A                      A
 Frequencies --    651.0369               672.7660               762.5990
 Red. masses --      1.2328                 1.3062                 5.9883
 Frc consts  --      0.3079                 0.3483                 2.0518
 IR Inten    --     43.3593                29.6233                24.0358

                     10                     11                     12
                      A                      A                      A
 Frequencies --    799.9900              1093.0608              1345.4134
 Red. masses --      3.8279                 1.8850                 3.8146
 Frc consts  --      1.4434                 1.3269                 4.0683
 IR Inten    --     18.6990                 1.7355               225.2350

                     13                     14                     15
                      A                      A                      A
 Frequencies --   1615.6179              1785.7114              2227.2432
 Red. masses --      1.2699                 9.8338                 5.9342
 Frc consts  --      1.9530                18.4753                17.3439
 IR Inten    --    121.3762               336.7041                39.6124

                     16                     17                     18
                      A                      A                      A
 Frequencies --   3484.1118              3605.1008              3750.3708
 Red. masses --      1.1614                 1.0448                 1.1062
 Frc consts  --      8.3066                 8.0007                 9.1670
 IR Inten    --     51.7032                56.8519                46.1670

 - Thermochemistry -
 -------------------
 Temperature   298.150 Kelvin.  Pressure   1.00000 Atm.
 Atom     1 has atomic number  6 and mass  12.00000

 Molecular mass:    69.02146 amu.
 Principal axes and moments of inertia in atomic units:
                           1         2         3
     Eigenvalues --   159.04653 438.40773 597.45425
           X            0.99923  -0.03931  -0.00002
           Y            0.03931   0.99923   0.00000
           Z            0.00002  -0.00000   1.00000
 This molecule is an asymmetric top.
 Rotational symmetry number  1.
 Rotational temperatures (Kelvin)      0.54458     0.19756     0.14497
 Rotational constants (GHZ):          11.34725     4.11658     3.02072
 Zero-point vibrational energy     143693.8 (Joules/Mol)
                                   34.34364 (Kcal/Mol)
 Warning -- explicit consideration of   6 degrees of freedom as
           vibrations may cause significant error
 Vibrational temperatures:    193.66   267.10   372.33   699.88   817.43
          (Kelvin)            859.08   936.70   967.96  1097.21  1151.01
                             1572.67  1935.75  2324.51  2569.24  3204.50
                             5012.85  5186.93  5395.94

 Zero-point correction=                           0.054730 (Hartree/Particle)
 Thermal correction to Energy=                    0.060331
 Thermal correction to Enthalpy=                  0.061275
 Thermal correction to Gibbs Free Energy=         0.026316
 Sum of electronic and zero-point Energies=           -245.982403
 Sum of electronic and thermal Energies=              -245.976802
 Sum of electronic and thermal Enthalpies=            -245.975858
 Sum of electronic and thermal Free Energies=         -246.010818

                     E (Thermal)             CV                S
                      KCal/Mol        Cal/Mol-Kelvin    Cal/Mol-Kelvin
 Total                   37.858             18.574             73.579
 Electronic               0.000              0.000              0.000
 Translational            0.889              2.981             38.613
 Rotational               0.889              2.981             25.236
 Vibrational             36.081             12.612              9.730
 Vibration     1          0.613              1.919              2.879
 Vibration     2          0.632              1.859              2.271
 Vibration     3          0.668              1.748              1.670
 Vibration     4          0.842              1.280              0.693
 Vibration     5          0.924              1.100              0.508
 Vibration     6          0.955              1.038              0.455

 Optimization completed.
    -- Stationary point found.
 Normal termination of Gaussian 09 at Thu Sep  8 15:16:41 2022.
