 Gaussian 09, Revision E.01,
 Gaussian 09:  ES64L-G09RevE.01 30-Nov-2015

 ----------------------------
 #P OPT Freq B3LYP/6-31G(d,p)
 ----------------------------

 --------
 Frag_921
 --------
 Symbolic Z-matrix:
 Charge =  0 Multiplicity = 1

 SCF Done:  E(RB3LYP) =  -209.188563821     A.U. after   13 cycles
 SCF Done:  E(RB3LYP) =  -209.188613527     A.U. after    9 cycles
 SCF Done:  E(RB3LYP) =  -209.188616460     A.U. after    7 cycles
 Optimization completed.
    -- Stationary point found.
 Normal termination of Gaussian 09 at Thu Sep  8 14:56:28 2022.

 ----------------------------------------------------------------------
 #P Geom=AllCheck Guess=TCheck SCRF=Check GenChk RB3LYP/6-31G(d,p) Freq
 ----------------------------------------------------------------------

 Structure from the checkpoint file:  "B3LYP6-31Gdp.Frag_921.chk"
 --------
 Frag_921
 --------
 Charge =  0 Multiplicity = 1

                         Standard orientation:
 ---------------------------------------------------------------------
 Center     Atomic      Atomic             Coordinates (Angstroms)
 Number     Number       Type             X           Y           Z
 ---------------------------------------------------------------------
      1          6           0       -1.776901    0.048194   -0.000024
      2          7           0       -0.421062   -0.469177    0.000027
      3          6           0        0.531368    0.361333    0.000062
      4          8           0        1.827063   -0.017202   -0.000034
      5          1           0       -1.838500    1.148238   -0.000155
      6          1           0       -2.312774   -0.324040   -0.880496
      7          1           0       -2.312727   -0.323813    0.880565
      8          1           0        0.445144    1.453961   -0.000041
      9          1           0        1.822986   -0.989656   -0.000016
 ---------------------------------------------------------------------

 SCF Done:  E(RB3LYP) =  -209.188616460     A.U. after    1 cycles

 The electronic state is 1-A.
 Alpha  occ. eigenvalues --  -19.18528 -14.31794 -10.27678 -10.20858  -1.07311
 Alpha  occ. eigenvalues --   -0.90450  -0.69964  -0.62564  -0.49500  -0.49107
 Alpha  occ. eigenvalues --   -0.43733  -0.40579  -0.39079  -0.38107  -0.26305
 Alpha  occ. eigenvalues --   -0.25904
 Alpha virt. eigenvalues --    0.02669   0.08282   0.11992   0.14053   0.17300
 Alpha virt. eigenvalues --    0.17335   0.20116   0.26812   0.39092   0.49099
 Alpha virt. eigenvalues --    0.53605   0.56467   0.59121   0.63050   0.68450

 Mulliken charges:
               1
     1  C   -0.181719
     2  N   -0.418694
     3  C    0.339864
     4  O   -0.481444
     5  H    0.086351
     6  H    0.119657
     7  H    0.119657
     8  H    0.095782
     9  H    0.320547
 Sum of Mulliken charges =  -0.00000

 Dipole moment (field-independent basis, Debye):
    X=             -0.5763    Y=              0.4111    Z=              0.0000  Tot=              0.7079
 Quadrupole moment (field-independent basis, Debye-Ang):
   XX=            -23.7279   YY=            -22.9515   ZZ=            -24.6232
   XY=             -2.9017   XZ=              0.0002   YZ=              0.0001

  Exact polarizability:  46.332   1.510  31.735   0.000  -0.000  20.305
 Approx polarizability:  64.641   7.684  47.216   0.000   0.000  27.508

                      1                      2                      3
                      A                      A                      A
 Frequencies --    201.8705               286.9662               324.8354
 Red. masses --      1.3083                 2.3619                 3.0667
 Frc consts  --      0.0314                 0.1146                 0.1907
 IR Inten    --      2.4905                 5.5202                13.1220

                      4                      5                      6
                      A                      A                      A
 Frequencies --    590.2696               636.4768               999.8922
 Red. masses --      3.5407                 1.3135                 1.4139
 Frc consts  --      0.7269                 0.3135                 0.8328
 IR Inten    --      8.1310               133.1120                 7.0803

                      7                      8                      9
                      A                      A                      A
 Frequencies --   1013.0397              1143.6217              1152.7946
 Red. masses --      3.0532                 1.3512                 1.6551
 Frc consts  --      1.8461                 1.0412                 1.2959
 IR Inten    --    108.8116                 0.4672                 5.4191

                     10                     11                     12
                      A                      A                      A
 Frequencies --   1202.2951              1351.3086              1406.7201
 Red. masses --      2.0969                 2.0189                 1.2300
 Frc consts  --      1.7859                 2.1720                 1.4341
 IR Inten    --    167.1950                 5.8268                18.8382

                     13                     14                     15
                      A                      A                      A
 Frequencies --   1464.1598              1496.4535              1520.8859
 Red. masses --      1.1936                 1.0426                 1.0550
 Frc consts  --      1.5075                 1.3756                 1.4378
 IR Inten    --     20.6578                 2.7359                 8.1605

                     16                     17                     18
                      A                      A                      A
 Frequencies --   1780.9392              2986.7056              3072.9543
 Red. masses --      7.1232                 1.0470                 1.0872
 Frc consts  --     13.3114                 5.5026                 6.0491
 IR Inten    --    303.6968                66.6589                46.8533

                     19                     20                     21
                      A                      A                      A
 Frequencies --   3092.4616              3094.0128              3744.7934
 Red. masses --      1.1028                 1.0913                 1.0636
 Frc consts  --      6.2136                 6.1550                 8.7882
 IR Inten    --     28.9657                37.6770                35.8947

 - Thermochemistry -
 -------------------
 Temperature   298.150 Kelvin.  Pressure   1.00000 Atm.
 Atom     1 has atomic number  6 and mass  12.00000

 Molecular mass:    59.03711 amu.
 Principal axes and moments of inertia in atomic units:
                           1         2         3
     Eigenvalues --    38.76514 414.92957 442.53297
           X            0.99985  -0.01732   0.00000
           Y            0.01732   0.99985  -0.00001
           Z           -0.00000   0.00001   1.00000
 This molecule is an asymmetric top.
 Rotational symmetry number  1.
 Rotational temperatures (Kelvin)      2.23432     0.20874     0.19572
 Rotational constants (GHZ):          46.55578     4.34951     4.07821
 Zero-point vibrational energy     194772.7 (Joules/Mol)
                                   46.55180 (Kcal/Mol)
 Warning -- explicit consideration of   4 degrees of freedom as
           vibrations may cause significant error
 Vibrational temperatures:    290.45   412.88   467.37   849.27   915.75
          (Kelvin)           1438.62  1457.54  1645.41  1658.61  1729.83
                             1944.23  2023.95  2106.60  2153.06  2188.21
                             2562.37  4297.20  4421.29  4449.36  4451.59
                             5387.92

 Zero-point correction=                           0.074185 (Hartree/Particle)
 Thermal correction to Energy=                    0.078871
 Thermal correction to Enthalpy=                  0.079815
 Thermal correction to Gibbs Free Energy=         0.047609
 Sum of electronic and zero-point Energies=           -209.114431
 Sum of electronic and thermal Energies=              -209.109745
 Sum of electronic and thermal Enthalpies=            -209.108801
 Sum of electronic and thermal Free Energies=         -209.141007

                     E (Thermal)             CV                S
                      KCal/Mol        Cal/Mol-Kelvin    Cal/Mol-Kelvin
 Total                   49.492             15.043             67.784
 Electronic               0.000              0.000              0.000
 Translational            0.889              2.981             38.147
 Rotational               0.889              2.981             23.480
 Vibrational             47.715              9.082              6.156
 Vibration     1          0.639              1.837              2.116
 Vibration     2          0.684              1.698              1.492
 Vibration     3          0.709              1.626              1.286
 Vibration     4          0.948              1.053              0.467

 Optimization completed.
    -- Stationary point found.
 Normal termination of Gaussian 09 at Thu Sep  8 14:56:35 2022.
