 Gaussian 09, Revision E.01,
 Gaussian 09:  ES64L-G09RevE.01 30-Nov-2015

 ----------------------------
 #P OPT Freq B3LYP/6-31G(d,p)
 ----------------------------

 --------
 Frag_448
 --------
 Symbolic Z-matrix:
 Charge =  0 Multiplicity = 1

 SCF Done:  E(RB3LYP) =  -323.756027743     A.U. after   14 cycles
 SCF Done:  E(RB3LYP) =  -323.756129612     A.U. after   11 cycles
 SCF Done:  E(RB3LYP) =  -323.756116404     A.U. after   11 cycles
 SCF Done:  E(RB3LYP) =  -323.756144965     A.U. after   11 cycles
 SCF Done:  E(RB3LYP) =  -323.756146518     A.U. after    9 cycles
 SCF Done:  E(RB3LYP) =  -323.756147791     A.U. after    8 cycles
 Optimization completed.
    -- Stationary point found.
 Normal termination of Gaussian 09 at Thu Sep  8 15:17:18 2022.

 ----------------------------------------------------------------------
 #P Geom=AllCheck Guess=TCheck SCRF=Check GenChk RB3LYP/6-31G(d,p) Freq
 ----------------------------------------------------------------------

 Structure from the checkpoint file:  "B3LYP6-31Gdp.Frag_448.chk"
 --------
 Frag_448
 --------
 Charge =  0 Multiplicity = 1

                         Standard orientation:
 ---------------------------------------------------------------------
 Center     Atomic      Atomic             Coordinates (Angstroms)
 Number     Number       Type             X           Y           Z
 ---------------------------------------------------------------------
      1          6           0        1.582426   -0.969095   -0.283515
      2          6           0        0.672937    0.050746    0.393947
      3          8           0        1.050761    1.403144    0.114522
      4          6           0       -0.808825   -0.226180    0.068583
      5          7           0       -1.531969    0.886199   -0.228509
      6          8           0       -1.268493   -1.360003    0.095768
      7          1           0        1.244769   -1.979489   -0.046937
      8          1           0        2.615883   -0.839378    0.047774
      9          1           0        1.546281   -0.855082   -1.374337
     10          1           0        0.764605   -0.049929    1.482417
     11          1           0        1.253609    1.455126   -0.829980
     12          1           0       -1.108462    1.792506   -0.101506
     13          1           0       -2.530286    0.794904   -0.334277
 ---------------------------------------------------------------------

 SCF Done:  E(RB3LYP) =  -323.756147791     A.U. after    1 cycles

 The electronic state is 1-A.
 Alpha  occ. eigenvalues --  -19.16351 -19.10769 -14.35374 -10.28206 -10.24879
 Alpha  occ. eigenvalues --  -10.18502  -1.04109  -1.01967  -0.90003  -0.76231
 Alpha  occ. eigenvalues --   -0.65983  -0.58324  -0.54467  -0.50802  -0.46963
 Alpha  occ. eigenvalues --   -0.44562  -0.41320  -0.40214  -0.37975  -0.36851
 Alpha  occ. eigenvalues --   -0.33934  -0.31130  -0.26613  -0.23689
 Alpha virt. eigenvalues --    0.02787   0.06629   0.10308   0.12699   0.13535
 Alpha virt. eigenvalues --    0.14492   0.17336   0.17709   0.21258   0.24044
 Alpha virt. eigenvalues --    0.26985   0.33384   0.39314   0.52577   0.52791

 Mulliken charges:
               1
     1  C   -0.334646
     2  C    0.099066
     3  O   -0.554480
     4  C    0.548607
     5  N   -0.607759
     6  O   -0.513600
     7  H    0.147231
     8  H    0.114810
     9  H    0.100408
    10  H    0.137496
    11  H    0.307382
    12  H    0.280118
    13  H    0.275369
 Sum of Mulliken charges =  -0.00000

 Dipole moment (field-independent basis, Debye):
    X=              0.6576    Y=              2.4260    Z=             -1.0492  Tot=              2.7237
 Quadrupole moment (field-independent basis, Debye-Ang):
   XX=            -33.2121   YY=            -38.6347   ZZ=            -34.2279
   XY=             -6.7459   XZ=             -1.0783   YZ=             -2.2270

  Exact polarizability:  47.830  -2.215  49.308   0.872  -2.383  33.999
 Approx polarizability:  59.073   1.462  78.119   1.646  -4.653  49.061

                      1                      2                      3
                      A                      A                      A
 Frequencies --     68.2336               229.4899               262.9718
 Red. masses --      4.9791                 1.0664                 2.8682
 Frc consts  --      0.0137                 0.0331                 0.1169
 IR Inten    --      4.6623                 1.4295                11.5282

                      4                      5                      6
                      A                      A                      A
 Frequencies --    287.3328               332.0879               400.1471
 Red. masses --      1.1870                 2.9056                 2.0496
 Frc consts  --      0.0577                 0.1888                 0.1934
 IR Inten    --    144.3443                10.5446                49.1447

                      7                      8                      9
                      A                      A                      A
 Frequencies --    448.4998               511.6597               516.6043
 Red. masses --      1.5219                 4.9597                 2.7558
 Frc consts  --      0.1804                 0.7650                 0.4333
 IR Inten    --    135.0061                 2.6852                43.5538

                     10                     11                     12
                      A                      A                      A
 Frequencies --    665.7717               713.4856               806.9081
 Red. masses --      1.2728                 2.6286                 2.5748
 Frc consts  --      0.3324                 0.7884                 0.9877
 IR Inten    --      0.6883                 3.3096                 6.3288

                     13                     14                     15
                      A                      A                      A
 Frequencies --    918.2049              1051.5157              1084.8904
 Red. masses --      2.1768                 1.5803                 2.0282
 Frc consts  --      1.0813                 1.0295                 1.4064
 IR Inten    --     10.0254                48.8563                 8.1556

                     16                     17                     18
                      A                      A                      A
 Frequencies --   1099.2847              1142.1122              1288.5588
 Red. masses --      1.6732                 2.7731                 1.4514
 Frc consts  --      1.1913                 2.1312                 1.4199
 IR Inten    --     24.1550                57.6681                11.8330

                     19                     20                     21
                      A                      A                      A
 Frequencies --   1324.5288              1380.0686              1404.1782
 Red. masses --      1.4301                 2.9917                 1.1686
 Frc consts  --      1.4782                 3.3572                 1.3576
 IR Inten    --     26.4403                54.7873                32.2626

                     22                     23                     24
                      A                      A                      A
 Frequencies --   1414.2581              1504.7199              1510.2469
 Red. masses --      1.2813                 1.0528                 1.0542
 Frc consts  --      1.5100                 1.4045                 1.4167
 IR Inten    --     35.3148                 4.8484                 6.8808

                     25                     26                     27
                      A                      A                      A
 Frequencies --   1595.8933              1804.2682              3040.9382
 Red. masses --      1.3445                 9.9081                 1.0458
 Frc consts  --      2.0176                19.0040                 5.6981
 IR Inten    --    153.2812               272.2079                14.0366

                     28                     29                     30
                      A                      A                      A
 Frequencies --   3061.2300              3120.1440              3161.3434
 Red. masses --      1.0815                 1.0950                 1.1021
 Frc consts  --      5.9713                 6.2806                 6.4893
 IR Inten    --     19.4482                26.4610                 6.6087

                     31                     32                     33
                      A                      A                      A
 Frequencies --   3597.1368              3741.5245              3799.2081
 Red. masses --      1.0436                 1.1058                 1.0661
 Frc consts  --      7.9559                 9.1210                 9.0666
 IR Inten    --     36.2520                61.9907                16.6210

 - Thermochemistry -
 -------------------
 Temperature   298.150 Kelvin.  Pressure   1.00000 Atm.
 Atom     1 has atomic number  6 and mass  12.00000

 Molecular mass:    89.04768 amu.
 Principal axes and moments of inertia in atomic units:
                           1         2         3
     Eigenvalues --   367.32472 537.37921 841.24054
           X            0.98494  -0.17273  -0.00768
           Y            0.17269   0.98496  -0.00507
           Z            0.00844   0.00367   0.99996
 This molecule is an asymmetric top.
 Rotational symmetry number  1.
 Rotational temperatures (Kelvin)      0.23580     0.16118     0.10296
 Rotational constants (GHZ):           4.91320     3.35841     2.14533
 Zero-point vibrational energy     282841.7 (Joules/Mol)
                                   67.60080 (Kcal/Mol)
 Warning -- explicit consideration of   9 degrees of freedom as
           vibrations may cause significant error
 Vibrational temperatures:     98.17   330.18   378.36   413.41   477.80
          (Kelvin)            575.72   645.29   736.16   743.28   957.90
                             1026.55  1160.96  1321.09  1512.89  1560.91
                             1581.62  1643.24  1853.95  1905.70  1985.61
                             2020.30  2034.80  2164.95  2172.91  2296.13
                             2595.94  4375.23  4404.42  4489.19  4548.46
                             5175.47  5383.21  5466.21

 Zero-point correction=                           0.107729 (Hartree/Particle)
 Thermal correction to Energy=                    0.114685
 Thermal correction to Enthalpy=                  0.115630
 Thermal correction to Gibbs Free Energy=         0.077225
 Sum of electronic and zero-point Energies=           -323.648419
 Sum of electronic and thermal Energies=              -323.641462
 Sum of electronic and thermal Enthalpies=            -323.640518
 Sum of electronic and thermal Free Energies=         -323.678923

                     E (Thermal)             CV                S
                      KCal/Mol        Cal/Mol-Kelvin    Cal/Mol-Kelvin
 Total                   71.966             24.840             80.830
 Electronic               0.000              0.000              0.000
 Translational            0.889              2.981             39.372
 Rotational               0.889              2.981             26.610
 Vibrational             70.189             18.878             14.848
 Vibration     1          0.598              1.969              4.204
 Vibration     2          0.652              1.796              1.883
 Vibration     3          0.670              1.741              1.642
 Vibration     4          0.685              1.697              1.490
 Vibration     5          0.714              1.611              1.250
 Vibration     6          0.766              1.470              0.962
 Vibration     7          0.808              1.364              0.800
 Vibration     8          0.867              1.224              0.630
 Vibration     9          0.872              1.213              0.618

 Normal termination of Gaussian 09 at Thu Sep  8 15:17:28 2022.
