 Gaussian 09, Revision E.01,
 Gaussian 09:  ES64L-G09RevE.01 30-Nov-2015

 ----------------------------
 #P OPT Freq B3LYP/6-31G(d,p)
 ----------------------------

 --------
 Frag_939
 --------
 Symbolic Z-matrix:
 Charge =  0 Multiplicity = 1

 SCF Done:  E(RB3LYP) =  -269.500060354     A.U. after   13 cycles
 SCF Done:  E(RB3LYP) =  -269.500133024     A.U. after   10 cycles
 SCF Done:  E(RB3LYP) =  -269.500144666     A.U. after    9 cycles
 SCF Done:  E(RB3LYP) =  -269.500146612     A.U. after    8 cycles
 SCF Done:  E(RB3LYP) =  -269.500146851     A.U. after    8 cycles
 Optimization completed.
    -- Stationary point found.
 Normal termination of Gaussian 09 at Thu Sep  8 15:25:45 2022.

 ----------------------------------------------------------------------
 #P Geom=AllCheck Guess=TCheck SCRF=Check GenChk RB3LYP/6-31G(d,p) Freq
 ----------------------------------------------------------------------

 Structure from the checkpoint file:  "B3LYP6-31Gdp.Frag_939.chk"
 --------
 Frag_939
 --------
 Charge =  0 Multiplicity = 1

                         Standard orientation:
 ---------------------------------------------------------------------
 Center     Atomic      Atomic             Coordinates (Angstroms)
 Number     Number       Type             X           Y           Z
 ---------------------------------------------------------------------
      1          6           0       -1.640155   -0.813130   -0.008315
      2          6           0       -0.400140    0.009521    0.332504
      3          6           0       -0.509294    1.469452   -0.095124
      4          8           0        0.665866   -0.664388   -0.356604
      5          8           0        1.919237   -0.042052    0.045249
      6          1           0       -1.824373   -0.797743   -1.086877
      7          1           0       -2.515480   -0.394228    0.496625
      8          1           0       -1.519942   -1.852819    0.307944
      9          1           0       -0.201219   -0.047371    1.413507
     10          1           0       -0.724856    1.536885   -1.166353
     11          1           0        0.426563    1.995330    0.104762
     12          1           0       -1.313198    1.970473    0.454431
     13          1           0        2.289223   -0.754072    0.592404
 ---------------------------------------------------------------------

 SCF Done:  E(RB3LYP) =  -269.500146851     A.U. after    1 cycles

 The electronic state is 1-A.
 Alpha  occ. eigenvalues --  -19.19477 -19.19450 -10.23813 -10.18165 -10.17116
 Alpha  occ. eigenvalues --   -1.10471  -0.90764  -0.75896  -0.69031  -0.58284
 Alpha  occ. eigenvalues --   -0.51511  -0.48121  -0.45356  -0.41490  -0.39096
 Alpha  occ. eigenvalues --   -0.38851  -0.38300  -0.35514  -0.33419  -0.28952
 Alpha  occ. eigenvalues --   -0.25804
 Alpha virt. eigenvalues --    0.03133   0.08177   0.11236   0.14367   0.14479
 Alpha virt. eigenvalues --    0.15968   0.17323   0.19055   0.19329   0.20856
 Alpha virt. eigenvalues --    0.23902   0.26467   0.49947   0.51855   0.55886

 Mulliken charges:
               1
     1  C   -0.331796
     2  C    0.196982
     3  C   -0.316084
     4  O   -0.312000
     5  O   -0.327822
     6  H    0.121372
     7  H    0.110739
     8  H    0.115612
     9  H    0.076684
    10  H    0.110580
    11  H    0.128975
    12  H    0.096765
    13  H    0.329994
 Sum of Mulliken charges =  -0.00000

 Dipole moment (field-independent basis, Debye):
    X=             -0.7186    Y=             -0.4198    Z=              1.5997  Tot=              1.8032
 Quadrupole moment (field-independent basis, Debye-Ang):
   XX=            -28.9873   YY=            -30.9032   ZZ=            -30.9964
   XY=             -2.1360   XZ=              2.7569   YZ=             -1.3405

  Exact polarizability:  50.430   0.419  40.970   1.848  -0.679  36.526
 Approx polarizability:  66.000   1.791  53.472   2.588   0.716  52.130

                      1                      2                      3
                      A                      A                      A
 Frequencies --    136.6336               207.3386               217.1228
 Red. masses --      3.8833                 1.0471                 1.0726
 Frc consts  --      0.0427                 0.0265                 0.0298
 IR Inten    --      6.8830                 1.5689                99.5153

                      4                      5                      6
                      A                      A                      A
 Frequencies --    245.2354               290.7560               349.4939
 Red. masses --      1.2191                 2.7928                 2.3169
 Frc consts  --      0.0432                 0.1391                 0.1667
 IR Inten    --      9.3965                 2.7665                 1.4210

                      7                      8                      9
                      A                      A                      A
 Frequencies --    470.0122               502.4438               825.9935
 Red. masses --      2.5359                 3.7260                 2.5294
 Frc consts  --      0.3301                 0.5542                 1.0168
 IR Inten    --      4.4072                 5.6960                 4.0058

                     10                     11                     12
                      A                      A                      A
 Frequencies --    906.3902               936.3401               955.2489
 Red. masses --      2.8169                 1.3458                 1.4996
 Frc consts  --      1.3635                 0.6952                 0.8062
 IR Inten    --     10.3614                 1.6871                 1.9068

                     13                     14                     15
                      A                      A                      A
 Frequencies --    958.2976              1142.1367              1184.0965
 Red. masses --      3.8496                 1.8501                 2.1384
 Frc consts  --      2.0829                 1.4220                 1.7665
 IR Inten    --      2.7095                11.4567                32.9058

                     16                     17                     18
                      A                      A                      A
 Frequencies --   1202.5281              1355.6560              1357.2000
 Red. masses --      1.9368                 1.3520                 1.1321
 Frc consts  --      1.6501                 1.4639                 1.2286
 IR Inten    --      3.7961                 6.1190                46.1338

                     19                     20                     21
                      A                      A                      A
 Frequencies --   1393.3574              1416.6403              1426.2390
 Red. masses --      1.2151                 1.4048                 1.2527
 Frc consts  --      1.3899                 1.6611                 1.5014
 IR Inten    --     25.6968                19.3180                12.0391

                     22                     23                     24
                      A                      A                      A
 Frequencies --   1493.0226              1501.1375              1507.3140
 Red. masses --      1.0537                 1.0464                 1.0469
 Frc consts  --      1.3838                 1.3893                 1.4015
 IR Inten    --      1.0835                 1.6321                 2.5935

                     25                     26                     27
                      A                      A                      A
 Frequencies --   1527.4632              3005.6076              3050.0955
 Red. masses --      1.0548                 1.0846                 1.0364
 Frc consts  --      1.4500                 5.7727                 5.6808
 IR Inten    --      6.0833                44.7576                14.9772

                     28                     29                     30
                      A                      A                      A
 Frequencies --   3055.9810              3120.0223              3132.6433
 Red. masses --      1.0352                 1.1027                 1.1024
 Frc consts  --      5.6960                 6.3243                 6.3740
 IR Inten    --     14.7318                15.8342                34.3151

                     31                     32                     33
                      A                      A                      A
 Frequencies --   3135.6484              3148.2864              3752.7595
 Red. masses --      1.1033                 1.1010                 1.0688
 Frc consts  --      6.3915                 6.4299                 8.8682
 IR Inten    --     22.8512                14.6123                22.0475

 - Thermochemistry -
 -------------------
 Temperature   298.150 Kelvin.  Pressure   1.00000 Atm.
 Atom     1 has atomic number  6 and mass  12.00000

 Molecular mass:    76.05243 amu.
 Principal axes and moments of inertia in atomic units:
                           1         2         3
     Eigenvalues --   232.09169 470.46623 638.74760
           X            0.99987   0.00910   0.01341
           Y           -0.00880   0.99971  -0.02249
           Z           -0.01361   0.02237   0.99966
 This molecule is an asymmetric top.
 Rotational symmetry number  1.
 Rotational temperatures (Kelvin)      0.37319     0.18410     0.13560
 Rotational constants (GHZ):           7.77598     3.83607     2.82544
 Zero-point vibrational energy     292541.6 (Joules/Mol)
                                   69.91913 (Kcal/Mol)
 Warning -- explicit consideration of   8 degrees of freedom as
           vibrations may cause significant error
 Vibrational temperatures:    196.59   298.31   312.39   352.84   418.33
          (Kelvin)            502.84   676.24   722.90  1188.42  1304.09
                             1347.18  1374.39  1378.77  1643.28  1703.65
                             1730.17  1950.48  1952.71  2004.73  2038.23
                             2052.04  2148.12  2159.80  2168.69  2197.68
                             4324.39  4388.40  4396.87  4489.01  4507.17
                             4511.49  4529.68  5399.38

 Zero-point correction=                           0.111423 (Hartree/Particle)
 Thermal correction to Energy=                    0.118135
 Thermal correction to Enthalpy=                  0.119079
 Thermal correction to Gibbs Free Energy=         0.081882
 Sum of electronic and zero-point Energies=           -269.388724
 Sum of electronic and thermal Energies=              -269.382012
 Sum of electronic and thermal Enthalpies=            -269.381068
 Sum of electronic and thermal Free Energies=         -269.418265

                     E (Thermal)             CV                S
                      KCal/Mol        Cal/Mol-Kelvin    Cal/Mol-Kelvin
 Total                   74.131             23.037             78.287
 Electronic               0.000              0.000              0.000
 Translational            0.889              2.981             38.902
 Rotational               0.889              2.981             25.748
 Vibrational             72.353             17.075             13.637
 Vibration     1          0.614              1.917              2.850
 Vibration     2          0.641              1.829              2.067
 Vibration     3          0.646              1.815              1.983
 Vibration     4          0.660              1.771              1.765
 Vibration     5          0.687              1.691              1.470
 Vibration     6          0.727              1.576              1.168
 Vibration     7          0.827              1.317              0.738
 Vibration     8          0.858              1.245              0.652

 Optimization completed.
    -- Stationary point found.
 Normal termination of Gaussian 09 at Thu Sep  8 15:25:54 2022.
