 Gaussian 09, Revision E.01,
 Gaussian 09:  ES64L-G09RevE.01 30-Nov-2015

 ----------------------------
 #P OPT Freq B3LYP/6-31G(d,p)
 ----------------------------

 --------
 Frag_803
 --------
 Symbolic Z-matrix:
 Charge =  0 Multiplicity = 1

 SCF Done:  E(RB3LYP) =  -343.186169396     A.U. after   14 cycles
 SCF Done:  E(RB3LYP) =  -343.186238361     A.U. after   10 cycles
 SCF Done:  E(RB3LYP) =  -343.186226869     A.U. after   11 cycles
 SCF Done:  E(RB3LYP) =  -343.186247273     A.U. after   11 cycles
 SCF Done:  E(RB3LYP) =  -343.186248893     A.U. after    8 cycles
 SCF Done:  E(RB3LYP) =  -343.186249612     A.U. after    8 cycles
 SCF Done:  E(RB3LYP) =  -343.186249825     A.U. after    7 cycles
 SCF Done:  E(RB3LYP) =  -343.186249899     A.U. after    7 cycles
 Optimization completed.
    -- Stationary point found.
 Normal termination of Gaussian 09 at Thu Sep  8 15:12:57 2022.

 ----------------------------------------------------------------------
 #P Geom=AllCheck Guess=TCheck SCRF=Check GenChk RB3LYP/6-31G(d,p) Freq
 ----------------------------------------------------------------------

 Structure from the checkpoint file:  "B3LYP6-31Gdp.Frag_803.chk"
 --------
 Frag_803
 --------
 Charge =  0 Multiplicity = 1

                         Standard orientation:
 ---------------------------------------------------------------------
 Center     Atomic      Atomic             Coordinates (Angstroms)
 Number     Number       Type             X           Y           Z
 ---------------------------------------------------------------------
      1          6           0       -1.271290   -0.914080   -0.979027
      2          6           0       -0.578993    0.041496   -0.004243
      3          6           0       -1.087243   -0.150775    1.428740
      4          8           0       -0.887929    1.408532   -0.337929
      5          6           0        0.950843   -0.184694   -0.020889
      6          7           0        1.388959   -1.387640    0.048477
      7          7           0        1.681999    0.977637   -0.116012
      8          1           0       -1.008842   -1.946203   -0.743486
      9          1           0       -0.945208   -0.719915   -2.008109
     10          1           0       -2.356122   -0.783353   -0.924731
     11          1           0       -0.612317    0.570408    2.100843
     12          1           0       -2.168824    0.008190    1.463349
     13          1           0       -0.852090   -1.158999    1.774543
     14          1           0       -0.781505    1.503072   -1.294964
     15          1           0        2.412894   -1.409558    0.065802
     16          1           0        1.179238    1.835300    0.063619
     17          1           0        2.659606    0.951142    0.131824
 ---------------------------------------------------------------------

 SCF Done:  E(RB3LYP) =  -343.186249899     A.U. after    1 cycles

 The electronic state is 1-A.
 Alpha  occ. eigenvalues --  -19.15194 -14.34481 -14.28399 -10.24765 -10.24700
 Alpha  occ. eigenvalues --  -10.17223 -10.17175  -1.02744  -0.93340  -0.84035
 Alpha  occ. eigenvalues --   -0.77014  -0.68873  -0.62982  -0.55496  -0.52703
 Alpha  occ. eigenvalues --   -0.51424  -0.46390  -0.43891  -0.43355  -0.39848
 Alpha  occ. eigenvalues --   -0.37813  -0.36354  -0.35470  -0.34573  -0.32260
 Alpha  occ. eigenvalues --   -0.29183  -0.24639  -0.23122
 Alpha virt. eigenvalues --    0.03979   0.06986   0.09480   0.12049   0.13801
 Alpha virt. eigenvalues --    0.14925   0.15866   0.16187   0.18025   0.20209
 Alpha virt. eigenvalues --    0.21169   0.22223   0.24098   0.26547   0.28714

 Mulliken charges:
               1
     1  C   -0.316380
     2  C    0.234509
     3  C   -0.292717
     4  O   -0.569172
     5  C    0.441283
     6  N   -0.589581
     7  N   -0.626883
     8  H    0.145107
     9  H    0.090955
    10  H    0.104010
    11  H    0.102728
    12  H    0.109522
    13  H    0.129816
    14  H    0.305857
    15  H    0.199940
    16  H    0.275434
    17  H    0.255573
 Sum of Mulliken charges =  -0.00000

 Dipole moment (field-independent basis, Debye):
    X=              1.0596    Y=              1.9434    Z=             -0.4238  Tot=              2.2537
 Quadrupole moment (field-independent basis, Debye-Ang):
   XX=            -37.4857   YY=            -46.5039   ZZ=            -41.6698
   XY=              4.5644   XZ=              2.1033   YZ=             -0.9795

  Exact polarizability:  64.867  -0.722  63.187   0.613  -0.863  48.713
 Approx polarizability:  83.656  -3.935 102.055   0.500  -3.453  65.748

                      1                      2                      3
                      A                      A                      A
 Frequencies --     54.9162               224.4597               246.5105
 Red. masses --      4.7158                 1.2599                 1.6114
 Frc consts  --      0.0084                 0.0374                 0.0577
 IR Inten    --      5.9997                 1.1417                 5.6452

                      4                      5                      6
                      A                      A                      A
 Frequencies --    262.2996               297.1925               332.0961
 Red. masses --      1.2106                 1.9600                 1.4554
 Frc consts  --      0.0491                 0.1020                 0.0946
 IR Inten    --      1.9895                 3.6972               119.7870

                      7                      8                      9
                      A                      A                      A
 Frequencies --    342.6117               388.5502               418.0695
 Red. masses --      1.9951                 3.1840                 2.0630
 Frc consts  --      0.1380                 0.2832                 0.2124
 IR Inten    --     13.6056                10.4619                42.1444

                     10                     11                     12
                      A                      A                      A
 Frequencies --    446.9872               528.8436               536.8695
 Red. masses --      1.5392                 3.8391                 2.3858
 Frc consts  --      0.1812                 0.6326                 0.4052
 IR Inten    --    127.3677                 4.3523                23.0758

                     13                     14                     15
                      A                      A                      A
 Frequencies --    598.3713               701.9829               712.5472
 Red. masses --      1.1398                 3.3343                 3.0281
 Frc consts  --      0.2404                 0.9681                 0.9058
 IR Inten    --     54.6738                 5.2757                14.4826

                     16                     17                     18
                      A                      A                      A
 Frequencies --    853.9610               886.3191               949.4826
 Red. masses --      1.4093                 2.3505                 1.4853
 Frc consts  --      0.6055                 1.0879                 0.7889
 IR Inten    --     62.6952                 2.3557                 0.8032

                     19                     20                     21
                      A                      A                      A
 Frequencies --    980.3689              1024.7846              1101.1218
 Red. masses --      2.1877                 1.3059                 1.5540
 Frc consts  --      1.2389                 0.8081                 1.1101
 IR Inten    --     50.1602                 3.5631                 2.3627

                     22                     23                     24
                      A                      A                      A
 Frequencies --   1127.2249              1138.1868              1224.6579
 Red. masses --      1.6405                 1.6834                 2.6372
 Frc consts  --      1.2281                 1.2849                 2.3303
 IR Inten    --     58.9277                56.7944                39.6533

                     25                     26                     27
                      A                      A                      A
 Frequencies --   1236.8382              1358.5306              1407.6848
 Red. masses --      2.2579                 1.5298                 1.3525
 Frc consts  --      2.0351                 1.6634                 1.5790
 IR Inten    --     30.8072                33.7133                18.5865

                     28                     29                     30
                      A                      A                      A
 Frequencies --   1413.0430              1429.4861              1492.6365
 Red. masses --      1.7620                 1.5653                 1.0502
 Frc consts  --      2.0729                 1.8846                 1.3786
 IR Inten    --     41.2640                68.2915                 0.3867

                     31                     32                     33
                      A                      A                      A
 Frequencies --   1498.3653              1511.1898              1521.5137
 Red. masses --      1.0496                 1.0631                 1.0657
 Frc consts  --      1.3884                 1.4304                 1.4536
 IR Inten    --      1.4043                 6.9658                 3.0990

                     34                     35                     36
                      A                      A                      A
 Frequencies --   1609.2287              1728.7322              3041.2003
 Red. masses --      1.2325                 7.3455                 1.0411
 Frc consts  --      1.8805                12.9339                 5.6734
 IR Inten    --    106.0016               184.7695                26.4192

                     37                     38                     39
                      A                      A                      A
 Frequencies --   3056.9986              3112.0511              3128.2672
 Red. masses --      1.0357                 1.0986                 1.1027
 Frc consts  --      5.7027                 6.2686                 6.3582
 IR Inten    --     13.9435                27.1847                27.9683

                     40                     41                     42
                      A                      A                      A
 Frequencies --   3157.1642              3164.8618              3438.3938
 Red. masses --      1.1025                 1.1003                 1.0748
 Frc consts  --      6.4748                 6.4933                 7.4865
 IR Inten    --      5.6499                10.9132                18.1328

                     43                     44                     45
                      A                      A                      A
 Frequencies --   3575.7529              3707.3821              3796.6275
 Red. masses --      1.0453                 1.1026                 1.0660
 Frc consts  --      7.8742                 8.9288                 9.0535
 IR Inten    --     30.5874                36.5500                13.6267

 - Thermochemistry -
 -------------------
 Temperature   298.150 Kelvin.  Pressure   1.00000 Atm.
 Atom     1 has atomic number  6 and mass  12.00000

 Molecular mass:   102.07931 amu.
 Principal axes and moments of inertia in atomic units:
                           1         2         3
     Eigenvalues --   544.88583 755.22707 907.28420
           X            0.99605   0.08860   0.00548
           Y           -0.08870   0.99580   0.02291
           Z           -0.00343  -0.02330   0.99972
 This molecule is an asymmetric top.
 Rotational symmetry number  1.
 Warning -- assumption of classical behavior for rotation
           may cause significant error
 Rotational temperatures (Kelvin)      0.15896     0.11469     0.09546
 Rotational constants (GHZ):           3.31215     2.38967     1.98917
 Zero-point vibrational energy     387376.9 (Joules/Mol)
                                   92.58530 (Kcal/Mol)
 Warning -- explicit consideration of  13 degrees of freedom as
           vibrations may cause significant error
 Vibrational temperatures:     79.01   322.95   354.67   377.39   427.59
          (Kelvin)            477.81   492.94   559.04   601.51   643.11
                              760.89   772.43   860.92  1010.00  1025.20
                             1228.66  1275.21  1366.09  1410.53  1474.43
                             1584.27  1621.82  1637.59  1762.01  1779.53
                             1954.62  2025.34  2033.05  2056.71  2147.57
                             2155.81  2174.26  2189.12  2315.32  2487.26
                             4375.60  4398.33  4477.54  4500.87  4542.45
                             4553.52  4947.08  5144.70  5334.09  5462.49

 Zero-point correction=                           0.147544 (Hartree/Particle)
 Thermal correction to Energy=                    0.155913
 Thermal correction to Enthalpy=                  0.156857
 Thermal correction to Gibbs Free Energy=         0.115549
 Sum of electronic and zero-point Energies=           -343.038706
 Sum of electronic and thermal Energies=              -343.030337
 Sum of electronic and thermal Enthalpies=            -343.029393
 Sum of electronic and thermal Free Energies=         -343.070701

                     E (Thermal)             CV                S
                      KCal/Mol        Cal/Mol-Kelvin    Cal/Mol-Kelvin
 Total                   97.837             31.674             86.941
 Electronic               0.000              0.000              0.000
 Translational            0.889              2.981             39.779
 Rotational               0.889              2.981             27.415
 Vibrational             96.059             25.712             19.747
 Vibration     1          0.596              1.976              4.632
 Vibration     2          0.649              1.804              1.923
 Vibration     3          0.661              1.769              1.755
 Vibration     4          0.670              1.742              1.646
 Vibration     5          0.691              1.679              1.433
 Vibration     6          0.714              1.611              1.250
 Vibration     7          0.722              1.590              1.200
 Vibration     8          0.757              1.495              1.006
 Vibration     9          0.781              1.431              0.899
 Vibration    10          0.806              1.368              0.805
 Vibration    11          0.884              1.186              0.590
 Vibration    12          0.892              1.168              0.572
 Vibration    13          0.956              1.035              0.452

 Optimization completed.
    -- Stationary point found.
 Normal termination of Gaussian 09 at Thu Sep  8 15:13:13 2022.
