 Gaussian 09, Revision E.01,
 Gaussian 09:  ES64L-G09RevE.01 30-Nov-2015

 ----------------------------
 #P OPT Freq B3LYP/6-31G(d,p)
 ----------------------------

 --------
 Frag_643
 --------
 Symbolic Z-matrix:
 Charge =  0 Multiplicity = 1

 SCF Done:  E(RB3LYP) =  -300.440415880     A.U. after   14 cycles
 SCF Done:  E(RB3LYP) =  -300.440555021     A.U. after   10 cycles
 SCF Done:  E(RB3LYP) =  -300.440568036     A.U. after   11 cycles
 SCF Done:  E(RB3LYP) =  -300.440565099     A.U. after   11 cycles
 SCF Done:  E(RB3LYP) =  -300.440579746     A.U. after    9 cycles
 SCF Done:  E(RB3LYP) =  -300.440580768     A.U. after    8 cycles
 SCF Done:  E(RB3LYP) =  -300.440580884     A.U. after    7 cycles
 Optimization completed.
    -- Stationary point found.
 Normal termination of Gaussian 09 at Thu Sep  8 15:06:42 2022.

 ----------------------------------------------------------------------
 #P Geom=AllCheck Guess=TCheck SCRF=Check GenChk RB3LYP/6-31G(d,p) Freq
 ----------------------------------------------------------------------

 Structure from the checkpoint file:  "B3LYP6-31Gdp.Frag_643.chk"
 --------
 Frag_643
 --------
 Charge =  0 Multiplicity = 1

                         Standard orientation:
 ---------------------------------------------------------------------
 Center     Atomic      Atomic             Coordinates (Angstroms)
 Number     Number       Type             X           Y           Z
 ---------------------------------------------------------------------
      1          7           0       -1.851244    0.069919   -0.045388
      2          7           0       -0.626420   -0.613445   -0.043453
      3          6           0        0.532770    0.165692   -0.006808
      4          8           0        0.587738    1.365421   -0.012374
      5          8           0        1.660975   -0.609128    0.033817
      6          1           0       -2.218109    0.186109    0.896328
      7          1           0       -2.514975   -0.446893   -0.611210
      8          1           0       -0.571727   -1.477482    0.490913
      9          1           0        1.462131   -1.501546   -0.284838
 ---------------------------------------------------------------------

 SCF Done:  E(RB3LYP) =  -300.440580884     A.U. after    1 cycles

 The electronic state is 1-A.
 Alpha  occ. eigenvalues --  -19.18962 -19.11858 -14.39440 -14.36705 -10.33297
 Alpha  occ. eigenvalues --   -1.10055  -1.01467  -0.98528  -0.80448  -0.61614
 Alpha  occ. eigenvalues --   -0.57766  -0.53985  -0.51821  -0.44004  -0.42619
 Alpha  occ. eigenvalues --   -0.38805  -0.31557  -0.28746  -0.27299  -0.26314
 Alpha virt. eigenvalues --    0.04085   0.04562   0.06587   0.11832   0.14683
 Alpha virt. eigenvalues --    0.19421   0.22800   0.35449   0.39449   0.54062
 Alpha virt. eigenvalues --    0.56142   0.59107   0.64933   0.65533   0.69241

 Mulliken charges:
               1
     1  N   -0.426207
     2  N   -0.467665
     3  C    0.751242
     4  O   -0.440601
     5  O   -0.505227
     6  H    0.259246
     7  H    0.264709
     8  H    0.251001
     9  H    0.313501
 Sum of Mulliken charges =  -0.00000

 Dipole moment (field-independent basis, Debye):
    X=             -2.7431    Y=             -5.1119    Z=              0.8794  Tot=              5.8677
 Quadrupole moment (field-independent basis, Debye-Ang):
   XX=            -25.9063   YY=            -28.2463   ZZ=            -27.1218
   XY=             -0.5100   XZ=             -2.3733   YZ=              0.5473

  Exact polarizability:  36.995  -0.800  34.246   0.058   0.748  19.560
 Approx polarizability:  46.473  -0.739  56.208   1.171   1.346  27.100

                      1                      2                      3
                      A                      A                      A
 Frequencies --    169.7194               211.6377               315.0934
 Red. masses --      1.8492                 1.9813                 2.9182
 Frc consts  --      0.0314                 0.0523                 0.1707
 IR Inten    --     33.5549                43.8567                 2.7741

                      4                      5                      6
                      A                      A                      A
 Frequencies --    414.1572               509.1595               565.0298
 Red. masses --      1.2745                 2.3847                 1.8327
 Frc consts  --      0.1288                 0.3642                 0.3447
 IR Inten    --    119.1335                40.7746                44.1896

                      7                      8                      9
                      A                      A                      A
 Frequencies --    678.5583               744.8129               830.3730
 Red. masses --      3.2223                 6.4083                 1.7313
 Frc consts  --      0.8742                 2.0945                 0.7033
 IR Inten    --     28.4987                24.7042               164.5418

                     10                     11                     12
                      A                      A                      A
 Frequencies --    986.2063              1139.7775              1215.3201
 Red. masses --      4.4401                 2.4978                 2.1389
 Frc consts  --      2.5443                 1.9119                 1.8614
 IR Inten    --      5.9535                43.8439                12.2991

                     13                     14                     15
                      A                      A                      A
 Frequencies --   1306.2489              1330.9438              1507.3904
 Red. masses --      1.9226                 1.1878                 1.4851
 Frc consts  --      1.9328                 1.2397                 1.9882
 IR Inten    --    400.1813                 9.7585                61.8974

                     16                     17                     18
                      A                      A                      A
 Frequencies --   1691.1833              1910.7220              3484.3982
 Red. masses --      1.1092                 9.3792                 1.0489
 Frc consts  --      1.8691                20.1748                 7.5032
 IR Inten    --     16.1348               337.0674                 4.7577

                     19                     20                     21
                      A                      A                      A
 Frequencies --   3488.8190              3601.6196              3792.4691
 Red. masses --      1.0750                 1.0961                 1.0655
 Frc consts  --      7.7090                 8.3769                 9.0290
 IR Inten    --      9.8546                 2.3578                24.9489

 - Thermochemistry -
 -------------------
 Temperature   298.150 Kelvin.  Pressure   1.00000 Atm.
 Atom     1 has atomic number  7 and mass  14.00307

 Molecular mass:    76.02728 amu.
 Principal axes and moments of inertia in atomic units:
                           1         2         3
     Eigenvalues --   169.85971 434.80702 593.43554
           X            0.99993  -0.00638  -0.00982
           Y            0.00640   0.99998   0.00282
           Z            0.00980  -0.00288   0.99995
 This molecule is an asymmetric top.
 Rotational symmetry number  1.
 Rotational temperatures (Kelvin)      0.50991     0.19920     0.14595
 Rotational constants (GHZ):          10.62489     4.15067     3.04117
 Zero-point vibrational energy     178803.7 (Joules/Mol)
                                   42.73510 (Kcal/Mol)
 Warning -- explicit consideration of   6 degrees of freedom as
           vibrations may cause significant error
 Vibrational temperatures:    244.19   304.50   453.35   595.88   732.57
          (Kelvin)            812.95   976.29  1071.62  1194.72  1418.93
                             1639.88  1748.57  1879.40  1914.93  2168.80
                             2433.23  2749.10  5013.27  5019.63  5181.92
                             5456.51

 Zero-point correction=                           0.068103 (Hartree/Particle)
 Thermal correction to Energy=                    0.073575
 Thermal correction to Enthalpy=                  0.074519
 Thermal correction to Gibbs Free Energy=         0.039794
 Sum of electronic and zero-point Energies=           -300.372478
 Sum of electronic and thermal Energies=              -300.367006
 Sum of electronic and thermal Enthalpies=            -300.366062
 Sum of electronic and thermal Free Energies=         -300.400787

                     E (Thermal)             CV                S
                      KCal/Mol        Cal/Mol-Kelvin    Cal/Mol-Kelvin
 Total                   46.169             18.546             73.086
 Electronic               0.000              0.000              0.000
 Translational            0.889              2.981             38.901
 Rotational               0.889              2.981             25.286
 Vibrational             44.392             12.584              8.899
 Vibration     1          0.625              1.880              2.439
 Vibration     2          0.643              1.823              2.030
 Vibration     3          0.702              1.645              1.335
 Vibration     4          0.778              1.439              0.912
 Vibration     5          0.864              1.230              0.636
 Vibration     6          0.921              1.107              0.514

 Normal termination of Gaussian 09 at Thu Sep  8 15:06:49 2022.
