 Gaussian 09, Revision E.01,
 Gaussian 09:  ES64L-G09RevE.01 30-Nov-2015

 ----------------------------
 #P OPT Freq B3LYP/6-31G(d,p)
 ----------------------------

 ---------
 Frag_1045
 ---------
 Symbolic Z-matrix:
 Charge =  0 Multiplicity = 1

 SCF Done:  E(RB3LYP) =  -355.394041524     A.U. after   14 cycles
 SCF Done:  E(RB3LYP) =  -355.394109612     A.U. after    9 cycles
 SCF Done:  E(RB3LYP) =  -355.394113184     A.U. after    9 cycles
 SCF Done:  E(RB3LYP) =  -355.394108718     A.U. after   11 cycles
 SCF Done:  E(RB3LYP) =  -355.394116288     A.U. after    9 cycles
 SCF Done:  E(RB3LYP) =  -355.394117375     A.U. after    7 cycles
 SCF Done:  E(RB3LYP) =  -355.394118323     A.U. after    8 cycles
 SCF Done:  E(RB3LYP) =  -355.394118633     A.U. after    8 cycles
 SCF Done:  E(RB3LYP) =  -355.394118871     A.U. after    8 cycles
 Optimization completed.
    -- Stationary point found.
 Normal termination of Gaussian 09 at Thu Sep  8 14:45:51 2022.

 ----------------------------------------------------------------------
 #P Geom=AllCheck Guess=TCheck SCRF=Check GenChk RB3LYP/6-31G(d,p) Freq
 ----------------------------------------------------------------------

 Structure from the checkpoint file:  "B3LYP6-31Gdp.Frag_1045.chk"
 ---------
 Frag_1045
 ---------
 Charge =  0 Multiplicity = 1

                         Standard orientation:
 ---------------------------------------------------------------------
 Center     Atomic      Atomic             Coordinates (Angstroms)
 Number     Number       Type             X           Y           Z
 ---------------------------------------------------------------------
      1          7           0       -1.497443    1.300144    0.000151
      2          6           0       -0.946658    0.144475   -0.001304
      3          7           0       -1.561376   -1.093378    0.057555
      4          6           0        0.602553    0.027938    0.005062
      5          7           0        0.944272   -0.945806   -1.053047
      6          7           0        1.173381    1.353171   -0.098133
      7          7           0        1.117961   -0.571804    1.240329
      8          1           0       -2.518956    1.229648    0.009693
      9          1           0       -2.556228   -1.111040   -0.119561
     10          1           0       -1.029168   -1.819222   -0.412232
     11          1           0        0.850384   -0.509559   -1.967989
     12          1           0        1.917405   -1.212994   -0.921028
     13          1           0        0.512029    1.995499   -0.522615
     14          1           0        2.054913    1.337109   -0.596821
     15          1           0        0.548994   -1.371072    1.509757
     16          1           0        1.047692    0.130867    1.970265
 ---------------------------------------------------------------------

 SCF Done:  E(RB3LYP) =  -355.394118871     A.U. after    1 cycles

 The electronic state is 1-A.
 Alpha  occ. eigenvalues --  -14.34299 -14.31864 -14.30527 -14.29862 -14.29520
 Alpha  occ. eigenvalues --  -10.26990 -10.25096  -0.96215  -0.91484  -0.85164
 Alpha  occ. eigenvalues --   -0.83414  -0.82262  -0.65068  -0.55863  -0.52631
 Alpha  occ. eigenvalues --   -0.52301  -0.48925  -0.48008  -0.45776  -0.41519
 Alpha  occ. eigenvalues --   -0.40650  -0.38157  -0.35166  -0.29168  -0.26638
 Alpha  occ. eigenvalues --   -0.24063  -0.23505  -0.21893
 Alpha virt. eigenvalues --    0.03282   0.07054   0.09631   0.12589   0.13698
 Alpha virt. eigenvalues --    0.14333   0.16216   0.16562   0.17710   0.19157
 Alpha virt. eigenvalues --    0.26219   0.26554   0.27548   0.30357   0.32276

 Mulliken charges:
               1
     1  N   -0.593510
     2  C    0.455840
     3  N   -0.614846
     4  C    0.300087
     5  N   -0.599626
     6  N   -0.591476
     7  N   -0.564327
     8  H    0.204572
     9  H    0.251685
    10  H    0.281922
    11  H    0.233808
    12  H    0.249024
    13  H    0.264585
    14  H    0.227447
    15  H    0.239318
    16  H    0.255496
 Sum of Mulliken charges =  -0.00000

 Dipole moment (field-independent basis, Debye):
    X=             -1.0974    Y=             -1.7790    Z=             -1.9474  Tot=              2.8569
 Quadrupole moment (field-independent basis, Debye-Ang):
   XX=            -36.2941   YY=            -45.8484   ZZ=            -39.6455
   XY=              3.4498   XZ=             -2.7795   YZ=             -1.4034

  Exact polarizability:  61.945  -2.483  61.043  -0.494  -1.049  43.680
 Approx polarizability:  81.365  -6.632  97.352   0.583  -2.377  60.694

                      1                      2                      3
                      A                      A                      A
 Frequencies --     87.2579               182.3686               259.8338
 Red. masses --      4.5325                 1.1704                 2.3922
 Frc consts  --      0.0203                 0.0229                 0.0952
 IR Inten    --      2.1397                40.5200                 5.5999

                      4                      5                      6
                      A                      A                      A
 Frequencies --    294.6322               351.7006               369.0021
 Red. masses --      2.2747                 1.1727                 1.6606
 Frc consts  --      0.1163                 0.0855                 0.1332
 IR Inten    --     12.1868                43.3550                12.0730

                      7                      8                      9
                      A                      A                      A
 Frequencies --    407.0383               437.8441               469.7131
 Red. masses --      3.7449                 2.2758                 2.0076
 Frc consts  --      0.3656                 0.2570                 0.2610
 IR Inten    --      2.4778                 2.2061                10.7082

                     10                     11                     12
                      A                      A                      A
 Frequencies --    498.7731               548.3128               576.9119
 Red. masses --      1.2678                 2.8908                 2.7654
 Frc consts  --      0.1858                 0.5121                 0.5423
 IR Inten    --     56.0988                24.5348                23.3059

                     13                     14                     15
                      A                      A                      A
 Frequencies --    665.2339               733.9608               735.6847
 Red. masses --      1.2985                 2.4669                 3.4878
 Frc consts  --      0.3386                 0.7830                 1.1122
 IR Inten    --    199.1638                94.0362                15.2038

                     16                     17                     18
                      A                      A                      A
 Frequencies --    748.3327               860.0079               869.3324
 Red. masses --      1.5203                 1.6581                 1.4708
 Frc consts  --      0.5016                 0.7225                 0.6549
 IR Inten    --    102.3254                43.6770               205.8428

                     19                     20                     21
                      A                      A                      A
 Frequencies --    928.3615               956.3368              1050.3253
 Red. masses --      1.7971                 1.5006                 2.0181
 Frc consts  --      0.9126                 0.8086                 1.3117
 IR Inten    --    188.8297                25.3851                57.7194

                     22                     23                     24
                      A                      A                      A
 Frequencies --   1107.8425              1134.2973              1158.5568
 Red. masses --      1.8371                 1.5233                 1.4406
 Frc consts  --      1.3284                 1.1548                 1.1393
 IR Inten    --      6.7767                46.5418                22.1527

                     25                     26                     27
                      A                      A                      A
 Frequencies --   1258.0109              1330.7163              1358.9971
 Red. masses --      2.0592                 1.6915                 1.7960
 Frc consts  --      1.9200                 1.7648                 1.9543
 IR Inten    --     62.5668                75.1742                 6.8744

                     28                     29                     30
                      A                      A                      A
 Frequencies --   1431.6194              1615.7284              1621.5400
 Red. masses --      2.5817                 1.1603                 1.1304
 Frc consts  --      3.1176                 1.7847                 1.7512
 IR Inten    --     69.8429                58.2286               127.3129

                     31                     32                     33
                      A                      A                      A
 Frequencies --   1635.4499              1648.4992              1741.1290
 Red. masses --      1.1315                 1.1216                 6.4576
 Frc consts  --      1.7832                 1.7959                11.5340
 IR Inten    --     36.1191                33.8403               154.7042

                     34                     35                     36
                      A                      A                      A
 Frequencies --   3443.3857              3483.4170              3505.2650
 Red. masses --      1.0749                 1.0485                 1.0497
 Frc consts  --      7.5095                 7.4961                 7.5991
 IR Inten    --     15.3568                 2.0304                 1.2312

                     37                     38                     39
                      A                      A                      A
 Frequencies --   3524.4996              3527.7379              3583.4884
 Red. masses --      1.0477                 1.0489                 1.0939
 Frc consts  --      7.6680                 7.6908                 8.2767
 IR Inten    --      9.8127                46.3235                 2.0819

                     40                     41                     42
                      A                      A                      A
 Frequencies --   3606.9856              3637.6613              3662.2259
 Red. masses --      1.0926                 1.0966                 1.0973
 Frc consts  --      8.3752                 8.5492                 8.6711
 IR Inten    --      4.1245                13.1032                30.2029

 - Thermochemistry -
 -------------------
 Temperature   298.150 Kelvin.  Pressure   1.00000 Atm.
 Atom     1 has atomic number  7 and mass  14.00307

 Molecular mass:   103.08580 amu.
 Principal axes and moments of inertia in atomic units:
                           1         2         3
     Eigenvalues --   528.21812 726.39811 904.62166
           X            0.99929   0.03546  -0.01290
           Y           -0.03562   0.99928  -0.01292
           Z            0.01243   0.01337   0.99983
 This molecule is an asymmetric top.
 Rotational symmetry number  1.
 Warning -- assumption of classical behavior for rotation
           may cause significant error
 Rotational temperatures (Kelvin)      0.16397     0.11924     0.09575
 Rotational constants (GHZ):           3.41666     2.48451     1.99502
 Zero-point vibrational energy     365148.2 (Joules/Mol)
                                   87.27252 (Kcal/Mol)
 Warning -- explicit consideration of  12 degrees of freedom as
           vibrations may cause significant error
 Vibrational temperatures:    125.54   262.39   373.84   423.91   506.02
          (Kelvin)            530.91   585.64   629.96   675.81   717.62
                              788.90   830.05   957.12  1056.00  1058.48
                             1076.68  1237.36  1250.77  1335.70  1375.95
                             1511.18  1593.94  1632.00  1666.90  1809.99
                             1914.60  1955.29  2059.78  2324.67  2333.03
                             2353.04  2371.82  2505.09  4954.26  5011.85
                             5043.29  5070.96  5075.62  5155.83  5189.64
                             5233.78  5269.12

 Zero-point correction=                           0.139078 (Hartree/Particle)
 Thermal correction to Energy=                    0.147056
 Thermal correction to Enthalpy=                  0.148000
 Thermal correction to Gibbs Free Energy=         0.107710
 Sum of electronic and zero-point Energies=           -355.255041
 Sum of electronic and thermal Energies=              -355.247063
 Sum of electronic and thermal Enthalpies=            -355.246119
 Sum of electronic and thermal Free Energies=         -355.286409

                     E (Thermal)             CV                S
                      KCal/Mol        Cal/Mol-Kelvin    Cal/Mol-Kelvin
 Total                   92.279             30.938             84.798
 Electronic               0.000              0.000              0.000
 Translational            0.889              2.981             39.809
 Rotational               0.889              2.981             27.342
 Vibrational             90.501             24.976             17.647
 Vibration     1          0.601              1.958              3.721
 Vibration     2          0.630              1.864              2.304
 Vibration     3          0.668              1.746              1.663
 Vibration     4          0.689              1.684              1.447
 Vibration     5          0.728              1.572              1.159
 Vibration     6          0.741              1.536              1.084
 Vibration     7          0.772              1.455              0.937
 Vibration     8          0.798              1.388              0.833
 Vibration     9          0.827              1.317              0.738
 Vibration    10          0.854              1.253              0.661
 Vibration    11          0.904              1.143              0.548
 Vibration    12          0.933              1.081              0.491

 Optimization completed.
    -- Stationary point found.
 Normal termination of Gaussian 09 at Thu Sep  8 14:46:07 2022.
