 Gaussian 09, Revision E.01,
 Gaussian 09:  ES64L-G09RevE.01 30-Nov-2015

 ----------------------------
 #P OPT Freq B3LYP/6-31G(d,p)
 ----------------------------

 --------
 Frag_744
 --------
 Symbolic Z-matrix:
 Charge =  0 Multiplicity = 1

 SCF Done:  E(RB3LYP) =  -288.947449604     A.U. after   14 cycles
 SCF Done:  E(RB3LYP) =  -288.947494604     A.U. after    9 cycles
 SCF Done:  E(RB3LYP) =  -288.947497244     A.U. after    9 cycles
 SCF Done:  E(RB3LYP) =  -288.947499806     A.U. after    8 cycles
 SCF Done:  E(RB3LYP) =  -288.947500265     A.U. after    7 cycles
 Optimization completed.
    -- Stationary point found.
 Normal termination of Gaussian 09 at Thu Sep  8 15:05:03 2022.

 ----------------------------------------------------------------------
 #P Geom=AllCheck Guess=TCheck SCRF=Check GenChk RB3LYP/6-31G(d,p) Freq
 ----------------------------------------------------------------------

 Structure from the checkpoint file:  "B3LYP6-31Gdp.Frag_744.chk"
 --------
 Frag_744
 --------
 Charge =  0 Multiplicity = 1

                         Standard orientation:
 ---------------------------------------------------------------------
 Center     Atomic      Atomic             Coordinates (Angstroms)
 Number     Number       Type             X           Y           Z
 ---------------------------------------------------------------------
      1          6           0        2.102826   -0.019959   -0.004592
      2          6           0        0.826636   -0.667049   -0.511565
      3          7           0       -0.418907    0.000584    0.078854
      4          6           0       -0.563004    1.403619   -0.445826
      5          6           0       -1.620884   -0.799023   -0.337216
      6          8           0       -0.350366    0.026459    1.432590
      7          1           0        2.304955    0.944150   -0.480706
      8          1           0        2.954293   -0.675658   -0.208106
      9          1           0        1.997635    0.120178    1.073425
     10          1           0        0.748973   -0.659085   -1.605213
     11          1           0        0.762494   -1.697284   -0.156249
     12          1           0       -1.471328    1.805822    0.000235
     13          1           0       -0.617148    1.428513   -1.539306
     14          1           0        0.289991    1.972455   -0.083160
     15          1           0       -1.713571   -0.863096   -1.426763
     16          1           0       -1.504984   -1.786790    0.106166
     17          1           0       -2.489484   -0.310487    0.102169
 ---------------------------------------------------------------------

 SCF Done:  E(RB3LYP) =  -288.947500265     A.U. after    1 cycles

 The electronic state is 1-A.
 Alpha  occ. eigenvalues --  -19.04338 -14.46043 -10.22375 -10.21875 -10.21800
 Alpha  occ. eigenvalues --  -10.17652  -1.03846  -0.81545  -0.76515  -0.73032
 Alpha  occ. eigenvalues --   -0.65978  -0.58567  -0.50507  -0.49273  -0.46953
 Alpha  occ. eigenvalues --   -0.44478  -0.42272  -0.40599  -0.38801  -0.38193
 Alpha  occ. eigenvalues --   -0.36933  -0.35826  -0.34815  -0.18490  -0.18313
 Alpha virt. eigenvalues --    0.06605   0.11020   0.11393   0.12527   0.13129
 Alpha virt. eigenvalues --    0.14008   0.15280   0.16339   0.17840   0.18110
 Alpha virt. eigenvalues --    0.18459   0.19914   0.20926   0.22319   0.24224

 Mulliken charges:
               1
     1  C   -0.340337
     2  C   -0.019117
     3  N   -0.111065
     4  C   -0.146673
     5  C   -0.139799
     6  O   -0.577375
     7  H    0.100806
     8  H    0.106306
     9  H    0.164438
    10  H    0.092940
    11  H    0.122800
    12  H    0.136555
    13  H    0.097261
    14  H    0.142596
    15  H    0.096495
    16  H    0.138616
    17  H    0.135554
 Sum of Mulliken charges =  -0.00000

 Dipole moment (field-independent basis, Debye):
    X=             -0.1918    Y=             -0.0923    Z=             -4.1352  Tot=              4.1407
 Quadrupole moment (field-independent basis, Debye-Ang):
   XX=            -35.5351   YY=            -35.8146   ZZ=            -44.5178
   XY=             -0.1393   XZ=              1.6077   YZ=             -0.2062

  Exact polarizability:  61.068  -0.190  53.324   0.646  -0.129  54.509
 Approx polarizability:  75.574  -0.553  71.925   0.022  -0.013  87.717

                      1                      2                      3
                      A                      A                      A
 Frequencies --    118.6130               218.2758               250.2093
 Red. masses --      1.8538                 1.0558                 1.1726
 Frc consts  --      0.0154                 0.0296                 0.0433
 IR Inten    --      2.0449                 1.8039                 3.2563

                      4                      5                      6
                      A                      A                      A
 Frequencies --    279.5668               288.3551               372.2428
 Red. masses --      1.2445                 1.9069                 2.6202
 Frc consts  --      0.0573                 0.0934                 0.2139
 IR Inten    --      0.1932                 3.2892                11.8585

                      7                      8                      9
                      A                      A                      A
 Frequencies --    399.9886               436.3423               485.7523
 Red. masses --      2.7296                 2.5111                 3.3285
 Frc consts  --      0.2573                 0.2817                 0.4627
 IR Inten    --      6.6500                 9.4999                13.4073

                     10                     11                     12
                      A                      A                      A
 Frequencies --    542.5623               700.7858               796.7546
 Red. masses --      3.2444                 3.3126                 1.2636
 Frc consts  --      0.5627                 0.9585                 0.4726
 IR Inten    --      7.3281                 1.2978                 1.6706

                     13                     14                     15
                      A                      A                      A
 Frequencies --    889.0725               924.1288               973.4624
 Red. masses --      2.1473                 1.9254                 4.5027
 Frc consts  --      1.0000                 0.9688                 2.5140
 IR Inten    --      1.5406                 1.0922                33.4681

                     16                     17                     18
                      A                      A                      A
 Frequencies --   1006.8317              1075.8673              1114.7061
 Red. masses --      1.8015                 1.3830                 1.7407
 Frc consts  --      1.0760                 0.9432                 1.2744
 IR Inten    --      4.7233                 1.6107                 3.1059

                     19                     20                     21
                      A                      A                      A
 Frequencies --   1134.6836              1210.5631              1238.2969
 Red. masses --      1.4504                 1.8444                 2.1235
 Frc consts  --      1.1003                 1.5925                 1.9185
 IR Inten    --      2.1586                10.7684                 0.5217

                     22                     23                     24
                      A                      A                      A
 Frequencies --   1265.6485              1331.0555              1381.2213
 Red. masses --      1.9164                 1.2916                 1.2363
 Frc consts  --      1.8087                 1.3482                 1.3896
 IR Inten    --      2.3247                 4.1048                 1.7275

                     25                     26                     27
                      A                      A                      A
 Frequencies --   1410.1873              1417.0584              1448.4692
 Red. masses --      1.2425                 1.2112                 1.2202
 Frc consts  --      1.4557                 1.4330                 1.5083
 IR Inten    --     11.0227                 8.5195                 3.7024

                     28                     29                     30
                      A                      A                      A
 Frequencies --   1472.7397              1487.5344              1492.6321
 Red. masses --      1.0633                 1.0600                 1.0530
 Frc consts  --      1.3589                 1.3820                 1.3823
 IR Inten    --      1.2338                 1.2102                 5.5314

                     31                     32                     33
                      A                      A                      A
 Frequencies --   1497.9703              1509.0727              1521.4871
 Red. masses --      1.0710                 1.0561                 1.0487
 Frc consts  --      1.4160                 1.4171                 1.4304
 IR Inten    --      9.0922                 9.8324                12.3133

                     34                     35                     36
                      A                      A                      A
 Frequencies --   1528.9349              3045.8177              3048.5992
 Red. masses --      1.0518                 1.0512                 1.0474
 Frc consts  --      1.4486                 5.7455                 5.7355
 IR Inten    --      3.0812                 2.1180                20.5471

                     37                     38                     39
                      A                      A                      A
 Frequencies --   3056.8504              3062.4292              3118.7029
 Red. masses --      1.0363                 1.0465                 1.1014
 Frc consts  --      5.7053                 5.7824                 6.3119
 IR Inten    --     29.3336                60.2166                 8.3001

                     40                     41                     42
                      A                      A                      A
 Frequencies --   3136.7301              3156.8665              3160.4558
 Red. masses --      1.1009                 1.1019                 1.0958
 Frc consts  --      6.3817                 6.4699                 6.4491
 IR Inten    --     26.8991                 1.2022                 9.2525

                     43                     44                     45
                      A                      A                      A
 Frequencies --   3168.8268              3193.1507              3204.8391
 Red. masses --      1.0954                 1.1067                 1.1052
 Frc consts  --      6.4805                 6.6486                 6.6883
 IR Inten    --     18.6439                 8.3203                 7.2965

 - Thermochemistry -
 -------------------
 Temperature   298.150 Kelvin.  Pressure   1.00000 Atm.
 Atom     1 has atomic number  6 and mass  12.00000

 Molecular mass:    89.08406 amu.
 Principal axes and moments of inertia in atomic units:
                           1         2         3
     Eigenvalues --   367.05970 652.04889 675.68813
           X            0.99971   0.00838   0.02267
           Y           -0.00765   0.99946  -0.03185
           Z           -0.02293   0.03167   0.99924
 This molecule is an asymmetric top.
 Rotational symmetry number  1.
 Rotational temperatures (Kelvin)      0.23597     0.13283     0.12819
 Rotational constants (GHZ):           4.91675     2.76780     2.67097
 Zero-point vibrational energy     404184.3 (Joules/Mol)
                                   96.60237 (Kcal/Mol)
 Warning -- explicit consideration of  10 degrees of freedom as
           vibrations may cause significant error
 Vibrational temperatures:    170.66   314.05   359.99   402.23   414.88
          (Kelvin)            535.57   575.49   627.80   698.89   780.63
                             1008.27  1146.35  1279.18  1329.61  1400.59
                             1448.60  1547.93  1603.81  1632.55  1741.73
                             1781.63  1820.98  1915.09  1987.27  2028.94
                             2038.83  2084.02  2118.94  2140.23  2147.56
                             2155.24  2171.22  2189.08  2199.79  4382.25
                             4386.25  4398.12  4406.15  4487.11  4513.05
                             4542.02  4547.19  4559.23  4594.23  4611.04

 Zero-point correction=                           0.153946 (Hartree/Particle)
 Thermal correction to Energy=                    0.161292
 Thermal correction to Enthalpy=                  0.162236
 Thermal correction to Gibbs Free Energy=         0.123573
 Sum of electronic and zero-point Energies=           -288.793555
 Sum of electronic and thermal Energies=              -288.786208
 Sum of electronic and thermal Enthalpies=            -288.785264
 Sum of electronic and thermal Free Energies=         -288.823927

                     E (Thermal)             CV                S
                      KCal/Mol        Cal/Mol-Kelvin    Cal/Mol-Kelvin
 Total                  101.212             27.377             81.373
 Electronic               0.000              0.000              0.000
 Translational            0.889              2.981             39.374
 Rotational               0.889              2.981             26.583
 Vibrational             99.435             21.415             15.416
 Vibration     1          0.609              1.934              3.123
 Vibration     2          0.646              1.813              1.973
 Vibration     3          0.663              1.762              1.729
 Vibration     4          0.680              1.711              1.536
 Vibration     5          0.685              1.695              1.484
 Vibration     6          0.744              1.529              1.071
 Vibration     7          0.766              1.470              0.963
 Vibration     8          0.797              1.391              0.838
 Vibration     9          0.842              1.282              0.695
 Vibration    10          0.898              1.156              0.560

 Optimization completed.
    -- Stationary point found.
 Normal termination of Gaussian 09 at Thu Sep  8 15:05:17 2022.
