 Gaussian 09, Revision E.01,
 Gaussian 09:  ES64L-G09RevE.01 30-Nov-2015

 --------------------------------
 #P OPT=calcfc Freq B3LYP/6-31G**
 --------------------------------

 --------
 Frag_292
 --------
 Symbolic Z-matrix:
 Charge =  0 Multiplicity = 1

 SCF Done:  E(RB3LYP) =  -292.444518820     A.U. after   12 cycles
 SCF Done:  E(RB3LYP) =  -292.448772709     A.U. after   11 cycles
 SCF Done:  E(RB3LYP) =  -292.448947529     A.U. after   10 cycles
 SCF Done:  E(RB3LYP) =  -292.448952027     A.U. after    9 cycles
 SCF Done:  E(RB3LYP) =  -292.448952701     A.U. after    7 cycles
 Optimization completed.
    -- Stationary point found.
 Normal termination of Gaussian 09 at Fri Sep 10 15:20:12 2021.

 ----------------------------------------------------------------------
 #P Geom=AllCheck Guess=TCheck SCRF=Check GenChk RB3LYP/6-31G(d,p) Freq
 ----------------------------------------------------------------------

 Structure from the checkpoint file:  "/public/home/users/caep010/.cache/gau_scr/Gau-136065.chk"
 --------
 Frag_292
 --------
 Charge =  0 Multiplicity = 1

                         Standard orientation:
 ---------------------------------------------------------------------
 Center     Atomic      Atomic             Coordinates (Angstroms)
 Number     Number       Type             X           Y           Z
 ---------------------------------------------------------------------
      1          6           0        1.707400    1.164172   -0.010096
      2          6           0        0.855037   -0.040806   -0.448706
      3          7           0        1.451613   -1.328049   -0.042622
      4          6           0       -0.643043    0.018610   -0.002061
      5          6           0       -1.269911    1.363892   -0.418770
      6          6           0       -0.780571   -0.154781    1.523874
      7          6           0       -1.408486   -1.119823   -0.705877
      8          1           0        2.737099    1.035347   -0.361861
      9          1           0        1.743829    1.255059    1.081874
     10          1           0        1.341142    2.112755   -0.413478
     11          1           0        0.840406   -0.050326   -1.547736
     12          1           0        1.696272   -1.291015    0.945453
     13          1           0        2.331534   -1.459988   -0.536385
     14          1           0       -0.857278    2.207930    0.142518
     15          1           0       -2.350559    1.349665   -0.239785
     16          1           0       -1.115935    1.561223   -1.486497
     17          1           0       -0.238659    0.619294    2.078360
     18          1           0       -0.412904   -1.133450    1.848016
     19          1           0       -1.833259   -0.088229    1.819710
     20          1           0       -2.454751   -1.142604   -0.380659
     21          1           0       -0.948609   -2.085833   -0.487636
     22          1           0       -1.402177   -0.981071   -1.793720
 ---------------------------------------------------------------------

 SCF Done:  E(RB3LYP) =  -292.448952701     A.U. after    1 cycles

 The electronic state is 1-A.
 Alpha  occ. eigenvalues --  -14.30661 -10.20670 -10.18787 -10.17121 -10.16651
 Alpha  occ. eigenvalues --  -10.16613 -10.15582  -0.88086  -0.79524  -0.71676
 Alpha  occ. eigenvalues --   -0.67655  -0.66981  -0.61244  -0.52305  -0.48377
 Alpha  occ. eigenvalues --   -0.44980  -0.43337  -0.42800  -0.41389  -0.39294
 Alpha  occ. eigenvalues --   -0.38549  -0.36989  -0.36584  -0.35295  -0.34430
 Alpha  occ. eigenvalues --   -0.31381  -0.30970  -0.30195  -0.22988
 Alpha virt. eigenvalues --    0.07102   0.10994   0.12112   0.12970   0.14411
 Alpha virt. eigenvalues --    0.14492   0.15979   0.16113   0.18295   0.19045
 Alpha virt. eigenvalues --    0.19851   0.20407   0.20787   0.21612   0.22823

 Mulliken charges:
               1
     1  C   -0.324215
     2  C    0.063117
     3  N   -0.594864
     4  C    0.062747
     5  C   -0.306162
     6  C   -0.318639
     7  C   -0.299119
     8  H    0.090272
     9  H    0.097553
    10  H    0.103958
    11  H    0.084175
    12  H    0.231837
    13  H    0.233399
    14  H    0.096400
    15  H    0.095556
    16  H    0.093356
    17  H    0.091484
    18  H    0.104726
    19  H    0.098229
    20  H    0.084979
    21  H    0.125822
    22  H    0.085388
 Sum of Mulliken charges =   0.00000

 Dipole moment (field-independent basis, Debye):
    X=              1.0518    Y=              0.7677    Z=              0.2602  Tot=              1.3280
 Quadrupole moment (field-independent basis, Debye-Ang):
   XX=            -43.9719   YY=            -50.2809   ZZ=            -46.2118
   XY=             -1.0406   XZ=             -0.1250   YZ=             -0.7607

  Exact polarizability:  76.872  -0.507  70.650  -0.375  -0.522  68.541
 Approx polarizability:  99.868  -1.955  96.927  -1.035  -0.931  99.149

                      1                      2                      3
                      A                      A                      A
 Frequencies --     84.9691               213.6403               229.8918
 Red. masses --      2.5850                 1.0498                 1.1605
 Frc consts  --      0.0110                 0.0282                 0.0361
 IR Inten    --      0.4285                10.3173                 7.9158

                      4                      5                      6
                      A                      A                      A
 Frequencies --    249.3070               253.3515               280.6463
 Red. masses --      1.2362                 1.3490                 1.5641
 Frc consts  --      0.0453                 0.0510                 0.0726
 IR Inten    --     12.3400                 2.3758                 4.4011

                      7                      8                      9
                      A                      A                      A
 Frequencies --    293.6518               303.2688               351.0408
 Red. masses --      1.3114                 1.4695                 2.1938
 Frc consts  --      0.0666                 0.0796                 0.1593
 IR Inten    --     12.5090                 4.1711                 0.3360

                     10                     11                     12
                      A                      A                      A
 Frequencies --    370.2060               383.1508               443.2499
 Red. masses --      2.2089                 2.1948                 2.1174
 Frc consts  --      0.1784                 0.1898                 0.2451
 IR Inten    --      2.0294                 0.5232                 2.3880

                     13                     14                     15
                      A                      A                      A
 Frequencies --    476.0345               540.9656               694.8393
 Red. masses --      2.7782                 2.3856                 2.7311
 Frc consts  --      0.3709                 0.4113                 0.7769
 IR Inten    --      6.9670                 0.2995                 1.1037

                     16                     17                     18
                      A                      A                      A
 Frequencies --    842.9806               880.5502               934.7693
 Red. masses --      2.3837                 1.6923                 1.6881
 Frc consts  --      0.9980                 0.7731                 0.8691
 IR Inten    --      4.9080               113.5470                 6.6312

                     19                     20                     21
                      A                      A                      A
 Frequencies --    936.7685               943.0551               963.3705
 Red. masses --      1.6152                 1.4784                 1.2253
 Frc consts  --      0.8351                 0.7747                 0.6700
 IR Inten    --      5.0423                 9.6656                 0.2018

                     22                     23                     24
                      A                      A                      A
 Frequencies --   1000.1373              1028.4164              1041.6906
 Red. masses --      1.2849                 1.6813                 1.3758
 Frc consts  --      0.7573                 1.0477                 0.8796
 IR Inten    --      2.2137                 3.8861                 0.8248

                     25                     26                     27
                      A                      A                      A
 Frequencies --   1101.5891              1137.0262              1196.4565
 Red. masses --      2.2471                 1.3793                 2.0178
 Frc consts  --      1.6066                 1.0507                 1.7018
 IR Inten    --     20.7520                10.1462                16.4039

                     28                     29                     30
                      A                      A                      A
 Frequencies --   1250.6142              1270.8846              1292.1692
 Red. masses --      2.5462                 2.4298                 2.2927
 Frc consts  --      2.3463                 2.3123                 2.2555
 IR Inten    --      2.0585                 2.0785                 1.9167

                     31                     32                     33
                      A                      A                      A
 Frequencies --   1364.9182              1404.8947              1406.9037
 Red. masses --      1.3385                 1.2681                 1.2448
 Frc consts  --      1.4692                 1.4747                 1.4517
 IR Inten    --      4.8411                 5.0017                 6.1255

                     34                     35                     36
                      A                      A                      A
 Frequencies --   1411.8902              1418.9726              1441.7200
 Red. masses --      1.2686                 1.2503                 1.2301
 Frc consts  --      1.4900                 1.4833                 1.5064
 IR Inten    --      2.8452                10.1854                 7.5614

                     37                     38                     39
                      A                      A                      A
 Frequencies --   1491.6453              1500.5214              1507.8062
 Red. masses --      1.0484                 1.0477                 1.0467
 Frc consts  --      1.3744                 1.3898                 1.4021
 IR Inten    --      0.2124                 0.8994                 1.0856

                     40                     41                     42
                      A                      A                      A
 Frequencies --   1509.5119              1513.7746              1522.1891
 Red. masses --      1.0497                 1.0603                 1.0538
 Frc consts  --      1.4092                 1.4315                 1.4386
 IR Inten    --      0.5835                 6.3759                 2.1853

                     43                     44                     45
                      A                      A                      A
 Frequencies --   1525.4714              1537.5308              1666.7209
 Red. masses --      1.0511                 1.0607                 1.0890
 Frc consts  --      1.4411                 1.4773                 1.7824
 IR Inten    --      3.1671                10.0072                23.3760

                     46                     47                     48
                      A                      A                      A
 Frequencies --   3019.9574              3031.6891              3034.7413
 Red. masses --      1.0835                 1.0367                 1.0365
 Frc consts  --      5.8220                 5.6139                 5.6240
 IR Inten    --     20.5084                16.6998                24.1137

                     49                     50                     51
                      A                      A                      A
 Frequencies --   3036.5622              3043.7432              3094.6210
 Red. masses --      1.0377                 1.0378                 1.1020
 Frc consts  --      5.6374                 5.6650                 6.2178
 IR Inten    --     53.5211                 6.9132                 3.3892

                     52                     53                     54
                      A                      A                      A
 Frequencies --   3098.0784              3101.7434              3104.6747
 Red. masses --      1.1021                 1.1014                 1.1011
 Frc consts  --      6.2322                 6.2429                 6.2532
 IR Inten    --      7.1262                87.6611                25.3275

                     55                     56                     57
                      A                      A                      A
 Frequencies --   3110.8569              3116.2048              3121.2535
 Red. masses --      1.1015                 1.1018                 1.0999
 Frc consts  --      6.2805                 6.3038                 6.3134
 IR Inten    --     60.6272                31.3110                29.9875

                     58                     59                     60
                      A                      A                      A
 Frequencies --   3143.3824              3480.5867              3562.0257
 Red. masses --      1.0992                 1.0496                 1.0918
 Frc consts  --      6.3993                 7.4917                 8.1615
 IR Inten    --     17.1647                 1.7556                 0.4170

 - Thermochemistry -
 -------------------
 Temperature   298.150 Kelvin.  Pressure   1.00000 Atm.
 Atom     1 has atomic number  6 and mass  12.00000

 Molecular mass:   101.12045 amu.
 Principal axes and moments of inertia in atomic units:
                           1         2         3
     Eigenvalues --   598.66112 824.74516 991.05312
           X            0.99946   0.03210   0.00716
           Y           -0.03205   0.99946  -0.00657
           Z           -0.00736   0.00634   0.99995
 This molecule is an asymmetric top.
 Rotational symmetry number  1.
 Warning -- assumption of classical behavior for rotation
           may cause significant error
 Rotational temperatures (Kelvin)      0.14468     0.10502     0.08740
 Rotational constants (GHZ):           3.01463     2.18824     1.82103
 Zero-point vibrational energy     540193.4 (Joules/Mol)
                                  129.10932 (Kcal/Mol)
 Warning -- explicit consideration of  14 degrees of freedom as
           vibrations may cause significant error
 Vibrational temperatures:    122.25   307.38   330.76   358.70   364.52
          (Kelvin)            403.79   422.50   436.34   505.07   532.64
                              551.27   637.74   684.91   778.33   999.72
                             1212.86  1266.91  1344.92  1347.80  1356.84
                             1386.07  1438.97  1479.66  1498.76  1584.94
                             1635.92  1721.43  1799.35  1828.52  1859.14
                             1963.81  2021.33  2024.22  2031.39  2041.58
                             2074.31  2146.14  2158.91  2169.39  2171.85
                             2177.98  2190.09  2194.81  2212.16  2398.04
                             4345.04  4361.92  4366.31  4368.93  4379.26
                             4452.46  4457.44  4462.71  4466.93  4475.82
                             4483.52  4490.78  4522.62  5007.78  5124.95

 Zero-point correction=                           0.205749 (Hartree/Particle)
 Thermal correction to Energy=                    0.215099
 Thermal correction to Enthalpy=                  0.216044
 Thermal correction to Gibbs Free Energy=         0.173233
 Sum of electronic and zero-point Energies=           -292.243204
 Sum of electronic and thermal Energies=              -292.233853
 Sum of electronic and thermal Enthalpies=            -292.232909
 Sum of electronic and thermal Free Energies=         -292.275720

                     E (Thermal)             CV                S
                      KCal/Mol        Cal/Mol-Kelvin    Cal/Mol-Kelvin
 Total                  134.977             35.806             90.103
 Electronic               0.000              0.000              0.000
 Translational            0.889              2.981             39.751
 Rotational               0.889              2.981             27.683
 Vibrational            133.200             29.845             22.668
 Vibration     1          0.601              1.960              3.773
 Vibration     2          0.644              1.820              2.012
 Vibration     3          0.652              1.795              1.880
 Vibration     4          0.662              1.764              1.735
 Vibration     5          0.665              1.757              1.707
 Vibration     6          0.680              1.709              1.530
 Vibration     7          0.688              1.686              1.453
 Vibration     8          0.695              1.668              1.399
 Vibration     9          0.728              1.573              1.162
 Vibration    10          0.742              1.533              1.079
 Vibration    11          0.752              1.506              1.027
 Vibration    12          0.803              1.376              0.816
 Vibration    13          0.833              1.303              0.721
 Vibration    14          0.896              1.159              0.563

 Optimization completed.
    -- Stationary point found.
 Normal termination of Gaussian 09 at Fri Sep 10 15:20:35 2021.
