 Gaussian 09, Revision D.01,
 Gaussian 09:  ES64L-G09RevD.01 24-Apr-2013

 -------------------------
 #P OPT Freq B3LYP/6-31G**
 -------------------------

 -------
 Frag_64
 -------
 Symbolic Z-matrix:
 Charge =  0 Multiplicity = 1

 SCF Done:  E(RB3LYP) =  -212.596159843     A.U. after   12 cycles
 Optimization completed.
    -- Stationary point found.

 1\1\GINC-FN13\FOpt\RB3LYP\6-31G(d,p)\C4H9N1\LIUJ201281\23-Jul-2021\0\\
 #P OPT Freq B3LYP/6-31G**\\Frag_64\\0,1\C,-0.7776,1.0303,-0.0702\C,0.7
 776,1.0302,-0.0703\C,1.1564,-0.4538,0.1928\N,0.,-1.2733,-0.1999\C,-1.1
 564,-0.4538,0.1927\H,-1.1646,1.3619,-1.0395\H,-1.1969,1.6999,0.6871\H,
 1.197,1.7,0.6869\H,1.1646,1.3617,-1.0396\H,2.0564,-0.7759,-0.3389\H,1.
 3371,-0.6101,1.2641\H,0.,-1.3558,-1.2162\H,-2.0564,-0.7758,-0.339\H,-1
 .3372,-0.6102,1.2641\\Version=ES64L-G09RevD.01\State=1-A\HF=-212.59615
 98\RMSD=4.031e-09\RMSF=8.328e-05\Dipole=0.0000376,0.4358777,-0.2764678

 Normal termination of Gaussian 09 at Fri Jul 23 05:14:40 2021.

 ----------------------------------------------------------------------
 #P Geom=AllCheck Guess=TCheck SCRF=Check GenChk RB3LYP/6-31G(d,p) Freq
 ----------------------------------------------------------------------

 Structure from the checkpoint file:  "/vol2/users/liuj201281/HOFBenchmark/IsodesmicSplit/Sample60/Ring26/Running/Gau-317855.chk"
 -------
 Frag_64
 -------
 Charge =  0 Multiplicity = 1

                         Standard orientation:
 ---------------------------------------------------------------------
 Center     Atomic      Atomic             Coordinates (Angstroms)
 Number     Number       Type             X           Y           Z
 ---------------------------------------------------------------------
      1          6           0       -0.778001    1.029998   -0.070193
      2          6           0        0.777199    1.030502   -0.070293
      3          6           0        1.156576   -0.453350    0.192808
      4          7           0        0.000495   -1.273300   -0.199893
      5          6           0       -1.156223   -0.454250    0.192708
      6          1           0       -1.165129    1.361447   -1.039493
      7          1           0       -1.197561    1.699434    0.687108
      8          1           0        1.196339    1.700465    0.686908
      9          1           0        1.164070    1.362153   -1.039593
     10          1           0        2.056702   -0.775100   -0.338893
     11          1           0        1.337337   -0.609580    1.264108
     12          1           0        0.000527   -1.355800   -1.216193
     13          1           0       -2.056098   -0.776600   -0.338993
     14          1           0       -1.336963   -0.610720    1.264108
 ---------------------------------------------------------------------

 SCF Done:  E(RB3LYP) =  -212.596159843     A.U. after    1 cycles

 The electronic state is 1-A.
 Alpha  occ. eigenvalues --  -14.31031 -10.19936 -10.19935 -10.17740 -10.17722
 Alpha  occ. eigenvalues --   -0.90738  -0.74770  -0.71148  -0.59422  -0.56998
 Alpha  occ. eigenvalues --   -0.49701  -0.45928  -0.42232  -0.42080  -0.36500
 Alpha  occ. eigenvalues --   -0.34612  -0.33570  -0.33500  -0.31599  -0.22207
 Alpha virt. eigenvalues --    0.07429   0.10439   0.13751   0.14460   0.15663
 Alpha virt. eigenvalues --    0.17081   0.18037   0.18072   0.19603   0.20882
 Alpha virt. eigenvalues --    0.24495   0.25244   0.30189   0.32395   0.51949

 Mulliken charges:
               1
     1  C   -0.202047
     2  C   -0.202059
     3  C   -0.068275
     4  N   -0.476515
     5  C   -0.068286
     6  H    0.095898
     7  H    0.096636
     8  H    0.096609
     9  H    0.095904
    10  H    0.094850
    11  H    0.106472
    12  H    0.229520
    13  H    0.094852
    14  H    0.106439
 Sum of Mulliken charges =   0.00000

 Dipole moment (field-independent basis, Debye):
    X=             -0.0003    Y=              1.1079    Z=             -0.7027  Tot=              1.3120
 Quadrupole moment (field-independent basis, Debye-Ang):
   XX=            -31.1234   YY=            -36.2497   ZZ=            -30.1625
   XY=              0.0017   XZ=             -0.0005   YZ=              1.4947

  Exact polarizability:  50.699   0.002  46.106  -0.001   1.142  45.107
 Approx polarizability:  65.606   0.002  61.766  -0.001   2.478  65.666

                      1                      2                      3
                      A                      A                      A
 Frequencies --     50.7842               288.4318               622.8203
 Red. masses --      1.5631                 1.7274                 1.8619
 Frc consts  --      0.0024                 0.0847                 0.4255
 IR Inten    --      0.0715                 7.3649                 0.7741

                      4                      5                      6
                      A                      A                      A
 Frequencies --    640.5426               798.8827               846.1134
 Red. masses --      2.3829                 1.3546                 1.7489
 Frc consts  --      0.5760                 0.5094                 0.7377
 IR Inten    --      1.2731                 1.6323               117.5659

                      7                      8                      9
                      A                      A                      A
 Frequencies --    851.9472               888.3735               916.3941
 Red. masses --      1.6400                 3.2862                 2.4742
 Frc consts  --      0.7013                 1.5280                 1.2242
 IR Inten    --      1.0935                 9.2816                 0.1021

                     10                     11                     12
                      A                      A                      A
 Frequencies --    939.5060               986.8767              1044.9905
 Red. masses --      2.6395                 1.5608                 1.6685
 Frc consts  --      1.3727                 0.8956                 1.0735
 IR Inten    --     13.8464                15.5403                 0.3712

                     13                     14                     15
                      A                      A                      A
 Frequencies --   1059.6112              1107.3703              1219.9548
 Red. masses --      1.3378                 5.4504                 1.3307
 Frc consts  --      0.8850                 3.9379                 1.1669
 IR Inten    --      1.1697                22.5681                 5.9976

                     16                     17                     18
                      A                      A                      A
 Frequencies --   1220.6785              1259.3597              1285.1656
 Red. masses --      1.3265                 1.1332                 1.4415
 Frc consts  --      1.1645                 1.0589                 1.4028
 IR Inten    --      0.0369                 2.4003                 0.2580

                     19                     20                     21
                      A                      A                      A
 Frequencies --   1314.0616              1343.0918              1346.0794
 Red. masses --      1.3588                 1.2181                 1.2773
 Frc consts  --      1.3824                 1.2947                 1.3635
 IR Inten    --      0.2620                 1.0859                 0.3658

                     22                     23                     24
                      A                      A                      A
 Frequencies --   1380.9072              1469.1606              1501.8884
 Red. masses --      1.3474                 1.1469                 1.0808
 Frc consts  --      1.5139                 1.4585                 1.4364
 IR Inten    --      5.9882                 6.0352                 0.0369

                     25                     26                     27
                      A                      A                      A
 Frequencies --   1510.9588              1514.3698              1531.7928
 Red. masses --      1.0824                 1.0918                 1.1024
 Frc consts  --      1.4559                 1.4752                 1.5240
 IR Inten    --      0.4802                 2.0930                 0.4255

                     28                     29                     30
                      A                      A                      A
 Frequencies --   3035.3913              3039.6592              3052.9950
 Red. masses --      1.0677                 1.0689                 1.0617
 Frc consts  --      5.7958                 5.8189                 5.8306
 IR Inten    --     40.0988                54.9085                23.5858

                     31                     32                     33
                      A                      A                      A
 Frequencies --   3065.1379              3089.3964              3102.4779
 Red. masses --      1.0634                 1.1013                 1.0975
 Frc consts  --      5.8862                 6.1929                 6.2243
 IR Inten    --     41.9635                21.9464                 0.2091

                     34                     35                     36
                      A                      A                      A
 Frequencies --   3107.9466              3116.7325              3480.6424
 Red. masses --      1.1020                 1.1060                 1.0743
 Frc consts  --      6.2714                 6.3298                 7.6681
 IR Inten    --     26.9551                87.8431                 2.3177

 - Thermochemistry -
 -------------------
 Temperature   298.150 Kelvin.  Pressure   1.00000 Atm.
 Atom     1 has atomic number  6 and mass  12.00000

 Molecular mass:    71.07350 amu.
 Principal axes and moments of inertia in atomic units:
                           1         2         3
     Eigenvalues --   264.24977 271.70673 467.09173
           X           -0.00081   1.00000  -0.00001
           Y            1.00000   0.00081   0.00233
           Z           -0.00233   0.00000   1.00000
 This molecule is an asymmetric top.
 Rotational symmetry number  1.
 Rotational temperatures (Kelvin)      0.32777     0.31878     0.18543
 Rotational constants (GHZ):           6.82968     6.64224     3.86378
 Zero-point vibrational energy     341118.1 (Joules/Mol)
                                   81.52918 (Kcal/Mol)
 Warning -- explicit consideration of   2 degrees of freedom as
           vibrations may cause significant error
 Vibrational temperatures:     73.07   414.99   896.10   921.60  1149.41
          (Kelvin)           1217.37  1225.76  1278.17  1318.49  1351.74
                             1419.89  1503.51  1524.54  1593.26  1755.24
                             1756.28  1811.94  1849.06  1890.64  1932.41
                             1936.71  1986.81  2113.79  2160.88  2173.93
                             2178.84  2203.91  4367.25  4373.39  4392.57
                             4410.04  4444.95  4463.77  4471.64  4484.28
                             5007.86

 Zero-point correction=                           0.129925 (Hartree/Particle)
 Thermal correction to Energy=                    0.134916
 Thermal correction to Enthalpy=                  0.135860
 Thermal correction to Gibbs Free Energy=         0.101494
 Sum of electronic and zero-point Energies=           -212.466235
 Sum of electronic and thermal Energies=              -212.461244
 Sum of electronic and thermal Enthalpies=            -212.460300
 Sum of electronic and thermal Free Energies=         -212.494666

                     E (Thermal)             CV                S
                      KCal/Mol        Cal/Mol-Kelvin    Cal/Mol-Kelvin
 Total                   84.661             17.707             72.330
 Electronic               0.000              0.000              0.000
 Translational            0.889              2.981             38.700
 Rotational               0.889              2.981             25.020
 Vibrational             82.884             11.745              8.609
 Vibration     1          0.595              1.977              4.787
 Vibration     2          0.685              1.695              1.483

 Optimization completed.
    -- Stationary point found.

 1\1\GINC-FN13\Freq\RB3LYP\6-31G(d,p)\C4H9N1\LIUJ201281\23-Jul-2021\0\\
 #P Geom=AllCheck Guess=TCheck SCRF=Check GenChk RB3LYP/6-31G(d,p) Freq
 \\Frag_64\\0,1\C,-0.7776,1.0303,-0.0702\C,0.7776,1.0302,-0.0703\C,1.15
 64,-0.4538,0.1928\N,0.,-1.2733,-0.1999\C,-1.1564,-0.4538,0.1927\H,-1.1
 646,1.3619,-1.0395\H,-1.1969,1.6999,0.6871\H,1.197,1.7,0.6869\H,1.1646
 ,1.3617,-1.0396\H,2.0564,-0.7759,-0.3389\H,1.3371,-0.6101,1.2641\H,0.,
 -1.3558,-1.2162\H,-2.0564,-0.7758,-0.339\H,-1.3372,-0.6102,1.2641\\Ver
 sion=ES64L-G09RevD.01\State=1-A\HF=-212.5961598\RMSD=1.268e-09\RMSF=8.

 Normal termination of Gaussian 09 at Fri Jul 23 05:15:06 2021.
