 Gaussian 09, Revision E.01,
 Gaussian 09:  ES64L-G09RevE.01 30-Nov-2015

 --------------------------------
 #P OPT=calcfc Freq B3LYP/6-31G**
 --------------------------------

 --------
 Frag_355
 --------
 Symbolic Z-matrix:
 Charge =  0 Multiplicity = 1

 SCF Done:  E(RB3LYP) =  -264.529246473     A.U. after   14 cycles
 SCF Done:  E(RB3LYP) =  -264.554555735     A.U. after   13 cycles
 SCF Done:  E(RB3LYP) =  -264.556259267     A.U. after   13 cycles
 SCF Done:  E(RB3LYP) =  -264.547123252     A.U. after   14 cycles
 SCF Done:  E(RB3LYP) =  -264.553772244     A.U. after   11 cycles
 SCF Done:  E(RB3LYP) =  -264.556866120     A.U. after   11 cycles
 SCF Done:  E(RB3LYP) =  -264.556997802     A.U. after   12 cycles
 SCF Done:  E(RB3LYP) =  -264.555976449     A.U. after   13 cycles
 SCF Done:  E(RB3LYP) =  -264.557213674     A.U. after   10 cycles
 SCF Done:  E(RB3LYP) =  -264.557334168     A.U. after   11 cycles
 SCF Done:  E(RB3LYP) =  -264.557337975     A.U. after    9 cycles
 SCF Done:  E(RB3LYP) =  -264.557338324     A.U. after    9 cycles
 SCF Done:  E(RB3LYP) =  -264.557338702     A.U. after    8 cycles
 Optimization completed.
    -- Stationary point found.
 Normal termination of Gaussian 09 at Fri Sep 10 19:29:10 2021.

 ----------------------------------------------------------------------
 #P Geom=AllCheck Guess=TCheck SCRF=Check GenChk RB3LYP/6-31G(d,p) Freq
 ----------------------------------------------------------------------

 Structure from the checkpoint file:  "/public/home/users/caep010/.cache/gau_scr/Gau-217596.chk"
 --------
 Frag_355
 --------
 Charge =  0 Multiplicity = 1

                         Standard orientation:
 ---------------------------------------------------------------------
 Center     Atomic      Atomic             Coordinates (Angstroms)
 Number     Number       Type             X           Y           Z
 ---------------------------------------------------------------------
      1          6           0        1.899984   -0.068835    0.007499
      2          7           0        0.625919   -0.763952   -0.020344
      3          6           0       -0.436881   -0.059443   -0.000413
      4          7           0       -0.570564    1.310447    0.073162
      5          8           0       -1.654765   -0.663594   -0.002454
      6          1           0        2.711109   -0.801334   -0.012323
      7          1           0        2.048728    0.594401   -0.862646
      8          1           0        2.030298    0.544360    0.912956
      9          1           0        0.214678    1.853288   -0.252115
     10          1           0       -1.476079    1.675379   -0.183905
     11          1           0       -1.456713   -1.613134    0.005419
 ---------------------------------------------------------------------

 SCF Done:  E(RB3LYP) =  -264.557338702     A.U. after    1 cycles

 The electronic state is 1-A.
 Alpha  occ. eigenvalues --  -19.17522 -14.35410 -14.28960 -10.29775 -10.19975
 Alpha  occ. eigenvalues --   -1.07340  -0.92654  -0.86506  -0.68619  -0.61407
 Alpha  occ. eigenvalues --   -0.53709  -0.49650  -0.46481  -0.43906  -0.41544
 Alpha  occ. eigenvalues --   -0.39249  -0.37218  -0.29645  -0.24872  -0.22625
 Alpha virt. eigenvalues --    0.05794   0.07203   0.10293   0.12551   0.15793
 Alpha virt. eigenvalues --    0.17425   0.19692   0.20705   0.27215   0.31318
 Alpha virt. eigenvalues --    0.45339   0.55107   0.55596   0.58166   0.59996

 Mulliken charges:
               1
     1  C   -0.193483
     2  N   -0.488688
     3  C    0.653763
     4  N   -0.623836
     5  O   -0.525290
     6  H    0.115596
     7  H    0.083224
     8  H    0.101981
     9  H    0.271099
    10  H    0.278015
    11  H    0.327619
 Sum of Mulliken charges =  -0.00000

 Dipole moment (field-independent basis, Debye):
    X=             -0.1269    Y=              1.8269    Z=             -0.8191  Tot=              2.0061
 Quadrupole moment (field-independent basis, Debye-Ang):
   XX=            -29.0911   YY=            -25.6541   ZZ=            -31.5402
   XY=              1.5706   XZ=              0.6005   YZ=             -1.9059

  Exact polarizability:  50.604  -2.048  40.853  -0.172  -0.338  23.656
 Approx polarizability:  70.067  -6.679  59.479  -0.815   0.310  32.598

                      1                      2                      3
                      A                      A                      A
 Frequencies --    104.2368               227.2539               267.4616
 Red. masses --      1.0590                 2.5271                 2.8533
 Frc consts  --      0.0068                 0.0769                 0.1203
 IR Inten    --      1.0778                13.5851                 2.3621

                      4                      5                      6
                      A                      A                      A
 Frequencies --    410.0246               481.4554               494.9260
 Red. masses --      1.2333                 1.7333                 1.7544
 Frc consts  --      0.1222                 0.2367                 0.2532
 IR Inten    --     20.2899               158.1168               143.9496

                      7                      8                      9
                      A                      A                      A
 Frequencies --    546.8975               593.3546               721.5709
 Red. masses --      1.1251                 3.4750                 9.5932
 Frc consts  --      0.1983                 0.7208                 2.9429
 IR Inten    --     60.2887                 4.7309                55.5430

                     10                     11                     12
                      A                      A                      A
 Frequencies --    909.0569              1062.1229              1111.2584
 Red. masses --      4.7875                 2.5034                 1.6239
 Frc consts  --      2.3310                 1.6639                 1.1815
 IR Inten    --     37.7075                10.2015                81.3733

                     13                     14                     15
                      A                      A                      A
 Frequencies --   1121.0393              1162.5033              1302.2895
 Red. masses --      1.3268                 1.4314                 1.9279
 Frc consts  --      0.9824                 1.1398                 1.9264
 IR Inten    --      1.2708                75.3318                83.0855

                     16                     17                     18
                      A                      A                      A
 Frequencies --   1449.1230              1460.8685              1506.9348
 Red. masses --      1.6980                 1.6564                 1.0675
 Frc consts  --      2.1009                 2.0827                 1.4283
 IR Inten    --     42.0993                70.9603                 5.1799

                     19                     20                     21
                      A                      A                      A
 Frequencies --   1520.1186              1643.0653              1785.3293
 Red. masses --      1.0451                 1.2288                 6.6706
 Frc consts  --      1.4228                 1.9545                12.5272
 IR Inten    --      3.4303               102.7792               486.9628

                     22                     23                     24
                      A                      A                      A
 Frequencies --   2957.4446              3012.8847              3109.6779
 Red. masses --      1.0494                 1.0938                 1.0928
 Frc consts  --      5.4076                 5.8500                 6.2264
 IR Inten    --     73.8611                61.7669                35.1844

                     25                     26                     27
                      A                      A                      A
 Frequencies --   3596.4978              3715.0895              3785.7526
 Red. masses --      1.0465                 1.1013                 1.0641
 Frc consts  --      7.9756                 8.9559                 8.9858
 IR Inten    --     25.1067                31.2590                59.2298

 - Thermochemistry -
 -------------------
 Temperature   298.150 Kelvin.  Pressure   1.00000 Atm.
 Atom     1 has atomic number  6 and mass  12.00000

 Molecular mass:    74.04801 amu.
 Principal axes and moments of inertia in atomic units:
                           1         2         3
     Eigenvalues --   183.09895 432.68761 603.25870
           X            0.99997   0.00796   0.00195
           Y           -0.00793   0.99983  -0.01664
           Z           -0.00209   0.01662   0.99986
 This molecule is an asymmetric top.
 Rotational symmetry number  1.
 Rotational temperatures (Kelvin)      0.47304     0.20018     0.14358
 Rotational constants (GHZ):           9.85664     4.17100     2.99165
 Zero-point vibrational energy     239601.5 (Joules/Mol)
                                   57.26613 (Kcal/Mol)
 Warning -- explicit consideration of   8 degrees of freedom as
           vibrations may cause significant error
 Vibrational temperatures:    149.97   326.97   384.82   589.93   692.71
          (Kelvin)            712.09   786.86   853.70  1038.18  1307.93
                             1528.16  1598.85  1612.92  1672.58  1873.70
                             2084.96  2101.86  2168.14  2187.11  2364.00
                             2568.69  4255.10  4334.86  4474.13  5174.55
                             5345.18  5446.85

 Zero-point correction=                           0.091259 (Hartree/Particle)
 Thermal correction to Energy=                    0.097209
 Thermal correction to Enthalpy=                  0.098154
 Thermal correction to Gibbs Free Energy=         0.062453
 Sum of electronic and zero-point Energies=           -264.466079
 Sum of electronic and thermal Energies=              -264.460129
 Sum of electronic and thermal Enthalpies=            -264.459185
 Sum of electronic and thermal Free Energies=         -264.494886

                     E (Thermal)             CV                S
                      KCal/Mol        Cal/Mol-Kelvin    Cal/Mol-Kelvin
 Total                   61.000             20.525             75.138
 Electronic               0.000              0.000              0.000
 Translational            0.889              2.981             38.822
 Rotational               0.889              2.981             25.372
 Vibrational             59.222             14.563             10.944
 Vibration     1          0.605              1.946              3.374
 Vibration     2          0.651              1.799              1.901
 Vibration     3          0.673              1.733              1.613
 Vibration     4          0.774              1.448              0.927
 Vibration     5          0.838              1.291              0.706
 Vibration     6          0.851              1.261              0.671
 Vibration     7          0.902              1.146              0.551
 Vibration     8          0.951              1.046              0.461

 Optimization completed.
    -- Stationary point found.
 Normal termination of Gaussian 09 at Fri Sep 10 19:29:18 2021.
