 Gaussian 09, Revision E.01,
 Gaussian 09:  ES64L-G09RevE.01 30-Nov-2015

 ----------------------------
 #P OPT Freq B3LYP/6-31G(d,p)
 ----------------------------

 --------
 Frag_592
 --------
 Symbolic Z-matrix:
 Charge =  0 Multiplicity = 1

 SCF Done:  E(RB3LYP) =  -324.947674904     A.U. after   12 cycles
 SCF Done:  E(RB3LYP) =  -324.947730568     A.U. after   10 cycles
 SCF Done:  E(RB3LYP) =  -324.947730784     A.U. after    8 cycles
 SCF Done:  E(RB3LYP) =  -324.947732601     A.U. after    9 cycles
 SCF Done:  E(RB3LYP) =  -324.947734505     A.U. after    8 cycles
 Optimization completed.
    -- Stationary point found.
 Normal termination of Gaussian 09 at Thu Sep  8 15:23:36 2022.

 ----------------------------------------------------------------------
 #P Geom=AllCheck Guess=TCheck SCRF=Check GenChk RB3LYP/6-31G(d,p) Freq
 ----------------------------------------------------------------------

 Structure from the checkpoint file:  "B3LYP6-31Gdp.Frag_592.chk"
 --------
 Frag_592
 --------
 Charge =  0 Multiplicity = 1

                         Standard orientation:
 ---------------------------------------------------------------------
 Center     Atomic      Atomic             Coordinates (Angstroms)
 Number     Number       Type             X           Y           Z
 ---------------------------------------------------------------------
      1          6           0       -1.831678   -0.690343   -0.325615
      2          6           0       -0.653241    0.272589   -0.446257
      3          7           0       -0.682596    1.247700    0.656066
      4          6           0        0.691963   -0.461525   -0.307264
      5          8           0        1.690989    0.492428   -0.649738
      6          8           0        0.865782   -0.944637    0.994057
      7          1           0       -1.812060   -1.429953   -1.131930
      8          1           0       -2.784395   -0.153429   -0.389516
      9          1           0       -1.792666   -1.220407    0.629897
     10          1           0       -0.668194    0.746858   -1.439863
     11          1           0       -0.003347    1.981062    0.469508
     12          1           0       -1.597852    1.681137    0.733272
     13          1           0        0.745226   -1.331169   -0.977341
     14          1           0        2.526029    0.132307   -0.320018
     15          1           0        0.468995   -0.246958    1.553785
 ---------------------------------------------------------------------

 SCF Done:  E(RB3LYP) =  -324.947734505     A.U. after    1 cycles

 The electronic state is 1-A.
 Alpha  occ. eigenvalues --  -19.14090 -19.13575 -14.32376 -10.27113 -10.21541
 Alpha  occ. eigenvalues --  -10.17834  -1.05085  -0.97997  -0.88822  -0.74575
 Alpha  occ. eigenvalues --   -0.66704  -0.58479  -0.52687  -0.49037  -0.48195
 Alpha  occ. eigenvalues --   -0.46492  -0.41809  -0.40027  -0.38224  -0.37042
 Alpha  occ. eigenvalues --   -0.35800  -0.31468  -0.28646  -0.27110  -0.25076
 Alpha virt. eigenvalues --    0.07500   0.10144   0.12561   0.13753   0.14779
 Alpha virt. eigenvalues --    0.15549   0.16954   0.18794   0.19602   0.20957
 Alpha virt. eigenvalues --    0.23693   0.24811   0.27297   0.30846   0.52883

 Mulliken charges:
               1
     1  C   -0.314503
     2  C    0.033280
     3  N   -0.630257
     4  C    0.383647
     5  O   -0.552649
     6  O   -0.546646
     7  H    0.108286
     8  H    0.096472
     9  H    0.124269
    10  H    0.092365
    11  H    0.260996
    12  H    0.243272
    13  H    0.078805
    14  H    0.304524
    15  H    0.318138
 Sum of Mulliken charges =  -0.00000

 Dipole moment (field-independent basis, Debye):
    X=             -1.0071    Y=              1.1206    Z=             -0.4772  Tot=              1.5804
 Quadrupole moment (field-independent basis, Debye-Ang):
   XX=            -32.8516   YY=            -36.5001   ZZ=            -38.7838
   XY=             -1.5318   XZ=              0.3368   YZ=              3.0616

  Exact polarizability:  51.736  -0.185  45.871  -0.098   1.877  43.159
 Approx polarizability:  64.862  -0.986  63.125  -0.544   0.722  62.036

                      1                      2                      3
                      A                      A                      A
 Frequencies --    126.3148               228.0936               249.8914
 Red. masses --      3.9475                 1.1215                 2.4258
 Frc consts  --      0.0371                 0.0344                 0.0893
 IR Inten    --      6.1687                 0.2400                 2.8570

                      4                      5                      6
                      A                      A                      A
 Frequencies --    291.1687               322.7536               347.7659
 Red. masses --      2.0376                 1.5443                 1.3861
 Frc consts  --      0.1018                 0.0948                 0.0988
 IR Inten    --     36.4445                68.0041                16.1424

                      7                      8                      9
                      A                      A                      A
 Frequencies --    389.4277               477.9378               555.7269
 Red. masses --      2.0373                 2.6841                 3.4770
 Frc consts  --      0.1820                 0.3612                 0.6327
 IR Inten    --     15.9019                17.5785                 5.5552

                     10                     11                     12
                      A                      A                      A
 Frequencies --    686.9425               708.1705               826.3670
 Red. masses --      1.1862                 3.0020                 2.6089
 Frc consts  --      0.3298                 0.8870                 1.0497
 IR Inten    --    114.5859                42.5291                33.2233

                     13                     14                     15
                      A                      A                      A
 Frequencies --    899.6316               953.1109              1010.8971
 Red. masses --      1.4718                 1.6381                 1.7753
 Frc consts  --      0.7018                 0.8768                 1.0689
 IR Inten    --     70.3888                46.6376                43.1759

                     16                     17                     18
                      A                      A                      A
 Frequencies --   1037.0626              1068.7429              1115.7774
 Red. masses --      2.1659                 3.4404                 2.3070
 Frc consts  --      1.3724                 2.3153                 1.6922
 IR Inten    --     62.0686               119.1924                50.2247

                     19                     20                     21
                      A                      A                      A
 Frequencies --   1142.2822              1226.9193              1261.7964
 Red. masses --      1.8456                 1.2046                 1.2145
 Frc consts  --      1.4189                 1.0684                 1.1392
 IR Inten    --      4.9958                85.7878                11.1365

                     22                     23                     24
                      A                      A                      A
 Frequencies --   1345.8017              1379.6461              1385.8343
 Red. masses --      1.3828                 1.3642                 1.4149
 Frc consts  --      1.4756                 1.5299                 1.6010
 IR Inten    --     25.5816                 3.8971                 8.6792

                     25                     26                     27
                      A                      A                      A
 Frequencies --   1418.5385              1430.9761              1490.2685
 Red. masses --      1.2729                 1.4516                 1.3190
 Frc consts  --      1.5092                 1.7513                 1.7259
 IR Inten    --     17.7298                 4.6990                81.5746

                     28                     29                     30
                      A                      A                      A
 Frequencies --   1509.2128              1516.3187              1647.1534
 Red. masses --      1.0556                 1.1022                 1.0973
 Frc consts  --      1.4166                 1.4931                 1.7540
 IR Inten    --     12.9636                17.6597                49.1004

                     31                     32                     33
                      A                      A                      A
 Frequencies --   2998.1451              3030.7175              3048.3225
 Red. masses --      1.0839                 1.0852                 1.0376
 Frc consts  --      5.7406                 5.8728                 5.6805
 IR Inten    --     47.7633                67.6533                24.8223

                     34                     35                     36
                      A                      A                      A
 Frequencies --   3116.0977              3136.4381              3508.3082
 Red. masses --      1.1013                 1.1026                 1.0491
 Frc consts  --      6.3005                 6.3907                 7.6082
 IR Inten    --     28.4594                20.4559                 1.3320

                     37                     38                     39
                      A                      A                      A
 Frequencies --   3598.6807              3615.5763              3807.2532
 Red. masses --      1.0939                 1.0641                 1.0656
 Frc consts  --      8.3468                 8.1954                 9.1007
 IR Inten    --      2.3505                93.0902                24.9522

 - Thermochemistry -
 -------------------
 Temperature   298.150 Kelvin.  Pressure   1.00000 Atm.
 Atom     1 has atomic number  6 and mass  12.00000

 Molecular mass:    91.06333 amu.
 Principal axes and moments of inertia in atomic units:
                           1         2         3
     Eigenvalues --   369.50766 646.03886 721.53567
           X            0.99983   0.01388   0.01201
           Y           -0.01538   0.99057   0.13614
           Z           -0.01000  -0.13630   0.99062
 This molecule is an asymmetric top.
 Rotational symmetry number  1.
 Rotational temperatures (Kelvin)      0.23440     0.13407     0.12004
 Rotational constants (GHZ):           4.88418     2.79355     2.50125
 Zero-point vibrational energy     346379.1 (Joules/Mol)
                                   82.78660 (Kcal/Mol)
 Warning -- explicit consideration of   9 degrees of freedom as
           vibrations may cause significant error
 Vibrational temperatures:    181.74   328.18   359.54   418.93   464.37
          (Kelvin)            500.36   560.30   687.65   799.57   988.36
                             1018.90  1188.96  1294.37  1371.31  1454.45
                             1492.10  1537.68  1605.35  1643.49  1765.26
                             1815.44  1936.31  1985.00  1993.90  2040.96
                             2058.85  2144.16  2171.42  2181.64  2369.88
                             4313.66  4360.52  4385.85  4483.36  4512.63
                             5047.67  5177.69  5202.00  5477.78

 Zero-point correction=                           0.131929 (Hartree/Particle)
 Thermal correction to Energy=                    0.139006
 Thermal correction to Enthalpy=                  0.139951
 Thermal correction to Gibbs Free Energy=         0.101695
 Sum of electronic and zero-point Energies=           -324.815806
 Sum of electronic and thermal Energies=              -324.808728
 Sum of electronic and thermal Enthalpies=            -324.807784
 Sum of electronic and thermal Free Energies=         -324.846039

                     E (Thermal)             CV                S
                      KCal/Mol        Cal/Mol-Kelvin    Cal/Mol-Kelvin
 Total                   87.228             26.169             80.515
 Electronic               0.000              0.000              0.000
 Translational            0.889              2.981             39.439
 Rotational               0.889              2.981             26.646
 Vibrational             85.450             20.207             14.430
 Vibration     1          0.611              1.927              3.001
 Vibration     2          0.651              1.798              1.894
 Vibration     3          0.663              1.763              1.731
 Vibration     4          0.687              1.690              1.467
 Vibration     5          0.708              1.630              1.296
 Vibration     6          0.725              1.580              1.176
 Vibration     7          0.757              1.493              1.002
 Vibration     8          0.834              1.299              0.716
 Vibration     9          0.911              1.127              0.532

 Normal termination of Gaussian 09 at Thu Sep  8 15:23:48 2022.
