 Gaussian 09, Revision E.01,
 Gaussian 09:  ES64L-G09RevE.01 30-Nov-2015

 ----------------------------
 #P OPT Freq B3LYP/6-31G(d,p)
 ----------------------------

 --------
 Frag_452
 --------
 Symbolic Z-matrix:
 Charge =  0 Multiplicity = 1

 SCF Done:  E(RB3LYP) =  -271.797169820     A.U. after   13 cycles
 SCF Done:  E(RB3LYP) =  -271.797246375     A.U. after    9 cycles
 SCF Done:  E(RB3LYP) =  -271.797099434     A.U. after   11 cycles
 SCF Done:  E(RB3LYP) =  -271.797255340     A.U. after   11 cycles
 SCF Done:  E(RB3LYP) =  -271.797256300     A.U. after    7 cycles
 SCF Done:  E(RB3LYP) =  -271.797256586     A.U. after    8 cycles
 SCF Done:  E(RB3LYP) =  -271.797256810     A.U. after    8 cycles
 SCF Done:  E(RB3LYP) =  -271.797256883     A.U. after    7 cycles
 Optimization completed.
    -- Stationary point found.
 Normal termination of Gaussian 09 at Thu Sep  8 15:01:21 2022.

 ----------------------------------------------------------------------
 #P Geom=AllCheck Guess=TCheck SCRF=Check GenChk RB3LYP/6-31G(d,p) Freq
 ----------------------------------------------------------------------

 Structure from the checkpoint file:  "B3LYP6-31Gdp.Frag_452.chk"
 --------
 Frag_452
 --------
 Charge =  0 Multiplicity = 1

                         Standard orientation:
 ---------------------------------------------------------------------
 Center     Atomic      Atomic             Coordinates (Angstroms)
 Number     Number       Type             X           Y           Z
 ---------------------------------------------------------------------
      1          6           0       -1.959449    0.510136    0.468323
      2          6           0       -0.753079   -0.245888   -0.060720
      3          8           0       -0.875864   -1.180598   -0.830412
      4          6           0        0.627317    0.232819    0.405100
      5          6           0        1.626509   -0.926663    0.464111
      6          6           0        1.110378    1.343998   -0.552866
      7          1           0       -2.097716    0.271409    1.530288
      8          1           0       -2.854685    0.217846   -0.082186
      9          1           0       -1.814383    1.593778    0.404330
     10          1           0        0.513234    0.675196    1.404333
     11          1           0        1.314197   -1.685021    1.188628
     12          1           0        1.699226   -1.413167   -0.511775
     13          1           0        2.618863   -0.566851    0.753411
     14          1           0        1.228130    0.947283   -1.566331
     15          1           0        2.079180    1.732745   -0.224153
     16          1           0        0.410811    2.185151   -0.596936
 ---------------------------------------------------------------------

 SCF Done:  E(RB3LYP) =  -271.797256883     A.U. after    1 cycles

 The electronic state is 1-A.
 Alpha  occ. eigenvalues --  -19.13432 -10.27102 -10.19896 -10.18967 -10.18723
 Alpha  occ. eigenvalues --  -10.17442  -1.03399  -0.80272  -0.73810  -0.68747
 Alpha  occ. eigenvalues --   -0.61834  -0.51581  -0.47671  -0.45392  -0.44571
 Alpha  occ. eigenvalues --   -0.41975  -0.40755  -0.39646  -0.38746  -0.35811
 Alpha  occ. eigenvalues --   -0.35490  -0.33913  -0.33376  -0.23984
 Alpha virt. eigenvalues --   -0.01035   0.07859   0.12274   0.13113   0.14730
 Alpha virt. eigenvalues --    0.15333   0.15376   0.17409   0.18288   0.19142
 Alpha virt. eigenvalues --    0.20640   0.21789   0.22551   0.25496   0.30266

 Mulliken charges:
               1
     1  C   -0.389800
     2  C    0.431793
     3  O   -0.444173
     4  C   -0.126722
     5  C   -0.303550
     6  C   -0.317270
     7  H    0.132746
     8  H    0.136791
     9  H    0.121835
    10  H    0.089924
    11  H    0.105097
    12  H    0.129193
    13  H    0.094822
    14  H    0.123975
    15  H    0.112318
    16  H    0.103021
 Sum of Mulliken charges =  -0.00000

 Dipole moment (field-independent basis, Debye):
    X=              0.3777    Y=              2.0895    Z=              1.6080  Tot=              2.6635
 Quadrupole moment (field-independent basis, Debye-Ang):
   XX=            -36.7887   YY=            -40.0265   ZZ=            -38.4881
   XY=             -1.8437   XZ=             -1.8514   YZ=             -2.1053

  Exact polarizability:  60.256  -0.403  55.441  -0.308   2.621  49.858
 Approx polarizability:  73.923   1.822  80.622   0.906  10.406  75.278

                      1                      2                      3
                      A                      A                      A
 Frequencies --     44.7904               133.2085               203.8108
 Red. masses --      3.4507                 1.0291                 1.0788
 Frc consts  --      0.0041                 0.0108                 0.0264
 IR Inten    --      2.5343                 0.2244                 0.0375

                      4                      5                      6
                      A                      A                      A
 Frequencies --    228.6430               235.9809               288.1080
 Red. masses --      1.3645                 2.0076                 2.2819
 Frc consts  --      0.0420                 0.0659                 0.1116
 IR Inten    --      0.6827                 2.7586                 2.7564

                      7                      8                      9
                      A                      A                      A
 Frequencies --    327.8594               434.4564               593.1893
 Red. masses --      2.4905                 2.4709                 3.3158
 Frc consts  --      0.1577                 0.2748                 0.6874
 IR Inten    --      0.8959                 3.2300                 6.4523

                     10                     11                     12
                      A                      A                      A
 Frequencies --    601.6555               732.6264               889.9162
 Red. masses --      2.3918                 2.5444                 2.6524
 Frc consts  --      0.5101                 0.8046                 1.2376
 IR Inten    --      1.8566                 3.1245                 1.0738

                     13                     14                     15
                      A                      A                      A
 Frequencies --    936.9043               960.5295               974.2271
 Red. masses --      1.1555                 1.6262                 1.4293
 Frc consts  --      0.5976                 0.8840                 0.7993
 IR Inten    --      1.3547                15.8692                 0.7239

                     16                     17                     18
                      A                      A                      A
 Frequencies --   1008.2961              1123.5223              1130.6100
 Red. masses --      1.7694                 1.6678                 2.2863
 Frc consts  --      1.0598                 1.2404                 1.7219
 IR Inten    --      3.6397                20.0557                 3.8427

                     19                     20                     21
                      A                      A                      A
 Frequencies --   1170.3543              1214.0785              1332.0092
 Red. masses --      2.1535                 1.9059                 1.3764
 Frc consts  --      1.7379                 1.6552                 1.4389
 IR Inten    --     38.3383                27.4384                 6.1209

                     22                     23                     24
                      A                      A                      A
 Frequencies --   1375.9402              1397.8223              1411.6667
 Red. masses --      1.4107                 1.4180                 1.2704
 Frc consts  --      1.5736                 1.6324                 1.4916
 IR Inten    --      5.9636                36.9262                 2.9934

                     25                     26                     27
                      A                      A                      A
 Frequencies --   1430.6566              1476.6007              1490.0933
 Red. masses --      1.2187                 1.0521                 1.0524
 Frc consts  --      1.4696                 1.3516                 1.3767
 IR Inten    --      6.3668                 8.1392                 8.5406

                     28                     29                     30
                      A                      A                      A
 Frequencies --   1500.7770              1503.9071              1517.2115
 Red. masses --      1.0405                 1.0484                 1.0466
 Frc consts  --      1.3808                 1.3970                 1.4194
 IR Inten    --      1.6678                 1.9642                10.0098

                     31                     32                     33
                      A                      A                      A
 Frequencies --   1526.1250              1811.3711              3029.7806
 Red. masses --      1.0612                10.2891                 1.0817
 Frc consts  --      1.4562                19.8903                 5.8504
 IR Inten    --     11.5574               128.3004                18.7857

                     34                     35                     36
                      A                      A                      A
 Frequencies --   3043.0109              3044.7456              3052.7426
 Red. masses --      1.0391                 1.0354                 1.0363
 Frc consts  --      5.6690                 5.6555                 5.6899
 IR Inten    --      9.7869                21.7573                19.5182

                     37                     38                     39
                      A                      A                      A
 Frequencies --   3105.2977              3116.2628              3120.3297
 Red. masses --      1.0978                 1.1022                 1.1028
 Frc consts  --      6.2370                 6.3062                 6.3265
 IR Inten    --      9.1385                29.1602                28.8372

                     40                     41                     42
                      A                      A                      A
 Frequencies --   3123.5589              3140.0632              3163.2043
 Red. masses --      1.1034                 1.1017                 1.1029
 Frc consts  --      6.3427                 6.4001                 6.5017
 IR Inten    --     20.8447                20.6764                11.5448

 - Thermochemistry -
 -------------------
 Temperature   298.150 Kelvin.  Pressure   1.00000 Atm.
 Atom     1 has atomic number  6 and mass  12.00000

 Molecular mass:    86.07317 amu.
 Principal axes and moments of inertia in atomic units:
                           1         2         3
     Eigenvalues --   381.80636 648.98355 807.23937
           X            0.99821  -0.05568  -0.02191
           Y            0.05428   0.99671  -0.06014
           Z            0.02518   0.05884   0.99795
 This molecule is an asymmetric top.
 Rotational symmetry number  1.
 Rotational temperatures (Kelvin)      0.22685     0.13346     0.10730
 Rotational constants (GHZ):           4.72685     2.78087     2.23570
 Zero-point vibrational energy     370519.0 (Joules/Mol)
                                   88.55617 (Kcal/Mol)
 Warning -- explicit consideration of  10 degrees of freedom as
           vibrations may cause significant error
 Vibrational temperatures:     64.44   191.66   293.24   328.97   339.52
          (Kelvin)            414.52   471.72   625.09   853.47   865.65
                             1054.08  1280.39  1347.99  1381.99  1401.69
                             1450.71  1616.50  1626.69  1683.88  1746.79
                             1916.46  1979.67  2011.15  2031.07  2058.39
                             2124.50  2143.91  2159.28  2163.78  2182.93
                             2195.75  2606.16  4359.17  4378.21  4380.70
                             4392.21  4467.83  4483.60  4489.45  4494.10
                             4517.84  4551.14

 Zero-point correction=                           0.141123 (Hartree/Particle)
 Thermal correction to Energy=                    0.148947
 Thermal correction to Enthalpy=                  0.149891
 Thermal correction to Gibbs Free Energy=         0.109251
 Sum of electronic and zero-point Energies=           -271.656134
 Sum of electronic and thermal Energies=              -271.648310
 Sum of electronic and thermal Enthalpies=            -271.647366
 Sum of electronic and thermal Free Energies=         -271.688006

                     E (Thermal)             CV                S
                      KCal/Mol        Cal/Mol-Kelvin    Cal/Mol-Kelvin
 Total                   93.465             26.954             85.534
 Electronic               0.000              0.000              0.000
 Translational            0.889              2.981             39.271
 Rotational               0.889              2.981             26.795
 Vibrational             91.688             20.993             19.468
 Vibration     1          0.595              1.979              5.035
 Vibration     2          0.613              1.920              2.899
 Vibration     3          0.639              1.834              2.098
 Vibration     4          0.651              1.797              1.890
 Vibration     5          0.655              1.786              1.833
 Vibration     6          0.685              1.696              1.485
 Vibration     7          0.711              1.620              1.271
 Vibration     8          0.795              1.395              0.844
 Vibration     9          0.951              1.046              0.462
 Vibration    10          0.960              1.028              0.447

 Normal termination of Gaussian 09 at Thu Sep  8 15:01:34 2022.
