 Gaussian 09, Revision E.01,
 Gaussian 09:  ES64L-G09RevE.01 30-Nov-2015

 --------------------------------
 #P OPT=calcfc Freq B3LYP/6-31G**
 --------------------------------

 --------
 Frag_346
 --------
 Symbolic Z-matrix:
 Charge =  0 Multiplicity = 1

 SCF Done:  E(RB3LYP) =  -269.155027683     A.U. after   12 cycles
 SCF Done:  E(RB3LYP) =  -269.165981597     A.U. after   11 cycles
 SCF Done:  E(RB3LYP) =  -269.165706557     A.U. after   11 cycles
 SCF Done:  E(RB3LYP) =  -269.166061607     A.U. after    9 cycles
 SCF Done:  E(RB3LYP) =  -269.166832258     A.U. after   11 cycles
 SCF Done:  E(RB3LYP) =  -269.167052914     A.U. after   10 cycles
 SCF Done:  E(RB3LYP) =  -269.165490108     A.U. after   13 cycles
 SCF Done:  E(RB3LYP) =  -269.167442136     A.U. after   11 cycles
 SCF Done:  E(RB3LYP) =  -269.168006090     A.U. after   11 cycles
 SCF Done:  E(RB3LYP) =  -269.170243542     A.U. after   13 cycles
 SCF Done:  E(RB3LYP) =  -269.171879662     A.U. after   13 cycles
 SCF Done:  E(RB3LYP) =  -269.172779773     A.U. after   10 cycles
 SCF Done:  E(RB3LYP) =  -269.172574145     A.U. after   11 cycles
 SCF Done:  E(RB3LYP) =  -269.173059791     A.U. after    8 cycles
 SCF Done:  E(RB3LYP) =  -269.173341673     A.U. after   11 cycles
 SCF Done:  E(RB3LYP) =  -269.173431984     A.U. after   10 cycles
 SCF Done:  E(RB3LYP) =  -269.173527665     A.U. after   10 cycles
 SCF Done:  E(RB3LYP) =  -269.173538689     A.U. after    9 cycles
 SCF Done:  E(RB3LYP) =  -269.173540398     A.U. after    7 cycles
 Optimization completed.
    -- Stationary point found.
 Normal termination of Gaussian 09 at Fri Sep 10 21:22:44 2021.

 ----------------------------------------------------------------------
 #P Geom=AllCheck Guess=TCheck SCRF=Check GenChk RB3LYP/6-31G(d,p) Freq
 ----------------------------------------------------------------------

 Structure from the checkpoint file:  "/public/home/users/caep010/.cache/gau_scr/Gau-74887.chk"
 --------
 Frag_346
 --------
 Charge =  0 Multiplicity = 1

                         Standard orientation:
 ---------------------------------------------------------------------
 Center     Atomic      Atomic             Coordinates (Angstroms)
 Number     Number       Type             X           Y           Z
 ---------------------------------------------------------------------
      1          6           0        2.161301    0.043381   -0.024494
      2          6           0        0.892806   -0.648517    0.478043
      3          6           0       -0.437262   -0.026626   -0.006516
      4          6           0       -0.565213    1.448275    0.413755
      5          7           0       -0.475392   -0.084181   -1.468875
      6          7           0       -1.518632   -0.869369    0.558359
      7          1           0        2.275529    1.047455    0.397044
      8          1           0        2.138088    0.135771   -1.113324
      9          1           0        3.049900   -0.530902    0.257210
     10          1           0        0.885558   -0.665026    1.576581
     11          1           0        0.888888   -1.698178    0.159294
     12          1           0        0.206328    2.070484   -0.047387
     13          1           0       -1.542091    1.845412    0.110072
     14          1           0       -0.489666    1.548951    1.501490
     15          1           0       -1.299406    0.406434   -1.812111
     16          1           0       -0.591711   -1.059118   -1.741109
     17          1           0       -1.453100   -0.883480    1.576252
     18          1           0       -2.419939   -0.442039    0.344873
 ---------------------------------------------------------------------

 SCF Done:  E(RB3LYP) =  -269.173540398     A.U. after    1 cycles

 The electronic state is 1-A.
 Alpha  occ. eigenvalues --  -14.30644 -14.30510 -10.23787 -10.17286 -10.17239
 Alpha  occ. eigenvalues --  -10.16242  -0.91425  -0.82720  -0.75469  -0.70576
 Alpha  occ. eigenvalues --   -0.63073  -0.54812  -0.48220  -0.47297  -0.46230
 Alpha  occ. eigenvalues --   -0.43505  -0.40305  -0.39476  -0.37910  -0.36215
 Alpha  occ. eigenvalues --   -0.34438  -0.32707  -0.31688  -0.24576  -0.23066
 Alpha virt. eigenvalues --    0.06557   0.11670   0.12299   0.12824   0.14918
 Alpha virt. eigenvalues --    0.15885   0.16311   0.18254   0.19065   0.19376
 Alpha virt. eigenvalues --    0.20435   0.22455   0.23551   0.25547   0.25902

 Mulliken charges:
               1
     1  C   -0.319572
     2  C   -0.146946
     3  C    0.226925
     4  C   -0.305294
     5  N   -0.573015
     6  N   -0.586641
     7  H    0.096598
     8  H    0.128916
     9  H    0.093432
    10  H    0.077703
    11  H    0.099399
    12  H    0.119320
    13  H    0.083495
    14  H    0.094863
    15  H    0.225569
    16  H    0.240042
    17  H    0.226571
    18  H    0.218635
 Sum of Mulliken charges =  -0.00000

 Dipole moment (field-independent basis, Debye):
    X=             -1.2650    Y=              0.6306    Z=              0.7958  Tot=              1.6221
 Quadrupole moment (field-independent basis, Debye-Ang):
   XX=            -37.1663   YY=            -41.4914   ZZ=            -38.3336
   XY=             -2.2322   XZ=              1.3954   YZ=              0.9269

  Exact polarizability:  63.084  -1.127  54.952   0.684  -0.510  56.946
 Approx polarizability:  79.797  -1.112  75.833   1.129  -1.475  81.233

                      1                      2                      3
                      A                      A                      A
 Frequencies --    111.7653               222.4076               254.5857
 Red. masses --      1.8901                 1.1485                 2.0788
 Frc consts  --      0.0139                 0.0335                 0.0794
 IR Inten    --      0.5346                 0.6558                 5.9691

                      4                      5                      6
                      A                      A                      A
 Frequencies --    275.3159               285.2550               311.4382
 Red. masses --      1.0907                 1.1510                 1.1436
 Frc consts  --      0.0487                 0.0552                 0.0654
 IR Inten    --     12.7050                18.3268                31.6999

                      7                      8                      9
                      A                      A                      A
 Frequencies --    350.5432               385.0536               451.9002
 Red. masses --      1.9687                 2.5011                 2.6069
 Frc consts  --      0.1425                 0.2185                 0.3137
 IR Inten    --     13.4354                 8.1682                11.9049

                     10                     11                     12
                      A                      A                      A
 Frequencies --    471.1358               523.3029               736.0240
 Red. masses --      2.3975                 2.6112                 3.1755
 Frc consts  --      0.3135                 0.4213                 1.0135
 IR Inten    --     12.0771                16.2018                 1.4580

                     13                     14                     15
                      A                      A                      A
 Frequencies --    795.0573               871.9562               900.5333
 Red. masses --      1.2184                 1.8822                 1.6897
 Frc consts  --      0.4538                 0.8431                 0.8074
 IR Inten    --      2.2206                67.3716               179.2963

                     16                     17                     18
                      A                      A                      A
 Frequencies --    926.7654               956.6721              1009.1234
 Red. masses --      1.3321                 1.7554                 1.3838
 Frc consts  --      0.6741                 0.9466                 0.8302
 IR Inten    --     34.9684                 2.8126                14.7858

                     19                     20                     21
                      A                      A                      A
 Frequencies --   1033.9768              1058.7779              1085.6448
 Red. masses --      2.0175                 1.5668                 1.5620
 Frc consts  --      1.2708                 1.0348                 1.0847
 IR Inten    --     22.7082                 2.0707                 8.4266

                     22                     23                     24
                      A                      A                      A
 Frequencies --   1148.6448              1201.5180              1264.4275
 Red. masses --      1.5294                 2.2318                 1.4390
 Frc consts  --      1.1889                 1.8983                 1.3555
 IR Inten    --      8.7284                48.9710                 5.1435

                     25                     26                     27
                      A                      A                      A
 Frequencies --   1354.5656              1367.6687              1389.0145
 Red. masses --      1.5591                 1.4540                 1.9749
 Frc consts  --      1.6854                 1.6024                 2.2450
 IR Inten    --     14.8507                 4.5255                 5.0512

                     28                     29                     30
                      A                      A                      A
 Frequencies --   1422.4826              1423.8553              1494.3079
 Red. masses --      1.2980                 1.2942                 1.0642
 Frc consts  --      1.5474                 1.5459                 1.4000
 IR Inten    --      6.3867                10.9803                 0.0479

                     31                     32                     33
                      A                      A                      A
 Frequencies --   1505.4350              1509.3128              1521.2776
 Red. masses --      1.0561                 1.0547                 1.0563
 Frc consts  --      1.4102                 1.4156                 1.4403
 IR Inten    --      0.1312                 5.7118                 5.4080

                     34                     35                     36
                      A                      A                      A
 Frequencies --   1529.1726              1655.7062              1671.7530
 Red. masses --      1.0615                 1.1016                 1.0969
 Frc consts  --      1.4625                 1.7793                 1.8062
 IR Inten    --      2.1494                28.9478                26.2849

                     37                     38                     39
                      A                      A                      A
 Frequencies --   3025.9941              3034.8002              3048.8494
 Red. masses --      1.0612                 1.0415                 1.0375
 Frc consts  --      5.7249                 5.6513                 5.6819
 IR Inten    --     35.7322                21.8852                24.3727

                     40                     41                     42
                      A                      A                      A
 Frequencies --   3067.9696              3100.8223              3110.7296
 Red. masses --      1.0996                 1.0984                 1.1017
 Frc consts  --      6.0981                 6.2224                 6.2814
 IR Inten    --     19.4399                36.9297                42.7126

                     43                     44                     45
                      A                      A                      A
 Frequencies --   3132.3443              3137.9572              3452.6435
 Red. masses --      1.1013                 1.1016                 1.0493
 Frc consts  --      6.3663                 6.3908                 7.3700
 IR Inten    --     28.8834                18.6713                 5.5477

                     46                     47                     48
                      A                      A                      A
 Frequencies --   3474.4044              3539.7485              3558.7215
 Red. masses --      1.0492                 1.0918                 1.0921
 Frc consts  --      7.4620                 8.0600                 8.1487
 IR Inten    --      1.6629                 3.0362                 1.0831

 - Thermochemistry -
 -------------------
 Temperature   298.150 Kelvin.  Pressure   1.00000 Atm.
 Atom     1 has atomic number  6 and mass  12.00000

 Molecular mass:    88.10005 amu.
 Principal axes and moments of inertia in atomic units:
                           1         2         3
     Eigenvalues --   402.52149 697.16973 710.71951
           X            0.99978  -0.02098  -0.00202
           Y            0.02091   0.97512   0.22071
           Z           -0.00266  -0.22070   0.97534
 This molecule is an asymmetric top.
 Rotational symmetry number  1.
 Rotational temperatures (Kelvin)      0.21518     0.12424     0.12187
 Rotational constants (GHZ):           4.48359     2.58867     2.53932
 Zero-point vibrational energy     437602.1 (Joules/Mol)
                                  104.58942 (Kcal/Mol)
 Warning -- explicit consideration of  11 degrees of freedom as
           vibrations may cause significant error
 Vibrational temperatures:    160.81   319.99   366.29   396.12   410.42
          (Kelvin)            448.09   504.35   554.01   650.18   677.86
                              752.92  1058.97  1143.91  1254.55  1295.66
                             1333.41  1376.44  1451.90  1487.66  1523.34
                             1562.00  1652.64  1728.71  1819.23  1948.92
                             1967.77  1998.48  2046.63  2048.61  2149.97
                             2165.98  2171.56  2188.78  2200.14  2382.19
                             2405.28  4353.73  4366.40  4386.61  4414.12
                             4461.39  4475.64  4506.74  4514.81  4967.58
                             4998.89  5092.90  5120.20

 Zero-point correction=                           0.166674 (Hartree/Particle)
 Thermal correction to Energy=                    0.174549
 Thermal correction to Enthalpy=                  0.175493
 Thermal correction to Gibbs Free Energy=         0.135894
 Sum of electronic and zero-point Energies=           -269.006867
 Sum of electronic and thermal Energies=              -268.998991
 Sum of electronic and thermal Enthalpies=            -268.998047
 Sum of electronic and thermal Free Energies=         -269.037647

                     E (Thermal)             CV                S
                      KCal/Mol        Cal/Mol-Kelvin    Cal/Mol-Kelvin
 Total                  109.531             29.753             83.344
 Electronic               0.000              0.000              0.000
 Translational            0.889              2.981             39.340
 Rotational               0.889              2.981             26.792
 Vibrational            107.754             23.791             17.212
 Vibration     1          0.607              1.940              3.238
 Vibration     2          0.648              1.807              1.939
 Vibration     3          0.665              1.755              1.699
 Vibration     4          0.677              1.719              1.563
 Vibration     5          0.683              1.701              1.502
 Vibration     6          0.700              1.652              1.355
 Vibration     7          0.727              1.574              1.164
 Vibration     8          0.754              1.502              1.019
 Vibration     9          0.811              1.357              0.790
 Vibration    10          0.828              1.314              0.734
 Vibration    11          0.878              1.198              0.602

 Normal termination of Gaussian 09 at Fri Sep 10 21:22:59 2021.
