 Gaussian 09, Revision E.01,
 Gaussian 09:  ES64L-G09RevE.01 30-Nov-2015

 ----------------------------
 #P OPT Freq B3LYP/6-31G(d,p)
 ----------------------------

 --------
 Frag_632
 --------
 Symbolic Z-matrix:
 Charge =  0 Multiplicity = 1

 SCF Done:  E(RB3LYP) =  -307.281833361     A.U. after   14 cycles
 SCF Done:  E(RB3LYP) =  -307.281871139     A.U. after    8 cycles
 SCF Done:  E(RB3LYP) =  -307.281873399     A.U. after    9 cycles
 SCF Done:  E(RB3LYP) =  -307.281873708     A.U. after    8 cycles
 SCF Done:  E(RB3LYP) =  -307.281874808     A.U. after    8 cycles
 SCF Done:  E(RB3LYP) =  -307.281875135     A.U. after    7 cycles
 SCF Done:  E(RB3LYP) =  -307.281875233     A.U. after    7 cycles
 Optimization completed.
    -- Stationary point found.
 Normal termination of Gaussian 09 at Thu Sep  8 15:10:41 2022.

 ----------------------------------------------------------------------
 #P Geom=AllCheck Guess=TCheck SCRF=Check GenChk RB3LYP/6-31G(d,p) Freq
 ----------------------------------------------------------------------

 Structure from the checkpoint file:  "B3LYP6-31Gdp.Frag_632.chk"
 --------
 Frag_632
 --------
 Charge =  0 Multiplicity = 1

                         Standard orientation:
 ---------------------------------------------------------------------
 Center     Atomic      Atomic             Coordinates (Angstroms)
 Number     Number       Type             X           Y           Z
 ---------------------------------------------------------------------
      1          6           0       -1.308189    1.323602   -0.006404
      2          6           0       -0.565802   -0.023283    0.003803
      3          6           0       -0.966532   -0.809017    1.272722
      4          6           0       -0.980184   -0.819342   -1.256748
      5          6           0        0.964995    0.195479   -0.003111
      6          7           0        1.593394    1.312254   -0.020642
      7          7           0        1.717178   -0.968951    0.073005
      8          1           0       -1.069084    1.911923   -0.898478
      9          1           0       -1.066321    1.922902    0.877326
     10          1           0       -2.389178    1.152744   -0.002654
     11          1           0       -0.475851   -1.784582    1.317967
     12          1           0       -2.050110   -0.969770    1.292089
     13          1           0       -0.688130   -0.257603    2.176272
     14          1           0       -2.069281   -0.928400   -1.290566
     15          1           0       -0.558920   -1.830311   -1.272966
     16          1           0       -0.663111   -0.307017   -2.170854
     17          1           0        0.945616    2.096819    0.006481
     18          1           0        2.701077   -0.814280   -0.103607
     19          1           0        1.343568   -1.800167   -0.359133
 ---------------------------------------------------------------------

 SCF Done:  E(RB3LYP) =  -307.281875233     A.U. after    1 cycles

 The electronic state is 1-A.
 Alpha  occ. eigenvalues --  -14.33294 -14.28127 -10.24485 -10.21019 -10.18657
 Alpha  occ. eigenvalues --  -10.18081 -10.17870  -0.93323  -0.83527  -0.80836
 Alpha  occ. eigenvalues --   -0.69298  -0.68901  -0.61417  -0.55093  -0.51329
 Alpha  occ. eigenvalues --   -0.46179  -0.44695  -0.44022  -0.42838  -0.40103
 Alpha  occ. eigenvalues --   -0.39108  -0.37195  -0.35881  -0.35249  -0.33474
 Alpha  occ. eigenvalues --   -0.32200  -0.24277  -0.22797
 Alpha virt. eigenvalues --    0.04096   0.06312   0.10533   0.12668   0.13408
 Alpha virt. eigenvalues --    0.13857   0.14667   0.15681   0.17930   0.18696
 Alpha virt. eigenvalues --    0.19455   0.20518   0.21499   0.22673   0.23480

 Mulliken charges:
               1
     1  C   -0.324463
     2  C   -0.022743
     3  C   -0.290020
     4  C   -0.306880
     5  C    0.456320
     6  N   -0.593693
     7  N   -0.603817
     8  H    0.108775
     9  H    0.110391
    10  H    0.100182
    11  H    0.103811
    12  H    0.097522
    13  H    0.112703
    14  H    0.107118
    15  H    0.088623
    16  H    0.114131
    17  H    0.220005
    18  H    0.267852
    19  H    0.254183
 Sum of Mulliken charges =  -0.00000

 Dipole moment (field-independent basis, Debye):
    X=             -1.9107    Y=             -1.6929    Z=             -0.8295  Tot=              2.6842
 Quadrupole moment (field-independent basis, Debye-Ang):
   XX=            -47.0941   YY=            -42.9752   ZZ=            -45.7238
   XY=             -5.4264   XZ=             -1.4734   YZ=              1.6760

  Exact polarizability:  69.621   0.915  73.410  -0.092   0.335  54.289
 Approx polarizability:  94.623   5.269 112.771   0.231  -0.363  74.527

                      1                      2                      3
                      A                      A                      A
 Frequencies --     56.0624               204.3889               260.9108
 Red. masses --      3.3841                 1.2256                 1.1614
 Frc consts  --      0.0063                 0.0302                 0.0466
 IR Inten    --      2.2302                 0.3194                 1.1145

                      4                      5                      6
                      A                      A                      A
 Frequencies --    273.1698               285.7178               313.8533
 Red. masses --      1.5713                 2.4231                 1.1057
 Frc consts  --      0.0691                 0.1165                 0.0642
 IR Inten    --      2.2163                 1.0929                 1.5857

                      7                      8                      9
                      A                      A                      A
 Frequencies --    354.6381               375.2631               384.4350
 Red. masses --      2.4998                 1.7755                 1.9620
 Frc consts  --      0.1852                 0.1473                 0.1708
 IR Inten    --      2.0426                17.1034                20.2233

                     10                     11                     12
                      A                      A                      A
 Frequencies --    393.3349               498.4491               542.8120
 Red. masses --      1.7159                 2.6751                 2.6426
 Frc consts  --      0.1564                 0.3916                 0.4588
 IR Inten    --     25.7155                 2.1631                 7.6250

                     13                     14                     15
                      A                      A                      A
 Frequencies --    576.5153               699.6126               739.6609
 Red. masses --      1.2744                 3.2217                 4.6465
 Frc consts  --      0.2496                 0.9291                 1.4978
 IR Inten    --    195.7969                 3.2450                43.0941

                     16                     17                     18
                      A                      A                      A
 Frequencies --    838.0004               858.2985               939.3417
 Red. masses --      1.1374                 2.2746                 1.7341
 Frc consts  --      0.4706                 0.9873                 0.9015
 IR Inten    --     24.7406                 4.2635                 1.7744

                     19                     20                     21
                      A                      A                      A
 Frequencies --    949.7208               967.6673              1044.0797
 Red. masses --      1.6641                 1.2004                 1.4228
 Frc consts  --      0.8844                 0.6623                 0.9138
 IR Inten    --      1.2147                 0.1443                 2.1512

                     22                     23                     24
                      A                      A                      A
 Frequencies --   1053.9975              1117.5925              1163.2550
 Red. masses --      1.4054                 1.7792                 1.3230
 Frc consts  --      0.9199                 1.3093                 1.0548
 IR Inten    --      0.0566                42.1622                56.8648

                     25                     26                     27
                      A                      A                      A
 Frequencies --   1236.1845              1248.2023              1260.6544
 Red. masses --      2.7273                 2.6676                 2.2828
 Frc consts  --      2.4555                 2.4488                 2.1375
 IR Inten    --      3.6262                12.9393                29.4426

                     28                     29                     30
                      A                      A                      A
 Frequencies --   1400.7956              1414.6922              1423.4760
 Red. masses --      1.5944                 1.2098                 1.5253
 Frc consts  --      1.8433                 1.4266                 1.8210
 IR Inten    --     33.8361                 3.1854                19.0982

                     31                     32                     33
                      A                      A                      A
 Frequencies --   1450.3367              1495.2932              1500.2693
 Red. masses --      1.3164                 1.0486                 1.0458
 Frc consts  --      1.6314                 1.3814                 1.3869
 IR Inten    --     18.8178                 0.1432                 0.3850

                     34                     35                     36
                      A                      A                      A
 Frequencies --   1506.5201              1517.4718              1521.9557
 Red. masses --      1.0563                 1.0524                 1.0531
 Frc consts  --      1.4125                 1.4279                 1.4372
 IR Inten    --      2.8935                 3.4064                 5.8150

                     37                     38                     39
                      A                      A                      A
 Frequencies --   1536.2953              1632.6914              1718.1684
 Red. masses --      1.0653                 1.2786                 5.3927
 Frc consts  --      1.4814                 2.0082                 9.3796
 IR Inten    --     14.9219                72.4758               183.5543

                     40                     41                     42
                      A                      A                      A
 Frequencies --   3040.0343              3042.2961              3048.7061
 Red. masses --      1.0347                 1.0355                 1.0369
 Frc consts  --      5.6343                 5.6469                 5.6781
 IR Inten    --     29.1247                20.1767                13.0287

                     43                     44                     45
                      A                      A                      A
 Frequencies --   3107.6886              3113.0708              3114.4906
 Red. masses --      1.1015                 1.1023                 1.1032
 Frc consts  --      6.2678                 6.2943                 6.3047
 IR Inten    --     23.7650                 1.7132                 5.1094

                     46                     47                     48
                      A                      A                      A
 Frequencies --   3118.2872              3120.5913              3132.9834
 Red. masses --      1.1023                 1.1019                 1.1013
 Frc consts  --      6.3154                 6.3225                 6.3687
 IR Inten    --     43.2572                56.2520                28.6678

                     49                     50                     51
                      A                      A                      A
 Frequencies --   3534.8557              3577.5496              3700.4822
 Red. masses --      1.0741                 1.0470                 1.0991
 Frc consts  --      7.9075                 7.8953                 8.8679
 IR Inten    --      0.0463                13.2755                16.6675

 - Thermochemistry -
 -------------------
 Temperature   298.150 Kelvin.  Pressure   1.00000 Atm.
 Atom     1 has atomic number  6 and mass  12.00000

 Molecular mass:   100.10005 amu.
 Principal axes and moments of inertia in atomic units:
                           1         2         3
     Eigenvalues --   559.27794 783.96192 940.05930
           X            0.99869  -0.05076  -0.00659
           Y            0.05087   0.99855   0.01737
           Z            0.00570  -0.01768   0.99983
 This molecule is an asymmetric top.
 Rotational symmetry number  1.
 Warning -- assumption of classical behavior for rotation
           may cause significant error
 Rotational temperatures (Kelvin)      0.15487     0.11048     0.09214
 Rotational constants (GHZ):           3.22691     2.30208     1.91982
 Zero-point vibrational energy     451021.0 (Joules/Mol)
                                  107.79660 (Kcal/Mol)
 Warning -- explicit consideration of  13 degrees of freedom as
           vibrations may cause significant error
 Vibrational temperatures:     80.66   294.07   375.39   393.03   411.08
          (Kelvin)            451.56   510.24   539.92   553.12   565.92
                              717.16   780.98   829.48  1006.59  1064.21
                             1205.69  1234.90  1351.50  1366.43  1392.26
                             1502.20  1516.47  1607.96  1673.66  1778.59
                             1795.88  1813.80  2015.43  2035.42  2048.06
                             2086.71  2151.39  2158.55  2167.54  2183.30
                             2189.75  2210.38  2349.08  2472.06  4373.93
                             4377.18  4386.40  4471.27  4479.01  4481.05
                             4486.51  4489.83  4507.66  5085.86  5147.29
                             5324.16

 Zero-point correction=                           0.171785 (Hartree/Particle)
 Thermal correction to Energy=                    0.180365
 Thermal correction to Enthalpy=                  0.181309
 Thermal correction to Gibbs Free Energy=         0.139652
 Sum of electronic and zero-point Energies=           -307.110090
 Sum of electronic and thermal Energies=              -307.101510
 Sum of electronic and thermal Enthalpies=            -307.100566
 Sum of electronic and thermal Free Energies=         -307.142224

                     E (Thermal)             CV                S
                      KCal/Mol        Cal/Mol-Kelvin    Cal/Mol-Kelvin
 Total                  113.181             32.765             87.675
 Electronic               0.000              0.000              0.000
 Translational            0.889              2.981             39.721
 Rotational               0.889              2.981             27.513
 Vibrational            111.403             26.803             20.441
 Vibration     1          0.596              1.975              4.591
 Vibration     2          0.640              1.834              2.093
 Vibration     3          0.669              1.744              1.656
 Vibration     4          0.676              1.723              1.576
 Vibration     5          0.684              1.700              1.499
 Vibration     6          0.702              1.647              1.342
 Vibration     7          0.730              1.566              1.146
 Vibration     8          0.746              1.523              1.058
 Vibration     9          0.753              1.503              1.022
 Vibration    10          0.761              1.484              0.987
 Vibration    11          0.854              1.253              0.662
 Vibration    12          0.898              1.155              0.559
 Vibration    13          0.933              1.082              0.492

 Optimization completed.
    -- Stationary point found.
 Normal termination of Gaussian 09 at Thu Sep  8 15:11:01 2022.
