 Gaussian 09, Revision E.01,
 Gaussian 09:  ES64L-G09RevE.01 30-Nov-2015

 --------------------------------
 #P OPT=calcfc Freq B3LYP/6-31G**
 --------------------------------

 --------
 Frag_184
 --------
 Symbolic Z-matrix:
 Charge =  0 Multiplicity = 1

 SCF Done:  E(RB3LYP) =  -205.355352191     A.U. after   13 cycles
 SCF Done:  E(RB3LYP) =  -205.374556338     A.U. after   13 cycles
 SCF Done:  E(RB3LYP) =  -205.372363056     A.U. after   13 cycles
 SCF Done:  E(RB3LYP) =  -205.374700473     A.U. after   11 cycles
 SCF Done:  E(RB3LYP) =  -205.375615785     A.U. after   13 cycles
 SCF Done:  E(RB3LYP) =  -205.371017990     A.U. after   14 cycles
 SCF Done:  E(RB3LYP) =  -205.378161093     A.U. after   11 cycles
 SCF Done:  E(RB3LYP) =  -205.378726520     A.U. after   13 cycles
 SCF Done:  E(RB3LYP) =  -205.379325389     A.U. after   12 cycles
 SCF Done:  E(RB3LYP) =  -205.379405266     A.U. after   10 cycles
 SCF Done:  E(RB3LYP) =  -205.379417049     A.U. after    8 cycles
 SCF Done:  E(RB3LYP) =  -205.379423814     A.U. after    8 cycles
 SCF Done:  E(RB3LYP) =  -205.379424514     A.U. after    8 cycles
 Optimization completed.
    -- Stationary point found.
 Normal termination of Gaussian 09 at Sat Aug 21 02:19:43 2021.

 ----------------------------------------------------------------------
 #P Geom=AllCheck Guess=TCheck SCRF=Check GenChk RB3LYP/6-31G(d,p) Freq
 ----------------------------------------------------------------------

 Structure from the checkpoint file:  "/public/home/users/caep010/.cache/gau_scr/Gau-43288.chk"
 --------
 Frag_184
 --------
 Charge =  0 Multiplicity = 1

                         Standard orientation:
 ---------------------------------------------------------------------
 Center     Atomic      Atomic             Coordinates (Angstroms)
 Number     Number       Type             X           Y           Z
 ---------------------------------------------------------------------
      1          7           0        0.176765    1.394114    0.011510
      2          6           0        0.016608    0.122893   -0.000235
      3          7           0        1.000963   -0.869419    0.080695
      4          7           0       -1.266778   -0.420281   -0.087622
      5          1           0        1.165679    1.639734   -0.048530
      6          1           0        0.810018   -1.687538   -0.485450
      7          1           0        1.943059   -0.528481   -0.053738
      8          1           0       -1.966977    0.303750    0.012810
      9          1           0       -1.428076   -1.195729    0.544236
 ---------------------------------------------------------------------

 SCF Done:  E(RB3LYP) =  -205.379424514     A.U. after    1 cycles

 The electronic state is 1-A.
 Alpha  occ. eigenvalues --  -14.34596 -14.33483 -14.27870 -10.27556  -0.96487
 Alpha  occ. eigenvalues --   -0.86602  -0.83226  -0.59419  -0.53392  -0.51821
 Alpha  occ. eigenvalues --   -0.45150  -0.43394  -0.38344  -0.26979  -0.25460
 Alpha  occ. eigenvalues --   -0.22750
 Alpha virt. eigenvalues --    0.05699   0.06619   0.12157   0.12772   0.14732
 Alpha virt. eigenvalues --    0.17424   0.26546   0.33513   0.44770   0.58230
 Alpha virt. eigenvalues --    0.59937   0.60845   0.63334   0.67541   0.69882

 Mulliken charges:
               1
     1  N   -0.576867
     2  C    0.542906
     3  N   -0.614208
     4  N   -0.607155
     5  H    0.202754
     6  H    0.263317
     7  H    0.257180
     8  H    0.273428
     9  H    0.258645
 Sum of Mulliken charges =  -0.00000

 Dipole moment (field-independent basis, Debye):
    X=              0.9810    Y=             -2.4842    Z=             -0.0551  Tot=              2.6715
 Quadrupole moment (field-independent basis, Debye-Ang):
   XX=            -17.4842   YY=            -25.8045   ZZ=            -26.1146
   XY=              1.2606   XZ=             -3.1362   YZ=              0.2832

  Exact polarizability:  36.191   2.477  40.305  -0.434  -0.077  15.981
 Approx polarizability:  47.365   4.180  64.265   0.647  -0.170  22.210

                      1                      2                      3
                      A                      A                      A
 Frequencies --    363.0802               407.0602               477.4671
 Red. masses --      1.0523                 1.1056                 2.5363
 Frc consts  --      0.0817                 0.1079                 0.3407
 IR Inten    --     36.9120                14.7799                 0.0996

                      4                      5                      6
                      A                      A                      A
 Frequencies --    543.0750               586.9336               667.1777
 Red. masses --      3.1785                 1.4036                 1.3151
 Frc consts  --      0.5523                 0.2849                 0.3449
 IR Inten    --     16.1475               222.1307               168.3436

                      7                      8                      9
                      A                      A                      A
 Frequencies --    780.3318               822.9771               944.8264
 Red. masses --      2.5532                 1.2425                 3.9371
 Frc consts  --      0.9160                 0.4958                 2.0708
 IR Inten    --    252.1528                42.5673                 8.8445

                     10                     11                     12
                      A                      A                      A
 Frequencies --   1103.3842              1143.5172              1198.3046
 Red. masses --      1.4330                 1.2640                 1.5264
 Frc consts  --      1.0279                 0.9738                 1.2914
 IR Inten    --     16.3722                66.3613                27.5478

                     13                     14                     15
                      A                      A                      A
 Frequencies --   1461.3658              1632.7917              1647.9654
 Red. masses --      2.6703                 1.2242                 1.1922
 Frc consts  --      3.3600                 1.9229                 1.9076
 IR Inten    --    117.2797                38.8712               126.3079

                     16                     17                     18
                      A                      A                      A
 Frequencies --   1760.8266              3491.6953              3550.6775
 Red. masses --      4.6258                 1.0754                 1.0480
 Frc consts  --      8.4503                 7.7251                 7.7848
 IR Inten    --    264.3190                 6.4426                16.2921

                     19                     20                     21
                      A                      A                      A
 Frequencies --   3555.5307              3664.1019              3669.0239
 Red. masses --      1.0489                 1.0968                 1.0973
 Frc consts  --      7.8125                 8.6757                 8.7028
 IR Inten    --      3.6494                17.4813                11.7381

 - Thermochemistry -
 -------------------
 Temperature   298.150 Kelvin.  Pressure   1.00000 Atm.
 Atom     1 has atomic number  7 and mass  14.00307

 Molecular mass:    59.04835 amu.
 Principal axes and moments of inertia in atomic units:
                           1         2         3
     Eigenvalues --   172.18980 177.73268 344.89442
           X            0.89756   0.44000  -0.02801
           Y           -0.44011   0.89794   0.00221
           Z            0.02612   0.01035   0.99961
 This molecule is an asymmetric top.
 Rotational symmetry number  1.
 Rotational temperatures (Kelvin)      0.50301     0.48733     0.25113
 Rotational constants (GHZ):          10.48112    10.15425     5.23274
 Zero-point vibrational energy     200207.7 (Joules/Mol)
                                   47.85079 (Kcal/Mol)
 Warning -- explicit consideration of   5 degrees of freedom as
           vibrations may cause significant error
 Vibrational temperatures:    522.39   585.67   686.97   781.36   844.47
          (Kelvin)            959.92  1122.72  1184.08  1359.39  1587.52
                             1645.26  1724.09  2102.58  2349.22  2371.05
                             2533.43  5023.76  5108.63  5115.61  5271.82
                             5278.90

 Zero-point correction=                           0.076255 (Hartree/Particle)
 Thermal correction to Energy=                    0.080744
 Thermal correction to Enthalpy=                  0.081688
 Thermal correction to Gibbs Free Energy=         0.049912
 Sum of electronic and zero-point Energies=           -205.303169
 Sum of electronic and thermal Energies=              -205.298681
 Sum of electronic and thermal Enthalpies=            -205.297737
 Sum of electronic and thermal Free Energies=         -205.329512

                     E (Thermal)             CV                S
                      KCal/Mol        Cal/Mol-Kelvin    Cal/Mol-Kelvin
 Total                   50.667             16.046             66.877
 Electronic               0.000              0.000              0.000
 Translational            0.889              2.981             38.148
 Rotational               0.889              2.981             23.872
 Vibrational             48.890             10.084              4.858
 Vibration     1          0.737              1.548              1.109
 Vibration     2          0.772              1.455              0.937
 Vibration     3          0.834              1.300              0.717
 Vibration     4          0.898              1.155              0.559
 Vibration     5          0.944              1.060              0.473

 Optimization completed.
    -- Stationary point found.
 Normal termination of Gaussian 09 at Sat Aug 21 02:19:50 2021.
