 Gaussian 09, Revision E.01,
 Gaussian 09:  ES64L-G09RevE.01 30-Nov-2015

 ----------------------------
 #P OPT Freq B3LYP/6-31G(d,p)
 ----------------------------

 --------
 Frag_849
 --------
 Symbolic Z-matrix:
 Charge =  0 Multiplicity = 1

 SCF Done:  E(RB3LYP) =  -343.164372893     A.U. after   14 cycles
 SCF Done:  E(RB3LYP) =  -343.164472069     A.U. after    9 cycles
 SCF Done:  E(RB3LYP) =  -343.164478033     A.U. after    8 cycles
 SCF Done:  E(RB3LYP) =  -343.164478561     A.U. after    7 cycles
 SCF Done:  E(RB3LYP) =  -343.164478473     A.U. after    7 cycles
 Optimization completed.
    -- Stationary point found.
 Normal termination of Gaussian 09 at Thu Sep  8 15:06:11 2022.

 ----------------------------------------------------------------------
 #P Geom=AllCheck Guess=TCheck SCRF=Check GenChk RB3LYP/6-31G(d,p) Freq
 ----------------------------------------------------------------------

 Structure from the checkpoint file:  "B3LYP6-31Gdp.Frag_849.chk"
 --------
 Frag_849
 --------
 Charge =  0 Multiplicity = 1

                         Standard orientation:
 ---------------------------------------------------------------------
 Center     Atomic      Atomic             Coordinates (Angstroms)
 Number     Number       Type             X           Y           Z
 ---------------------------------------------------------------------
      1          6           0       -1.555538    1.347685    0.000585
      2          6           0       -1.381596   -0.158655   -0.000551
      3          8           0       -2.316348   -0.946963   -0.000178
      4          7           0        1.043672    0.199569    0.000090
      5          6           0        1.832826    0.007935   -1.216828
      6          6           0        1.832676    0.006959    1.216946
      7          7           0       -0.086479   -0.624693   -0.000290
      8          1           0       -1.083855    1.797976    0.878319
      9          1           0       -2.624394    1.560150    0.002637
     10          1           0       -1.087326    1.798600   -0.878716
     11          1           0        2.664765    0.718183   -1.219961
     12          1           0        1.203367    0.200558   -2.088051
     13          1           0        2.248487   -1.012113   -1.302296
     14          1           0        2.247917   -1.013312    1.301858
     15          1           0        1.203271    0.199353    2.088259
     16          1           0        2.664916    0.716858    1.220522
     17          1           0        0.023071   -1.638224   -0.000656
 ---------------------------------------------------------------------

 SCF Done:  E(RB3LYP) =  -343.164478473     A.U. after    1 cycles

 The electronic state is 1-A.
 Alpha  occ. eigenvalues --  -19.10261 -14.37744 -14.37435 -10.28083 -10.21872
 Alpha  occ. eigenvalues --  -10.21871 -10.18053  -1.03233  -0.98783  -0.83364
 Alpha  occ. eigenvalues --   -0.72876  -0.72350  -0.64941  -0.57846  -0.52144
 Alpha  occ. eigenvalues --   -0.48032  -0.47276  -0.44387  -0.42666  -0.41889
 Alpha  occ. eigenvalues --   -0.40841  -0.39370  -0.38451  -0.38307  -0.35229
 Alpha  occ. eigenvalues --   -0.25234  -0.25056  -0.23803
 Alpha virt. eigenvalues --    0.03599   0.06989   0.10778   0.12693   0.13183
 Alpha virt. eigenvalues --    0.13557   0.14373   0.15792   0.16224   0.17358
 Alpha virt. eigenvalues --    0.17879   0.21305   0.21676   0.22929   0.26439

 Mulliken charges:
               1
     1  C   -0.371909
     2  C    0.556577
     3  O   -0.501278
     4  N   -0.296824
     5  C   -0.150157
     6  C   -0.150156
     7  N   -0.377199
     8  H    0.128392
     9  H    0.133137
    10  H    0.128340
    11  H    0.115714
    12  H    0.124998
    13  H    0.087441
    14  H    0.087446
    15  H    0.125015
    16  H    0.115713
    17  H    0.244749
 Sum of Mulliken charges =  -0.00000

 Dipole moment (field-independent basis, Debye):
    X=              3.9781    Y=              1.0651    Z=             -0.0006  Tot=              4.1182
 Quadrupole moment (field-independent basis, Debye-Ang):
   XX=            -48.3777   YY=            -43.0550   ZZ=            -41.1478
   XY=             -5.4363   XZ=              0.0002   YZ=             -0.0001

  Exact polarizability:  75.575   1.602  57.254  -0.002  -0.001  50.149
 Approx polarizability: 102.104   8.921  82.403  -0.002  -0.002  67.014

                      1                      2                      3
                      A                      A                      A
 Frequencies --     31.3859                63.5304                94.2873
 Red. masses --      5.1657                 1.1881                 2.0947
 Frc consts  --      0.0030                 0.0028                 0.0110
 IR Inten    --      0.4420                 0.5235                 0.3624

                      4                      5                      6
                      A                      A                      A
 Frequencies --    179.9731               244.7037               256.0253
 Red. masses --      2.4908                 1.0275                 1.1890
 Frc consts  --      0.0475                 0.0362                 0.0459
 IR Inten    --      1.2391                 0.0078                 1.0513

                      7                      8                      9
                      A                      A                      A
 Frequencies --    361.7846               388.4967               476.2973
 Red. masses --      2.5663                 2.5774                 3.4126
 Frc consts  --      0.1979                 0.2292                 0.4561
 IR Inten    --      0.3425                 9.7237                 2.5081

                     10                     11                     12
                      A                      A                      A
 Frequencies --    526.9237               527.3796               561.5079
 Red. masses --      3.5018                 1.1232                 3.8240
 Frc consts  --      0.5728                 0.1841                 0.7104
 IR Inten    --     30.1517                61.3990                 0.5721

                     13                     14                     15
                      A                      A                      A
 Frequencies --    590.1522               816.7351               915.5514
 Red. masses --      2.4821                 3.9979                 3.7500
 Frc consts  --      0.5093                 1.5712                 1.8520
 IR Inten    --     37.4645                 5.1372                22.4594

                     16                     17                     18
                      A                      A                      A
 Frequencies --   1019.2340              1032.0657              1055.9338
 Red. masses --      1.6088                 1.6943                 1.7446
 Frc consts  --      0.9847                 1.0633                 1.1461
 IR Inten    --     17.9020                13.7890                 2.6339

                     19                     20                     21
                      A                      A                      A
 Frequencies --   1099.3222              1120.6641              1187.3119
 Red. masses --      2.0441                 1.2362                 1.5765
 Frc consts  --      1.4555                 0.9147                 1.3094
 IR Inten    --     10.2902                 2.9308                16.6303

                     22                     23                     24
                      A                      A                      A
 Frequencies --   1256.2189              1285.3476              1345.7331
 Red. masses --      3.2520                 2.3109                 1.8505
 Frc consts  --      3.0236                 2.2494                 1.9745
 IR Inten    --      5.2136                 2.6770               147.0245

                     25                     26                     27
                      A                      A                      A
 Frequencies --   1409.1829              1446.9151              1457.0521
 Red. masses --      1.4430                 1.1645                 1.5332
 Frc consts  --      1.6883                 1.4364                 1.9178
 IR Inten    --     68.0353                 0.6741                32.9476

                     28                     29                     30
                      A                      A                      A
 Frequencies --   1474.0323              1488.6851              1489.2153
 Red. masses --      1.0791                 1.3299                 1.0487
 Frc consts  --      1.3815                 1.7366                 1.3702
 IR Inten    --      5.2985                23.9435                10.8446

                     31                     32                     33
                      A                      A                      A
 Frequencies --   1493.1353              1506.9306              1517.2212
 Red. masses --      1.0492                 1.0471                 1.1909
 Frc consts  --      1.3782                 1.4009                 1.6151
 IR Inten    --      5.9540                 4.1640                 7.0346

                     34                     35                     36
                      A                      A                      A
 Frequencies --   1521.7622              1798.7279              2957.9982
 Red. masses --      1.0528                 8.2846                 1.0573
 Frc consts  --      1.4365                15.7925                 5.4508
 IR Inten    --      2.8764               325.7202                33.6280

                     37                     38                     39
                      A                      A                      A
 Frequencies --   2966.0068              3067.6311              3089.6646
 Red. masses --      1.0581                 1.0362                 1.0769
 Frc consts  --      5.4841                 5.7451                 6.0571
 IR Inten    --    115.4582                 4.0273                10.2446

                     40                     41                     42
                      A                      A                      A
 Frequencies --   3094.2089              3133.3556              3142.8885
 Red. masses --      1.0754                 1.1002                 1.1035
 Frc consts  --      6.0662                 6.3644                 6.4221
 IR Inten    --     41.9272                 9.4968                13.5866

                     43                     44                     45
                      A                      A                      A
 Frequencies --   3145.9538              3176.4883              3484.4563
 Red. masses --      1.1045                 1.1040                 1.0753
 Frc consts  --      6.4405                 6.5635                 7.6925
 IR Inten    --     27.7327                12.2701                10.8689

 - Thermochemistry -
 -------------------
 Temperature   298.150 Kelvin.  Pressure   1.00000 Atm.
 Atom     1 has atomic number  6 and mass  12.00000

 Molecular mass:   102.07931 amu.
 Principal axes and moments of inertia in atomic units:
                           1         2         3
     Eigenvalues --   390.045131151.809761168.30112
           X            0.99930  -0.03739  -0.00001
           Y            0.03739   0.99930  -0.00015
           Z            0.00002   0.00015   1.00000
 This molecule is an asymmetric top.
 Rotational symmetry number  1.
 Rotational temperatures (Kelvin)      0.22206     0.07520     0.07414
 Rotational constants (GHZ):           4.62701     1.56687     1.54476
 Zero-point vibrational energy     384587.9 (Joules/Mol)
                                   91.91872 (Kcal/Mol)
 Warning -- explicit consideration of  13 degrees of freedom as
           vibrations may cause significant error
 Vibrational temperatures:     45.16    91.41   135.66   258.94   352.07
          (Kelvin)            368.36   520.53   558.96   685.28   758.12
                              758.78   807.88   849.10  1175.10  1317.27
                             1466.45  1484.91  1519.25  1581.68  1612.38
                             1708.27  1807.42  1849.33  1936.21  2027.50
                             2081.79  2096.37  2120.80  2141.88  2142.65
                             2148.29  2168.13  2182.94  2189.47  2587.97
                             4255.89  4267.42  4413.63  4445.33  4451.87
                             4508.19  4521.91  4526.32  4570.25  5013.35

 Zero-point correction=                           0.146482 (Hartree/Particle)
 Thermal correction to Energy=                    0.155351
 Thermal correction to Enthalpy=                  0.156296
 Thermal correction to Gibbs Free Energy=         0.112139
 Sum of electronic and zero-point Energies=           -343.017997
 Sum of electronic and thermal Energies=              -343.009127
 Sum of electronic and thermal Enthalpies=            -343.008183
 Sum of electronic and thermal Free Energies=         -343.052340

                     E (Thermal)             CV                S
                      KCal/Mol        Cal/Mol-Kelvin    Cal/Mol-Kelvin
 Total                   97.484             30.323             92.936
 Electronic               0.000              0.000              0.000
 Translational            0.889              2.981             39.779
 Rotational               0.889              2.981             27.753
 Vibrational             95.707             24.362             25.404
 Vibration     1          0.594              1.983              5.740
 Vibration     2          0.597              1.972              4.344
 Vibration     3          0.603              1.953              3.569
 Vibration     4          0.629              1.867              2.329
 Vibration     5          0.660              1.772              1.768
 Vibration     6          0.666              1.753              1.689
 Vibration     7          0.736              1.551              1.114
 Vibration     8          0.757              1.495              1.006
 Vibration     9          0.833              1.303              0.720
 Vibration    10          0.882              1.190              0.594
 Vibration    11          0.882              1.189              0.593
 Vibration    12          0.917              1.115              0.521
 Vibration    13          0.947              1.053              0.467

 Normal termination of Gaussian 09 at Thu Sep  8 15:06:27 2022.
