 Gaussian 09, Revision E.01,
 Gaussian 09:  ES64L-G09RevE.01 30-Nov-2015

 ----------------------------
 #P OPT Freq B3LYP/6-31G(d,p)
 ----------------------------

 --------
 Frag_617
 --------
 Symbolic Z-matrix:
 Charge =  0 Multiplicity = 1

 SCF Done:  E(RB3LYP) =  -307.666767569     A.U. after   14 cycles
 SCF Done:  E(RB3LYP) =  -307.666831899     A.U. after   10 cycles
 SCF Done:  E(RB3LYP) =  -307.666836370     A.U. after    8 cycles
 SCF Done:  E(RB3LYP) =  -307.666837965     A.U. after    8 cycles
 SCF Done:  E(RB3LYP) =  -307.666838866     A.U. after    8 cycles
 SCF Done:  E(RB3LYP) =  -307.666839294     A.U. after    7 cycles
 SCF Done:  E(RB3LYP) =  -307.666839462     A.U. after    7 cycles
 Optimization completed.
    -- Stationary point found.
 Normal termination of Gaussian 09 at Thu Sep  8 15:25:13 2022.

 ----------------------------------------------------------------------
 #P Geom=AllCheck Guess=TCheck SCRF=Check GenChk RB3LYP/6-31G(d,p) Freq
 ----------------------------------------------------------------------

 Structure from the checkpoint file:  "B3LYP6-31Gdp.Frag_617.chk"
 --------
 Frag_617
 --------
 Charge =  0 Multiplicity = 1

                         Standard orientation:
 ---------------------------------------------------------------------
 Center     Atomic      Atomic             Coordinates (Angstroms)
 Number     Number       Type             X           Y           Z
 ---------------------------------------------------------------------
      1          6           0       -1.017487    1.458147   -0.364910
      2          6           0       -0.742128    0.216191    0.034393
      3          6           0       -1.784240   -0.851198    0.235543
      4          6           0        0.684520   -0.215562    0.330489
      5          8           0        1.009673   -1.247347   -0.560096
      6          8           0        1.654315    0.806669    0.171254
      7          1           0       -2.036987    1.775067   -0.563691
      8          1           0       -0.227552    2.183847   -0.523752
      9          1           0       -2.791605   -0.463788    0.063948
     10          1           0       -1.743469   -1.261489    1.253194
     11          1           0       -1.608339   -1.688617   -0.448007
     12          1           0        0.726276   -0.584942    1.376039
     13          1           0        1.934873   -1.477165   -0.394250
     14          1           0        1.590910    1.397044    0.934169
 ---------------------------------------------------------------------

 SCF Done:  E(RB3LYP) =  -307.666839462     A.U. after    1 cycles

 The electronic state is 1-A.
 Alpha  occ. eigenvalues --  -19.15339 -19.15042 -10.28733 -10.19077 -10.17835
 Alpha  occ. eigenvalues --  -10.17258  -1.06184  -0.99429  -0.79570  -0.68255
 Alpha  occ. eigenvalues --   -0.66565  -0.54692  -0.52195  -0.51228  -0.46665
 Alpha  occ. eigenvalues --   -0.41531  -0.40504  -0.39404  -0.36902  -0.34927
 Alpha  occ. eigenvalues --   -0.34091  -0.30460  -0.26854  -0.25019
 Alpha virt. eigenvalues --    0.01751   0.07514   0.10148   0.12107   0.14168
 Alpha virt. eigenvalues --    0.15357   0.17179   0.18402   0.19723   0.23723
 Alpha virt. eigenvalues --    0.24921   0.26969   0.32805   0.36507   0.51975

 Mulliken charges:
               1
     1  C   -0.275994
     2  C    0.128567
     3  C   -0.363233
     4  C    0.354461
     5  O   -0.519763
     6  O   -0.545081
     7  H    0.090454
     8  H    0.098838
     9  H    0.107356
    10  H    0.105146
    11  H    0.141715
    12  H    0.058563
    13  H    0.312681
    14  H    0.306291
 Sum of Mulliken charges =  -0.00000

 Dipole moment (field-independent basis, Debye):
    X=              0.2027    Y=              0.1655    Z=              2.1825  Tot=              2.1981
 Quadrupole moment (field-independent basis, Debye-Ang):
   XX=            -33.6652   YY=            -34.5956   ZZ=            -36.7618
   XY=             -1.4448   XZ=              2.6023   YZ=              0.6144

  Exact polarizability:  52.314  -2.420  59.392   2.022  -4.516  36.745
 Approx polarizability:  66.055  -4.694  88.427   2.716  -7.574  53.470

                      1                      2                      3
                      A                      A                      A
 Frequencies --     73.5012               179.6085               249.6830
 Red. masses --      3.7183                 1.0470                 2.6449
 Frc consts  --      0.0118                 0.0199                 0.0971
 IR Inten    --      3.1518                 1.4243                18.8474

                      4                      5                      6
                      A                      A                      A
 Frequencies --    265.6591               316.7354               331.9617
 Red. masses --      1.2359                 2.1826                 1.4123
 Frc consts  --      0.0514                 0.1290                 0.0917
 IR Inten    --     65.1813                23.5671               126.2585

                      7                      8                      9
                      A                      A                      A
 Frequencies --    382.1656               491.4468               537.7298
 Red. masses --      2.5271                 3.0481                 3.5112
 Frc consts  --      0.2175                 0.4337                 0.5982
 IR Inten    --      6.4617                 7.7922                 4.5912

                     10                     11                     12
                      A                      A                      A
 Frequencies --    627.1297               744.1279               869.2248
 Red. masses --      3.1006                 1.3074                 2.3362
 Frc consts  --      0.7185                 0.4265                 1.0400
 IR Inten    --      9.8897                 1.1936                24.5147

                     13                     14                     15
                      A                      A                      A
 Frequencies --    946.1132               957.0206              1016.7649
 Red. masses --      1.3677                 1.8657                 1.4922
 Frc consts  --      0.7213                 1.0068                 0.9089
 IR Inten    --     38.5843                 8.1053                16.4622

                     16                     17                     18
                      A                      A                      A
 Frequencies --   1052.3481              1074.1503              1100.6027
 Red. masses --      2.4479                 1.4967                 4.0023
 Frc consts  --      1.5972                 1.0175                 2.8564
 IR Inten    --     84.0524                 7.5393               122.0341

                     19                     20                     21
                      A                      A                      A
 Frequencies --   1254.5257              1271.6576              1290.1987
 Red. masses --      1.3466                 1.4452                 1.6113
 Frc consts  --      1.2487                 1.3769                 1.5803
 IR Inten    --     74.8055                83.0240                21.7396

                     22                     23                     24
                      A                      A                      A
 Frequencies --   1418.4240              1426.0603              1445.7794
 Red. masses --      1.2277                 1.2631                 1.2495
 Frc consts  --      1.4553                 1.5134                 1.5388
 IR Inten    --      3.6852                15.2574                 3.8342

                     25                     26                     27
                      A                      A                      A
 Frequencies --   1466.8026              1490.7744              1508.8300
 Red. masses --      1.5948                 1.0487                 1.0635
 Frc consts  --      2.0216                 1.3732                 1.4265
 IR Inten    --     51.7120                 6.0870                16.7952

                     28                     29                     30
                      A                      A                      A
 Frequencies --   1744.0928              2893.6777              3032.1084
 Red. masses --      5.5495                 1.0811                 1.0418
 Frc consts  --      9.9459                 5.3337                 5.6429
 IR Inten    --      4.4531               109.3181                27.9524

                     31                     32                     33
                      A                      A                      A
 Frequencies --   3093.3946              3132.5254              3163.3324
 Red. masses --      1.0935                 1.1027                 1.0605
 Frc consts  --      6.1652                 6.3750                 6.2523
 IR Inten    --     17.5492                18.2690                 8.3864

                     34                     35                     36
                      A                      A                      A
 Frequencies --   3252.5892              3801.1539              3816.1321
 Red. masses --      1.1155                 1.0656                 1.0658
 Frc consts  --      6.9529                 9.0716                 9.1445
 IR Inten    --      8.6445                22.0573                19.5121

 - Thermochemistry -
 -------------------
 Temperature   298.150 Kelvin.  Pressure   1.00000 Atm.
 Atom     1 has atomic number  6 and mass  12.00000

 Molecular mass:    88.05243 amu.
 Principal axes and moments of inertia in atomic units:
                           1         2         3
     Eigenvalues --   364.79000 577.45238 840.01629
           X            0.99980   0.01792   0.00924
           Y           -0.01767   0.99951  -0.02570
           Z           -0.00970   0.02553   0.99963
 This molecule is an asymmetric top.
 Rotational symmetry number  1.
 Rotational temperatures (Kelvin)      0.23743     0.14999     0.10311
 Rotational constants (GHZ):           4.94734     3.12535     2.14846
 Zero-point vibrational energy     309342.5 (Joules/Mol)
                                   73.93464 (Kcal/Mol)
 Warning -- explicit consideration of   9 degrees of freedom as
           vibrations may cause significant error
 Vibrational temperatures:    105.75   258.42   359.24   382.22   455.71
          (Kelvin)            477.62   549.85   707.08   773.67   902.30
                             1070.63  1250.62  1361.24  1376.94  1462.90
                             1514.09  1545.46  1583.52  1804.98  1829.63
                             1856.31  2040.79  2051.78  2080.15  2110.40
                             2144.89  2170.87  2509.36  4163.35  4362.52
                             4450.70  4507.00  4551.32  4679.74  5469.01
                             5490.56

 Zero-point correction=                           0.117822 (Hartree/Particle)
 Thermal correction to Energy=                    0.125106
 Thermal correction to Enthalpy=                  0.126050
 Thermal correction to Gibbs Free Energy=         0.087023
 Sum of electronic and zero-point Energies=           -307.549017
 Sum of electronic and thermal Energies=              -307.541733
 Sum of electronic and thermal Enthalpies=            -307.540789
 Sum of electronic and thermal Free Energies=         -307.579817

                     E (Thermal)             CV                S
                      KCal/Mol        Cal/Mol-Kelvin    Cal/Mol-Kelvin
 Total                   78.505             25.929             82.140
 Electronic               0.000              0.000              0.000
 Translational            0.889              2.981             39.339
 Rotational               0.889              2.981             26.673
 Vibrational             76.728             19.967             16.129
 Vibration     1          0.599              1.967              4.057
 Vibration     2          0.629              1.867              2.332
 Vibration     3          0.662              1.763              1.733
 Vibration     4          0.671              1.736              1.624
 Vibration     5          0.704              1.642              1.327
 Vibration     6          0.714              1.612              1.251
 Vibration     7          0.752              1.508              1.031
 Vibration     8          0.847              1.269              0.680
 Vibration     9          0.893              1.167              0.570

 Normal termination of Gaussian 09 at Thu Sep  8 15:25:24 2022.
