 Gaussian 09, Revision E.01,
 Gaussian 09:  ES64L-G09RevE.01 30-Nov-2015

 ----------------------------
 #P OPT Freq B3LYP/6-31G(d,p)
 ----------------------------

 --------
 Frag_891
 --------
 Symbolic Z-matrix:
 Charge =  0 Multiplicity = 1

 SCF Done:  E(RB3LYP) =  -363.033872272     A.U. after   13 cycles
 SCF Done:  E(RB3LYP) =  -363.033942260     A.U. after   10 cycles
 SCF Done:  E(RB3LYP) =  -363.033946085     A.U. after    8 cycles
 SCF Done:  E(RB3LYP) =  -363.033947690     A.U. after    8 cycles
 SCF Done:  E(RB3LYP) =  -363.033948264     A.U. after    7 cycles
 SCF Done:  E(RB3LYP) =  -363.033948751     A.U. after    7 cycles
 SCF Done:  E(RB3LYP) =  -363.033949054     A.U. after    7 cycles
 SCF Done:  E(RB3LYP) =  -363.033949308     A.U. after    7 cycles
 Optimization completed.
    -- Stationary point found.
 Normal termination of Gaussian 09 at Thu Sep  8 15:20:43 2022.

 ----------------------------------------------------------------------
 #P Geom=AllCheck Guess=TCheck SCRF=Check GenChk RB3LYP/6-31G(d,p) Freq
 ----------------------------------------------------------------------

 Structure from the checkpoint file:  "B3LYP6-31Gdp.Frag_891.chk"
 --------
 Frag_891
 --------
 Charge =  0 Multiplicity = 1

                         Standard orientation:
 ---------------------------------------------------------------------
 Center     Atomic      Atomic             Coordinates (Angstroms)
 Number     Number       Type             X           Y           Z
 ---------------------------------------------------------------------
      1          6           0        1.459217    1.397384    0.044660
      2          6           0        0.918899    0.177805    0.001375
      3          6           0        1.738011   -1.086624   -0.024264
      4          6           0       -0.606212   -0.008092   -0.006733
      5          7           0       -1.033307   -0.537644    1.266729
      6          8           0       -1.291887    1.193038   -0.277871
      7          8           0       -0.993379   -0.921732   -1.025791
      8          1           0        2.536500    1.536663    0.058133
      9          1           0        0.839008    2.286188    0.070645
     10          1           0        1.454538   -1.751082    0.800155
     11          1           0        1.571324   -1.637498   -0.956947
     12          1           0        2.805813   -0.869594    0.057488
     13          1           0       -0.679448    0.049651    2.017649
     14          1           0       -2.050880   -0.492378    1.295182
     15          1           0       -1.149396    1.395087   -1.214138
     16          1           0       -0.871665   -1.806811   -0.656196
 ---------------------------------------------------------------------

 SCF Done:  E(RB3LYP) =  -363.033949308     A.U. after    1 cycles

 The electronic state is 1-A.
 Alpha  occ. eigenvalues --  -19.14812 -19.14666 -14.32353 -10.31344 -10.19319
 Alpha  occ. eigenvalues --  -10.18063 -10.17529  -1.06839  -0.99155  -0.87922
 Alpha  occ. eigenvalues --   -0.79101  -0.68507  -0.64301  -0.55831  -0.53099
 Alpha  occ. eigenvalues --   -0.50039  -0.48893  -0.45697  -0.42137  -0.40815
 Alpha  occ. eigenvalues --   -0.38657  -0.37229  -0.36405  -0.34896  -0.29071
 Alpha  occ. eigenvalues --   -0.28040  -0.26792  -0.25306
 Alpha virt. eigenvalues --    0.01747   0.07465   0.10840   0.11599   0.13178
 Alpha virt. eigenvalues --    0.14984   0.15640   0.17255   0.17725   0.18464
 Alpha virt. eigenvalues --    0.24178   0.25991   0.27729   0.29257   0.32465

 Mulliken charges:
               1
     1  C   -0.285559
     2  C    0.147851
     3  C   -0.382334
     4  C    0.525431
     5  N   -0.594761
     6  O   -0.544286
     7  O   -0.551612
     8  H    0.090072
     9  H    0.104984
    10  H    0.125981
    11  H    0.121625
    12  H    0.108606
    13  H    0.252351
    14  H    0.253313
    15  H    0.312095
    16  H    0.316243
 Sum of Mulliken charges =  -0.00000

 Dipole moment (field-independent basis, Debye):
    X=              0.6132    Y=             -0.3059    Z=              0.4803  Tot=              0.8368
 Quadrupole moment (field-independent basis, Debye-Ang):
   XX=            -41.6579   YY=            -40.4516   ZZ=            -41.5068
   XY=              0.6586   XZ=             -1.4097   YZ=             -0.6789

  Exact polarizability:  58.118   4.846  64.587  -0.434  -0.266  44.303
 Approx polarizability:  75.354  10.113  96.780   1.184   0.560  63.911

                      1                      2                      3
                      A                      A                      A
 Frequencies --     75.7549               193.5457               210.1912
 Red. masses --      3.4203                 1.0614                 1.2230
 Frc consts  --      0.0116                 0.0234                 0.0318
 IR Inten    --      1.2112                21.3889                37.4471

                      4                      5                      6
                      A                      A                      A
 Frequencies --    235.9533               276.4510               305.0888
 Red. masses --      2.1992                 2.9922                 1.3355
 Frc consts  --      0.0721                 0.1347                 0.0732
 IR Inten    --      4.5280                 0.6258                41.6738

                      7                      8                      9
                      A                      A                      A
 Frequencies --    368.3746               380.0875               421.8789
 Red. masses --      1.4686                 2.9074                 2.1046
 Frc consts  --      0.1174                 0.2475                 0.2207
 IR Inten    --     84.9089                33.0223                55.0624

                     10                     11                     12
                      A                      A                      A
 Frequencies --    495.9996               544.6133               551.4135
 Red. masses --      2.4214                 3.3816                 3.2189
 Frc consts  --      0.3510                 0.5909                 0.5767
 IR Inten    --     29.4961                 8.2372                29.9482

                     13                     14                     15
                      A                      A                      A
 Frequencies --    595.2248               741.8305               772.0144
 Red. masses --      2.5187                 3.7025                 1.2573
 Frc consts  --      0.5258                 1.2005                 0.4415
 IR Inten    --     10.3328                10.1118                 0.6822

                     16                     17                     18
                      A                      A                      A
 Frequencies --    898.1771               939.8943               955.8223
 Red. masses --      1.6567                 2.1894                 1.3337
 Frc consts  --      0.7874                 1.1395                 0.7179
 IR Inten    --    137.7261                 4.3042                28.3110

                     19                     20                     21
                      A                      A                      A
 Frequencies --    995.8122              1016.3383              1056.1832
 Red. masses --      2.2210                 1.5124                 2.2194
 Frc consts  --      1.2977                 0.9204                 1.4587
 IR Inten    --     77.9941                54.8351               127.3829

                     22                     23                     24
                      A                      A                      A
 Frequencies --   1082.4812              1114.3262              1249.0433
 Red. masses --      1.5563                 1.9012                 1.8381
 Frc consts  --      1.0745                 1.3909                 1.6896
 IR Inten    --     20.0621                52.4477                62.7579

                     25                     26                     27
                      A                      A                      A
 Frequencies --   1308.3477              1362.2941              1393.0995
 Red. masses --      1.6761                 2.3434                 1.8389
 Frc consts  --      1.6905                 2.5623                 2.1027
 IR Inten    --     87.2434                75.7809               109.3741

                     28                     29                     30
                      A                      A                      A
 Frequencies --   1416.3996              1449.1016              1493.9967
 Red. masses --      1.2568                 1.2254                 1.0445
 Frc consts  --      1.4856                 1.5161                 1.3736
 IR Inten    --      3.3119                15.0720                 5.3423

                     31                     32                     33
                      A                      A                      A
 Frequencies --   1517.5014              1654.6771              1733.8043
 Red. masses --      1.0542                 1.1120                 5.5227
 Frc consts  --      1.4304                 1.7938                 9.7814
 IR Inten    --     11.6151                48.0032                 4.8656

                     34                     35                     36
                      A                      A                      A
 Frequencies --   3040.7235              3097.9326              3131.6389
 Red. masses --      1.0365                 1.1003                 1.1018
 Frc consts  --      5.6464                 6.2217                 6.3663
 IR Inten    --     18.8345                14.7743                18.5779

                     37                     38                     39
                      A                      A                      A
 Frequencies --   3161.5772              3253.9746              3491.1920
 Red. masses --      1.0612                 1.1147                 1.0499
 Frc consts  --      6.2497                 6.9538                 7.5393
 IR Inten    --     10.4924                 7.6894                 1.4924

                     40                     41                     42
                      A                      A                      A
 Frequencies --   3585.3579              3795.9117              3821.2765
 Red. masses --      1.0920                 1.0652                 1.0654
 Frc consts  --      8.2704                 9.0431                 9.1661
 IR Inten    --      2.5855                22.2357                31.5453

 - Thermochemistry -
 -------------------
 Temperature   298.150 Kelvin.  Pressure   1.00000 Atm.
 Atom     1 has atomic number  6 and mass  12.00000

 Molecular mass:   103.06333 amu.
 Principal axes and moments of inertia in atomic units:
                           1         2         3
     Eigenvalues --   528.02524 749.83590 922.21465
           X            0.99975  -0.01412  -0.01749
           Y            0.01388   0.99981  -0.01391
           Z            0.01769   0.01366   0.99975
 This molecule is an asymmetric top.
 Rotational symmetry number  1.
 Warning -- assumption of classical behavior for rotation
           may cause significant error
 Rotational temperatures (Kelvin)      0.16403     0.11551     0.09392
 Rotational constants (GHZ):           3.41791     2.40685     1.95696
 Zero-point vibrational energy     354006.7 (Joules/Mol)
                                   84.60964 (Kcal/Mol)
 Warning -- explicit consideration of  13 degrees of freedom as
           vibrations may cause significant error
 Vibrational temperatures:    108.99   278.47   302.42   339.48   397.75
          (Kelvin)            438.95   530.01   546.86   606.99   713.63
                              783.58   793.36   856.39  1067.33  1110.76
                             1292.27  1352.30  1375.21  1432.75  1462.28
                             1519.61  1557.45  1603.26  1797.09  1882.42
                             1960.03  2004.36  2037.88  2084.93  2149.53
                             2183.34  2380.71  2494.55  4374.92  4457.23
                             4505.72  4548.80  4681.74  5023.04  5158.52
                             5461.46  5497.96

 Zero-point correction=                           0.134834 (Hartree/Particle)
 Thermal correction to Energy=                    0.143214
 Thermal correction to Enthalpy=                  0.144159
 Thermal correction to Gibbs Free Energy=         0.102890
 Sum of electronic and zero-point Energies=           -362.899115
 Sum of electronic and thermal Energies=              -362.890735
 Sum of electronic and thermal Enthalpies=            -362.889791
 Sum of electronic and thermal Free Energies=         -362.931059

                     E (Thermal)             CV                S
                      KCal/Mol        Cal/Mol-Kelvin    Cal/Mol-Kelvin
 Total                   89.868             31.241             86.856
 Electronic               0.000              0.000              0.000
 Translational            0.889              2.981             39.808
 Rotational               0.889              2.981             27.393
 Vibrational             88.091             25.280             19.655
 Vibration     1          0.599              1.965              3.998
 Vibration     2          0.635              1.849              2.194
 Vibration     3          0.642              1.825              2.042
 Vibration     4          0.655              1.786              1.833
 Vibration     5          0.678              1.717              1.556
 Vibration     6          0.696              1.664              1.389
 Vibration     7          0.741              1.537              1.087
 Vibration     8          0.750              1.513              1.039
 Vibration     9          0.784              1.423              0.886
 Vibration    10          0.852              1.259              0.668
 Vibration    11          0.900              1.151              0.555
 Vibration    12          0.907              1.137              0.541
 Vibration    13          0.953              1.042              0.458

 Normal termination of Gaussian 09 at Thu Sep  8 15:20:58 2022.
