 Gaussian 09, Revision E.01,
 Gaussian 09:  ES64L-G09RevE.01 30-Nov-2015

 ----------------------------
 #P OPT Freq B3LYP/6-31G(d,p)
 ----------------------------

 ---------
 Frag_1136
 ---------
 Symbolic Z-matrix:
 Charge =  0 Multiplicity = 1

 SCF Done:  E(RB3LYP) =  -167.181875194     A.U. after   12 cycles
 SCF Done:  E(RB3LYP) =  -167.181936356     A.U. after   10 cycles
 SCF Done:  E(RB3LYP) =  -167.181921097     A.U. after   10 cycles
 SCF Done:  E(RB3LYP) =  -167.181854571     A.U. after   13 cycles
 SCF Done:  E(RB3LYP) =  -167.181943591     A.U. after    7 cycles
 SCF Done:  E(RB3LYP) =  -167.181953240     A.U. after   10 cycles
 SCF Done:  E(RB3LYP) =  -167.181955086     A.U. after   10 cycles
 SCF Done:  E(RB3LYP) =  -167.181957713     A.U. after   10 cycles
 SCF Done:  E(RB3LYP) =  -167.181959463     A.U. after    9 cycles
 SCF Done:  E(RB3LYP) =  -167.181960754     A.U. after    8 cycles
 SCF Done:  E(RB3LYP) =  -167.181961037     A.U. after    7 cycles
 Optimization completed.
    -- Stationary point found.
 Normal termination of Gaussian 09 at Thu Sep  8 14:54:27 2022.

 ----------------------------------------------------------------------
 #P Geom=AllCheck Guess=TCheck SCRF=Check GenChk RB3LYP/6-31G(d,p) Freq
 ----------------------------------------------------------------------

 Structure from the checkpoint file:  "B3LYP6-31Gdp.Frag_1136.chk"
 ---------
 Frag_1136
 ---------
 Charge =  0 Multiplicity = 1

                         Standard orientation:
 ---------------------------------------------------------------------
 Center     Atomic      Atomic             Coordinates (Angstroms)
 Number     Number       Type             X           Y           Z
 ---------------------------------------------------------------------
      1          7           0       -1.059320    0.487344   -0.000006
      2          7           0       -1.198692   -0.729032    0.000008
      3          7           0        1.723743    0.059838   -0.000012
      4          1           0       -1.864807    1.157220   -0.000019
      5          1           0       -0.105460    0.926866   -0.000033
      6          1           0        2.320512   -0.040726    0.816348
      7          1           0        1.069305   -0.729343    0.000234
      8          1           0        2.320330   -0.041072   -0.816463
 ---------------------------------------------------------------------

 SCF Done:  E(RB3LYP) =  -167.181961037     A.U. after    1 cycles

 The electronic state is 1-A.
 Alpha  occ. eigenvalues --  -14.42448 -14.32655 -14.31436  -1.01430  -0.85084
 Alpha  occ. eigenvalues --   -0.68903  -0.54749  -0.46245  -0.45308  -0.38895
 Alpha  occ. eigenvalues --   -0.37457  -0.27300  -0.18044
 Alpha virt. eigenvalues --   -0.02474   0.07386   0.09175   0.16196   0.19024
 Alpha virt. eigenvalues --    0.20368   0.37184   0.60348   0.61011   0.66531
 Alpha virt. eigenvalues --    0.69425   0.70995   0.73290   0.76659   0.77927

 Mulliken charges:
               1
     1  N   -0.216113
     2  N   -0.310217
     3  N   -0.756402
     4  H    0.233546
     5  H    0.280740
     6  H    0.248723
     7  H    0.270996
     8  H    0.248728
 Sum of Mulliken charges =  -0.00000

 Dipole moment (field-independent basis, Debye):
    X=              1.6022    Y=              1.8997    Z=              0.0001  Tot=              2.4852
 Quadrupole moment (field-independent basis, Debye-Ang):
   XX=            -15.8308   YY=            -20.2007   ZZ=            -17.9293
   XY=             -5.7138   XZ=              0.0003   YZ=              0.0003

  Exact polarizability:  31.552  -2.519  27.853   0.000   0.000  15.989
 Approx polarizability:  35.856  -0.745  45.040   0.000   0.000  21.513

                      1                      2                      3
                      A                      A                      A
 Frequencies --    199.5538               204.8306               252.2033
 Red. masses --      4.2357                 1.0476                 2.6603
 Frc consts  --      0.0994                 0.0259                 0.0997
 IR Inten    --     49.1118                10.7657               134.1554

                      4                      5                      6
                      A                      A                      A
 Frequencies --    286.2868               479.5304               504.6550
 Red. masses --      1.1338                 1.0909                 1.2634
 Frc consts  --      0.0548                 0.1478                 0.1896
 IR Inten    --     62.5581                 0.6800                89.8481

                      7                      8                      9
                      A                      A                      A
 Frequencies --   1084.1799              1138.8406              1374.2605
 Red. masses --      1.2506                 1.1627                 1.2699
 Frc consts  --      0.8661                 0.8885                 1.4130
 IR Inten    --    110.7824               206.0161                21.9431

                     10                     11                     12
                      A                      A                      A
 Frequencies --   1633.9793              1673.7993              1713.0374
 Red. masses --      3.7948                 1.2322                 1.0645
 Frc consts  --      5.9694                 2.0340                 1.8405
 IR Inten    --     33.1263                 2.9946                15.2487

                     13                     14                     15
                      A                      A                      A
 Frequencies --   1713.4628              2976.9448              3052.2809
 Red. masses --      1.1147                 1.0295                 1.1135
 Frc consts  --      1.9282                 5.3755                 6.1123
 IR Inten    --     11.3402               295.4807                20.5982

                     16                     17                     18
                      A                      A                      A
 Frequencies --   3394.8298              3555.4268              3612.8867
 Red. masses --      1.0422                 1.0747                 1.0896
 Frc consts  --      7.0766                 8.0041                 8.3797
 IR Inten    --     80.0545                22.3491                 0.9233

 - Thermochemistry -
 -------------------
 Temperature   298.150 Kelvin.  Pressure   1.00000 Atm.
 Atom     1 has atomic number  7 and mass  14.00307

 Molecular mass:    47.04835 amu.
 Principal axes and moments of inertia in atomic units:
                           1         2         3
     Eigenvalues --    52.71400 336.16065 379.27944
           X            0.99923  -0.03911   0.00000
           Y            0.03911   0.99923   0.00000
           Z           -0.00000  -0.00000   1.00000
 This molecule is an asymmetric top.
 Rotational symmetry number  1.
 Rotational temperatures (Kelvin)      1.64309     0.25766     0.22836
 Rotational constants (GHZ):          34.23647     5.36869     4.75834
 Zero-point vibrational energy     172567.2 (Joules/Mol)
                                   41.24456 (Kcal/Mol)
 Warning -- explicit consideration of   6 degrees of freedom as
           vibrations may cause significant error
 Vibrational temperatures:    287.11   294.71   362.86   411.90   689.94
          (Kelvin)            726.09  1559.89  1638.54  1977.25  2350.93
                             2408.22  2464.68  2465.29  4283.15  4391.55
                             4884.40  5115.46  5198.13

 Zero-point correction=                           0.065727 (Hartree/Particle)
 Thermal correction to Energy=                    0.071121
 Thermal correction to Enthalpy=                  0.072065
 Thermal correction to Gibbs Free Energy=         0.038877
 Sum of electronic and zero-point Energies=           -167.116234
 Sum of electronic and thermal Energies=              -167.110840
 Sum of electronic and thermal Enthalpies=            -167.109896
 Sum of electronic and thermal Free Energies=         -167.143084

                     E (Thermal)             CV                S
                      KCal/Mol        Cal/Mol-Kelvin    Cal/Mol-Kelvin
 Total                   44.629             16.443             69.850
 Electronic               0.000              0.000              0.000
 Translational            0.889              2.981             37.471
 Rotational               0.889              2.981             23.423
 Vibrational             42.852             10.482              8.957
 Vibration     1          0.638              1.841              2.137
 Vibration     2          0.640              1.833              2.089
 Vibration     3          0.664              1.759              1.715
 Vibration     4          0.684              1.699              1.496
 Vibration     5          0.836              1.295              0.711
 Vibration     6          0.860              1.240              0.647

 Optimization completed.
    -- Stationary point found.
 Normal termination of Gaussian 09 at Thu Sep  8 14:54:33 2022.
