 Gaussian 09, Revision E.01,
 Gaussian 09:  ES64L-G09RevE.01 30-Nov-2015

 ----------------------------
 #P OPT Freq B3LYP/6-31G(d,p)
 ----------------------------

 --------
 Frag_759
 --------
 Symbolic Z-matrix:
 Charge =  0 Multiplicity = 1

 SCF Done:  E(RB3LYP) =  -344.810995660     A.U. after   13 cycles
 SCF Done:  E(RB3LYP) =  -344.811057835     A.U. after    9 cycles
 SCF Done:  E(RB3LYP) =  -344.811065854     A.U. after    8 cycles
 SCF Done:  E(RB3LYP) =  -344.811068166     A.U. after    7 cycles
 SCF Done:  E(RB3LYP) =  -344.811070836     A.U. after    8 cycles
 SCF Done:  E(RB3LYP) =  -344.811073929     A.U. after    8 cycles
 SCF Done:  E(RB3LYP) =  -344.811079239     A.U. after    9 cycles
 SCF Done:  E(RB3LYP) =  -344.811084170     A.U. after   10 cycles
 SCF Done:  E(RB3LYP) =  -344.811085458     A.U. after    8 cycles
 SCF Done:  E(RB3LYP) =  -344.811085504     A.U. after    7 cycles
 SCF Done:  E(RB3LYP) =  -344.811085573     A.U. after    7 cycles
 Optimization completed.
    -- Stationary point found.
 Normal termination of Gaussian 09 at Thu Sep  8 15:10:46 2022.

 ----------------------------------------------------------------------
 #P Geom=AllCheck Guess=TCheck SCRF=Check GenChk RB3LYP/6-31G(d,p) Freq
 ----------------------------------------------------------------------

 Structure from the checkpoint file:  "B3LYP6-31Gdp.Frag_759.chk"
 --------
 Frag_759
 --------
 Charge =  0 Multiplicity = 1

                         Standard orientation:
 ---------------------------------------------------------------------
 Center     Atomic      Atomic             Coordinates (Angstroms)
 Number     Number       Type             X           Y           Z
 ---------------------------------------------------------------------
      1          6           0        1.993012    0.004392   -0.019605
      2          8           0        0.783043   -0.512123   -0.559425
      3          6           0       -0.423241   -0.018164    0.011871
      4          6           0       -0.616460    1.479072   -0.197615
      5          8           0       -0.485514   -0.263795    1.384547
      6          8           0       -1.427408   -0.760577   -0.629946
      7          1           0        1.979670   -0.026079    1.074954
      8          1           0        2.795996   -0.636145   -0.390443
      9          1           0        2.183489    1.033853   -0.349912
     10          1           0       -1.621378    1.753078    0.128066
     11          1           0       -0.505645    1.717425   -1.257880
     12          1           0        0.106089    2.058332    0.381913
     13          1           0       -0.617855   -1.219568    1.474148
     14          1           0       -1.001207   -1.180736   -1.390172
 ---------------------------------------------------------------------

 SCF Done:  E(RB3LYP) =  -344.811085573     A.U. after    1 cycles

 The electronic state is 1-A.
 Alpha  occ. eigenvalues --  -19.15590 -19.15217 -19.15094 -10.33347 -10.22999
 Alpha  occ. eigenvalues --  -10.17551  -1.09825  -1.00515  -0.99816  -0.74348
 Alpha  occ. eigenvalues --   -0.69609  -0.59995  -0.54027  -0.52994  -0.47007
 Alpha  occ. eigenvalues --   -0.44945  -0.43236  -0.39828  -0.38950  -0.37593
 Alpha  occ. eigenvalues --   -0.36200  -0.33532  -0.30846  -0.28071  -0.27153
 Alpha virt. eigenvalues --    0.08241   0.10986   0.11317   0.14078   0.15311
 Alpha virt. eigenvalues --    0.16045   0.17330   0.17554   0.18885   0.23306
 Alpha virt. eigenvalues --    0.25868   0.27200   0.29809   0.51288   0.52930

 Mulliken charges:
               1
     1  C   -0.075868
     2  O   -0.522306
     3  C    0.683920
     4  C   -0.321200
     5  O   -0.515378
     6  O   -0.558713
     7  H    0.118239
     8  H    0.114588
     9  H    0.100387
    10  H    0.130147
    11  H    0.110022
    12  H    0.111363
    13  H    0.307426
    14  H    0.317374
 Sum of Mulliken charges =  -0.00000

 Dipole moment (field-independent basis, Debye):
    X=              1.4939    Y=             -0.2463    Z=             -0.5564  Tot=              1.6131
 Quadrupole moment (field-independent basis, Debye-Ang):
   XX=            -36.6579   YY=            -33.1962   ZZ=            -36.1101
   XY=              0.4228   XZ=              0.8435   YZ=             -1.1720

  Exact polarizability:  46.900   0.436  42.327  -0.025   0.031  40.812
 Approx polarizability:  59.278   2.037  55.488  -0.465   2.361  57.928

                      1                      2                      3
                      A                      A                      A
 Frequencies --     99.7112               155.4814               179.7192
 Red. masses --      1.8666                 1.2561                 1.1670
 Frc consts  --      0.0109                 0.0179                 0.0222
 IR Inten    --     24.7765                60.6766                 1.9348

                      4                      5                      6
                      A                      A                      A
 Frequencies --    253.9290               283.6602               332.9750
 Red. masses --      1.1739                 2.8205                 1.6666
 Frc consts  --      0.0446                 0.1337                 0.1089
 IR Inten    --      5.1413                 3.4083                30.8609

                      7                      8                      9
                      A                      A                      A
 Frequencies --    384.5603               421.6342               510.2340
 Red. masses --      2.5434                 1.7456                 3.5681
 Frc consts  --      0.2216                 0.1828                 0.5473
 IR Inten    --     18.0816                59.2928                12.2498

                     10                     11                     12
                      A                      A                      A
 Frequencies --    557.9886               602.7427               780.1008
 Red. masses --      3.8554                 4.1875                 4.5817
 Frc consts  --      0.7072                 0.8963                 1.6428
 IR Inten    --     24.1927                 3.8610                17.0123

                     13                     14                     15
                      A                      A                      A
 Frequencies --    910.8898               975.6978              1056.6484
 Red. masses --      2.4935                 1.8682                 1.8467
 Frc consts  --      1.2189                 1.0479                 1.2148
 IR Inten    --     70.5134                60.9778                98.7101

                     16                     17                     18
                      A                      A                      A
 Frequencies --   1115.0053              1138.2077              1183.8958
 Red. masses --      6.1308                 1.8594                 1.2770
 Frc consts  --      4.4907                 1.4193                 1.0546
 IR Inten    --     66.0271               138.9227                 2.5268

                     19                     20                     21
                      A                      A                      A
 Frequencies --   1212.5713              1241.3135              1350.9676
 Red. masses --      1.7482                 2.5029                 1.5583
 Frc consts  --      1.5145                 2.2722                 1.6757
 IR Inten    --     98.3495               193.4876               174.7116

                     22                     23                     24
                      A                      A                      A
 Frequencies --   1388.7025              1449.1717              1481.0520
 Red. masses --      1.3560                 1.7528                 1.1393
 Frc consts  --      1.5407                 2.1688                 1.4724
 IR Inten    --     39.8311                75.4757                10.8890

                     25                     26                     27
                      A                      A                      A
 Frequencies --   1495.6113              1501.8855              1518.7874
 Red. masses --      1.0548                 1.0580                 1.0930
 Frc consts  --      1.3902                 1.4061                 1.4855
 IR Inten    --      1.3146                 2.1737                 5.1369

                     28                     29                     30
                      A                      A                      A
 Frequencies --   1527.5328              3023.9034              3071.9580
 Red. masses --      1.0483                 1.0370                 1.0353
 Frc consts  --      1.4412                 5.5867                 5.7562
 IR Inten    --      6.7118                46.4825                 6.1933

                     31                     32                     33
                      A                      A                      A
 Frequencies --   3095.3433              3138.7927              3151.7628
 Red. masses --      1.0992                 1.1034                 1.1036
 Frc consts  --      6.2053                 6.4050                 6.4591
 IR Inten    --     38.6368                23.8427                18.7372

                     34                     35                     36
                      A                      A                      A
 Frequencies --   3160.6890              3789.1579              3814.0109
 Red. masses --      1.1036                 1.0648                 1.0653
 Frc consts  --      6.4958                 9.0074                 9.1303
 IR Inten    --     12.9654                28.7344                46.4841

 - Thermochemistry -
 -------------------
 Temperature   298.150 Kelvin.  Pressure   1.00000 Atm.
 Atom     1 has atomic number  6 and mass  12.00000

 Molecular mass:    92.04734 amu.
 Principal axes and moments of inertia in atomic units:
                           1         2         3
     Eigenvalues --   375.70371 610.12679 632.67551
           X            0.99976  -0.01033   0.01949
           Y            0.01468   0.97103  -0.23851
           Z           -0.01646   0.23874   0.97094
 This molecule is an asymmetric top.
 Rotational symmetry number  1.
 Rotational temperatures (Kelvin)      0.23054     0.14196     0.13690
 Rotational constants (GHZ):           4.80363     2.95798     2.85255
 Zero-point vibrational energy     307178.9 (Joules/Mol)
                                   73.41751 (Kcal/Mol)
 Warning -- explicit consideration of  11 degrees of freedom as
           vibrations may cause significant error
 Vibrational temperatures:    143.46   223.70   258.58   365.35   408.12
          (Kelvin)            479.08   553.30   606.64   734.11   802.82
                              867.21  1122.39  1310.57  1403.81  1520.28
                             1604.24  1637.63  1703.36  1744.62  1785.97
                             1943.74  1998.03  2085.03  2130.90  2151.85
                             2160.88  2185.19  2197.78  4350.72  4419.86
                             4453.50  4516.02  4534.68  4547.52  5451.75
                             5487.50

 Zero-point correction=                           0.116998 (Hartree/Particle)
 Thermal correction to Energy=                    0.124615
 Thermal correction to Enthalpy=                  0.125559
 Thermal correction to Gibbs Free Energy=         0.086031
 Sum of electronic and zero-point Energies=           -344.694087
 Sum of electronic and thermal Energies=              -344.686471
 Sum of electronic and thermal Enthalpies=            -344.685526
 Sum of electronic and thermal Free Energies=         -344.725055

                     E (Thermal)             CV                S
                      KCal/Mol        Cal/Mol-Kelvin    Cal/Mol-Kelvin
 Total                   78.197             26.741             83.194
 Electronic               0.000              0.000              0.000
 Translational            0.889              2.981             39.471
 Rotational               0.889              2.981             26.475
 Vibrational             76.420             20.780             17.248
 Vibration     1          0.604              1.949              3.460
 Vibration     2          0.620              1.897              2.604
 Vibration     3          0.629              1.867              2.331
 Vibration     4          0.665              1.756              1.703
 Vibration     5          0.682              1.704              1.512
 Vibration     6          0.715              1.610              1.246
 Vibration     7          0.753              1.503              1.021
 Vibration     8          0.784              1.423              0.886
 Vibration     9          0.865              1.227              0.633
 Vibration    10          0.914              1.122              0.528
 Vibration    11          0.961              1.026              0.445

 Optimization completed.
    -- Stationary point found.
 Normal termination of Gaussian 09 at Thu Sep  8 15:10:57 2022.
