 Gaussian 09, Revision E.01,
 Gaussian 09:  ES64L-G09RevE.01 30-Nov-2015

 -------------------------
 #P OPT Freq B3LYP/6-31G**
 -------------------------

 --------
 Frag_206
 --------
 Symbolic Z-matrix:
 Charge =  0 Multiplicity = 1

 SCF Done:  E(RB3LYP) =  -249.706688543     A.U. after   13 cycles
 SCF Done:  E(RB3LYP) =  -249.711501374     A.U. after   11 cycles
 SCF Done:  E(RB3LYP) =  -249.711731948     A.U. after   10 cycles
 SCF Done:  E(RB3LYP) =  -249.711764526     A.U. after    9 cycles
 SCF Done:  E(RB3LYP) =  -249.711779791     A.U. after    9 cycles
 SCF Done:  E(RB3LYP) =  -249.711788989     A.U. after    9 cycles
 SCF Done:  E(RB3LYP) =  -249.711791362     A.U. after    8 cycles
 Optimization completed.
    -- Stationary point found.
 Normal termination of Gaussian 09 at Sat Aug 21 01:38:37 2021.

 ----------------------------------------------------------------------
 #P Geom=AllCheck Guess=TCheck SCRF=Check GenChk RB3LYP/6-31G(d,p) Freq
 ----------------------------------------------------------------------

 Structure from the checkpoint file:  "/public/home/users/caep010/.cache/gau_scr/Gau-99103.chk"
 --------
 Frag_206
 --------
 Charge =  0 Multiplicity = 1

                         Standard orientation:
 ---------------------------------------------------------------------
 Center     Atomic      Atomic             Coordinates (Angstroms)
 Number     Number       Type             X           Y           Z
 ---------------------------------------------------------------------
      1          6           0        0.629636    1.427298    0.131830
      2          6           0        0.465354   -0.024620   -0.333768
      3          7           0        1.602790   -0.906776   -0.034871
      4          6           0       -0.796158   -0.670513    0.258969
      5          8           0       -1.986774    0.055686   -0.024345
      6          1           0       -0.268539    2.011974   -0.087283
      7          1           0        1.485924    1.905073   -0.356948
      8          1           0        0.795152    1.464763    1.216124
      9          1           0        0.349353   -0.028907   -1.428685
     10          1           0        2.437088   -0.559807   -0.503410
     11          1           0        1.809283   -0.859425    0.962649
     12          1           0       -0.716726   -0.691708    1.353273
     13          1           0       -0.856006   -1.712024   -0.086009
     14          1           0       -2.153854   -0.020983   -0.973038
 ---------------------------------------------------------------------

 SCF Done:  E(RB3LYP) =  -249.711791362     A.U. after    1 cycles

 The electronic state is 1-A.
 Alpha  occ. eigenvalues --  -19.14187 -14.31309 -10.22249 -10.21134 -10.17057
 Alpha  occ. eigenvalues --   -1.01303  -0.88340  -0.73694  -0.67534  -0.58712
 Alpha  occ. eigenvalues --   -0.50224  -0.48291  -0.44924  -0.42142  -0.40192
 Alpha  occ. eigenvalues --   -0.39868  -0.36044  -0.34783  -0.31715  -0.26657
 Alpha  occ. eigenvalues --   -0.23581
 Alpha virt. eigenvalues --    0.07450   0.07845   0.12081   0.14538   0.15555
 Alpha virt. eigenvalues --    0.16735   0.17988   0.18338   0.19512   0.23711
 Alpha virt. eigenvalues --    0.24521   0.25187   0.28551   0.51533   0.53120

 Mulliken charges:
               1
     1  C   -0.307475
     2  C    0.021227
     3  N   -0.594090
     4  C    0.071366
     5  O   -0.537958
     6  H    0.116698
     7  H    0.090792
     8  H    0.093306
     9  H    0.082383
    10  H    0.236352
    11  H    0.231897
    12  H    0.095415
    13  H    0.097290
    14  H    0.302798
 Sum of Mulliken charges =  -0.00000

 Dipole moment (field-independent basis, Debye):
    X=              1.2261    Y=              0.5045    Z=             -0.7938  Tot=              1.5453
 Quadrupole moment (field-independent basis, Debye-Ang):
   XX=            -32.0165   YY=            -35.5006   ZZ=            -28.8814
   XY=              2.4915   XZ=              3.8652   YZ=             -1.1173

  Exact polarizability:  47.098  -0.878  42.353   1.320  -1.059  42.324
 Approx polarizability:  60.267  -3.180  54.551   1.532  -1.490  61.252

                      1                      2                      3
                      A                      A                      A
 Frequencies --    131.8829               236.8440               255.0558
 Red. masses --      2.2981                 1.3827                 1.0465
 Frc consts  --      0.0236                 0.0457                 0.0401
 IR Inten    --      4.9926                13.0952                11.6750

                      4                      5                      6
                      A                      A                      A
 Frequencies --    273.6734               319.1069               384.1561
 Red. masses --      1.9397                 1.1592                 2.4591
 Frc consts  --      0.0856                 0.0695                 0.2138
 IR Inten    --     28.7975               110.6864                15.6961

                      7                      8                      9
                      A                      A                      A
 Frequencies --    447.3087               498.6566               829.4751
 Red. masses --      1.8717                 3.8691                 2.8640
 Frc consts  --      0.2207                 0.5668                 1.1610
 IR Inten    --     20.6855                 2.8287                 3.2064

                     10                     11                     12
                      A                      A                      A
 Frequencies --    887.4064               911.6946               960.8377
 Red. masses --      1.4380                 1.2718                 1.5986
 Frc consts  --      0.6672                 0.6228                 0.8695
 IR Inten    --    175.7287                 2.4760                 0.6399

                     13                     14                     15
                      A                      A                      A
 Frequencies --   1030.2261              1087.7808              1119.9282
 Red. masses --      1.5650                 3.7350                 1.5628
 Frc consts  --      0.9787                 2.6039                 1.1549
 IR Inten    --     24.5368                96.6823                11.5947

                     16                     17                     18
                      A                      A                      A
 Frequencies --   1149.9641              1194.1211              1285.0310
 Red. masses --      1.5512                 1.9247                 1.4065
 Frc consts  --      1.2086                 1.6170                 1.3684
 IR Inten    --      5.1737                 6.5967                 8.6107

                     19                     20                     21
                      A                      A                      A
 Frequencies --   1366.7901              1377.5243              1409.7550
 Red. masses --      1.2919                 1.2922                 1.2179
 Frc consts  --      1.4219                 1.4447                 1.4261
 IR Inten    --      5.9841                 4.2336                36.2480

                     22                     23                     24
                      A                      A                      A
 Frequencies --   1413.5474              1431.3696              1500.7872
 Red. masses --      1.3144                 1.3508                 1.0557
 Frc consts  --      1.5474                 1.6306                 1.4010
 IR Inten    --     13.5067                 5.3032                 2.8591

                     25                     26                     27
                      A                      A                      A
 Frequencies --   1515.3789              1520.2171              1668.7024
 Red. masses --      1.0656                 1.0831                 1.0919
 Frc consts  --      1.4418                 1.4747                 1.7914
 IR Inten    --      4.9508                 1.1993                24.1039

                     28                     29                     30
                      A                      A                      A
 Frequencies --   3002.9633              3021.1185              3031.4642
 Red. masses --      1.0841                 1.0591                 1.0385
 Frc consts  --      5.7602                 5.6952                 5.6228
 IR Inten    --     28.5232                56.2491                16.8085

                     31                     32                     33
                      A                      A                      A
 Frequencies --   3073.5924              3098.8679              3125.6948
 Red. masses --      1.1056                 1.1011                 1.1007
 Frc consts  --      6.1539                 6.2301                 6.3357
 IR Inten    --     45.0326                45.8387                22.9630

                     34                     35                     36
                      A                      A                      A
 Frequencies --   3470.2158              3556.3389              3810.3514
 Red. masses --      1.0504                 1.0910                 1.0663
 Frc consts  --      7.4525                 8.1295                 9.1211
 IR Inten    --      1.7593                 0.2540                12.7458

 - Thermochemistry -
 -------------------
 Temperature   298.150 Kelvin.  Pressure   1.00000 Atm.
 Atom     1 has atomic number  6 and mass  12.00000

 Molecular mass:    75.06841 amu.
 Principal axes and moments of inertia in atomic units:
                           1         2         3
     Eigenvalues --   234.71504 508.44908 671.51305
           X            0.99934   0.03373   0.01349
           Y           -0.03365   0.99941  -0.00672
           Z           -0.01371   0.00627   0.99989
 This molecule is an asymmetric top.
 Rotational symmetry number  1.
 Rotational temperatures (Kelvin)      0.36902     0.17035     0.12898
 Rotational constants (GHZ):           7.68907     3.54950     2.68757
 Zero-point vibrational energy     331352.6 (Joules/Mol)
                                   79.19517 (Kcal/Mol)
 Warning -- explicit consideration of   8 degrees of freedom as
           vibrations may cause significant error
 Vibrational temperatures:    189.75   340.77   366.97   393.75   459.12
          (Kelvin)            552.71   643.58   717.45  1193.43  1276.78
                             1311.72  1382.43  1482.26  1565.07  1611.32
                             1654.54  1718.07  1848.87  1966.50  1981.95
                             2028.32  2033.78  2059.42  2159.30  2180.29
                             2187.25  2400.89  4320.59  4346.71  4361.60
                             4422.21  4458.57  4497.17  4992.86  5116.77
                             5482.24

 Zero-point correction=                           0.126206 (Hartree/Particle)
 Thermal correction to Energy=                    0.132772
 Thermal correction to Enthalpy=                  0.133716
 Thermal correction to Gibbs Free Energy=         0.096847
 Sum of electronic and zero-point Energies=           -249.585586
 Sum of electronic and thermal Energies=              -249.579019
 Sum of electronic and thermal Enthalpies=            -249.578075
 Sum of electronic and thermal Free Energies=         -249.614944

                     E (Thermal)             CV                S
                      KCal/Mol        Cal/Mol-Kelvin    Cal/Mol-Kelvin
 Total                   83.316             23.224             77.597
 Electronic               0.000              0.000              0.000
 Translational            0.889              2.981             38.863
 Rotational               0.889              2.981             25.886
 Vibrational             81.538             17.262             12.848
 Vibration     1          0.612              1.921              2.918
 Vibration     2          0.656              1.784              1.826
 Vibration     3          0.665              1.754              1.695
 Vibration     4          0.676              1.722              1.573
 Vibration     5          0.705              1.637              1.315
 Vibration     6          0.753              1.504              1.023
 Vibration     7          0.806              1.367              0.804
 Vibration     8          0.854              1.253              0.661

 Optimization completed.
    -- Stationary point found.
 Normal termination of Gaussian 09 at Sat Aug 21 01:38:49 2021.
