 Gaussian 09, Revision E.01,
 Gaussian 09:  ES64L-G09RevE.01 30-Nov-2015

 ----------------------------
 #P OPT Freq B3LYP/6-31G(d,p)
 ----------------------------

 ---------
 Frag_1013
 ---------
 Symbolic Z-matrix:
 Charge =  0 Multiplicity = 1

 SCF Done:  E(RB3LYP) =  -188.096444342     A.U. after   14 cycles
 SCF Done:  E(RB3LYP) =  -188.096540044     A.U. after    9 cycles
 SCF Done:  E(RB3LYP) =  -188.096541957     A.U. after    8 cycles
 SCF Done:  E(RB3LYP) =  -188.096542683     A.U. after    8 cycles
 Optimization completed.
    -- Stationary point found.
 Normal termination of Gaussian 09 at Thu Sep  8 14:52:24 2022.

 ----------------------------------------------------------------------
 #P Geom=AllCheck Guess=TCheck SCRF=Check GenChk RB3LYP/6-31G(d,p) Freq
 ----------------------------------------------------------------------

 Structure from the checkpoint file:  "B3LYP6-31Gdp.Frag_1013.chk"
 ---------
 Frag_1013
 ---------
 Charge =  0 Multiplicity = 1

                         Standard orientation:
 ---------------------------------------------------------------------
 Center     Atomic      Atomic             Coordinates (Angstroms)
 Number     Number       Type             X           Y           Z
 ---------------------------------------------------------------------
      1          6           0        1.545879   -0.371947    0.021395
      2          7           0        0.430643    0.575612   -0.097132
      3          6           0       -0.824174    0.110421   -0.007411
      4          7           0       -1.917306   -0.299431    0.020616
      5          1           0        1.382649   -1.196288   -0.675095
      6          1           0        2.466389    0.142094   -0.262646
      7          1           0        1.657071   -0.780203    1.033523
      8          1           0        0.570302    1.470286    0.355924
 ---------------------------------------------------------------------

 SCF Done:  E(RB3LYP) =  -188.096542683     A.U. after    1 cycles

 The electronic state is 1-A.
 Alpha  occ. eigenvalues --  -14.39446 -14.31827 -10.24549 -10.24447  -0.97051
 Alpha  occ. eigenvalues --   -0.87656  -0.72510  -0.59646  -0.50560  -0.46509
 Alpha  occ. eigenvalues --   -0.42316  -0.36881  -0.34910  -0.32152  -0.25471
 Alpha virt. eigenvalues --    0.03149   0.06171   0.08018   0.11297   0.14148
 Alpha virt. eigenvalues --    0.15443   0.18464   0.22844   0.44725   0.50317
 Alpha virt. eigenvalues --    0.51261   0.51730   0.56878   0.58178   0.66898

 Mulliken charges:
               1
     1  C   -0.181318
     2  N   -0.551851
     3  C    0.491575
     4  N   -0.460768
     5  H    0.151832
     6  H    0.130211
     7  H    0.129287
     8  H    0.291032
 Sum of Mulliken charges =  -0.00000

 Dipole moment (field-independent basis, Debye):
    X=              4.4925    Y=              1.2387    Z=              0.7089  Tot=              4.7138
 Quadrupole moment (field-independent basis, Debye-Ang):
   XX=            -28.6740   YY=            -21.2247   ZZ=            -24.0742
   XY=             -1.4524   XZ=              0.4777   YZ=              1.4516

  Exact polarizability:  45.113   4.262  25.727  -0.025   0.527  21.039
 Approx polarizability:  70.143  12.745  36.948  -0.983   0.423  28.038

                      1                      2                      3
                      A                      A                      A
 Frequencies --    157.4626               220.8819               416.9627
 Red. masses --      1.1944                 3.6898                 1.6277
 Frc consts  --      0.0174                 0.1061                 0.1667
 IR Inten    --      0.5698                 5.9570                83.2509

                      4                      5                      6
                      A                      A                      A
 Frequencies --    527.7266               633.4516               935.8506
 Red. masses --      8.6994                 2.8069                 2.9382
 Frc consts  --      1.4274                 0.6636                 1.5162
 IR Inten    --     32.0042                33.1751                 2.4324

                      7                      8                      9
                      A                      A                      A
 Frequencies --   1144.3104              1168.2962              1204.8472
 Red. masses --      1.2727                 2.7655                 1.8959
 Frc consts  --      0.9819                 2.2240                 1.6216
 IR Inten    --      8.9484                34.5491                 9.1302

                     10                     11                     12
                      A                      A                      A
 Frequencies --   1466.5954              1472.1614              1505.2036
 Red. masses --      1.3443                 1.1410                 1.0522
 Frc consts  --      1.7036                 1.4569                 1.4046
 IR Inten    --     17.2632                 6.4828                11.3237

                     13                     14                     15
                      A                      A                      A
 Frequencies --   1530.3830              2348.3916              3037.1852
 Red. masses --      1.0585                12.3192                 1.0434
 Frc consts  --      1.4607                40.0288                 5.6705
 IR Inten    --     12.9814               121.0901                50.4854

                     16                     17                     18
                      A                      A                      A
 Frequencies --   3121.9809              3159.3687              3594.2548
 Red. masses --      1.0937                 1.1053                 1.0750
 Frc consts  --      6.2805                 6.5001                 8.1823
 IR Inten    --     21.3304                11.2117                31.6938

 - Thermochemistry -
 -------------------
 Temperature   298.150 Kelvin.  Pressure   1.00000 Atm.
 Atom     1 has atomic number  6 and mass  12.00000

 Molecular mass:    56.03745 amu.
 Principal axes and moments of inertia in atomic units:
                           1         2         3
     Eigenvalues --    49.24690 368.85946 404.89399
           X            0.99979  -0.02013   0.00297
           Y            0.01997   0.99870   0.04700
           Z           -0.00392  -0.04693   0.99889
 This molecule is an asymmetric top.
 Rotational symmetry number  1.
 Rotational temperatures (Kelvin)      1.75877     0.23482     0.21392
 Rotational constants (GHZ):          36.64680     4.89276     4.45732
 Zero-point vibrational energy     165355.7 (Joules/Mol)
                                   39.52096 (Kcal/Mol)
 Warning -- explicit consideration of   4 degrees of freedom as
           vibrations may cause significant error
 Vibrational temperatures:    226.55   317.80   599.92   759.28   911.39
          (Kelvin)           1346.48  1646.41  1680.92  1733.50  2110.10
                             2118.11  2165.65  2201.88  3378.81  4369.83
                             4491.83  4545.62  5171.32

 Zero-point correction=                           0.062981 (Hartree/Particle)
 Thermal correction to Energy=                    0.067736
 Thermal correction to Enthalpy=                  0.068681
 Thermal correction to Gibbs Free Energy=         0.036259
 Sum of electronic and zero-point Energies=           -188.033562
 Sum of electronic and thermal Energies=              -188.028806
 Sum of electronic and thermal Enthalpies=            -188.027862
 Sum of electronic and thermal Free Energies=         -188.060283

                     E (Thermal)             CV                S
                      KCal/Mol        Cal/Mol-Kelvin    Cal/Mol-Kelvin
 Total                   42.505             14.685             68.236
 Electronic               0.000              0.000              0.000
 Translational            0.889              2.981             37.992
 Rotational               0.889              2.981             23.513
 Vibrational             40.728              8.724              6.732
 Vibration     1          0.621              1.894              2.580
 Vibration     2          0.648              1.809              1.952
 Vibration     3          0.780              1.433              0.902
 Vibration     4          0.883              1.189              0.592

 Normal termination of Gaussian 09 at Thu Sep  8 14:52:31 2022.
