 Gaussian 09, Revision E.01,
 Gaussian 09:  ES64L-G09RevE.01 30-Nov-2015

 ----------------------------
 #P OPT Freq B3LYP/6-31G(d,p)
 ----------------------------

 --------
 Frag_748
 --------
 Symbolic Z-matrix:
 Charge =  0 Multiplicity = 1

 SCF Done:  E(RB3LYP) =  -307.264954678     A.U. after   14 cycles
 SCF Done:  E(RB3LYP) =  -307.264986168     A.U. after   11 cycles
 SCF Done:  E(RB3LYP) =  -307.264987579     A.U. after    9 cycles
 SCF Done:  E(RB3LYP) =  -307.264990510     A.U. after    9 cycles
 SCF Done:  E(RB3LYP) =  -307.264990965     A.U. after    7 cycles
 SCF Done:  E(RB3LYP) =  -307.264991123     A.U. after    7 cycles
 SCF Done:  E(RB3LYP) =  -307.264991020     A.U. after    7 cycles
 SCF Done:  E(RB3LYP) =  -307.264990918     A.U. after    7 cycles
 Optimization completed.
    -- Stationary point found.
 Normal termination of Gaussian 09 at Thu Sep  8 15:12:49 2022.

 ----------------------------------------------------------------------
 #P Geom=AllCheck Guess=TCheck SCRF=Check GenChk RB3LYP/6-31G(d,p) Freq
 ----------------------------------------------------------------------

 Structure from the checkpoint file:  "B3LYP6-31Gdp.Frag_748.chk"
 --------
 Frag_748
 --------
 Charge =  0 Multiplicity = 1

                         Standard orientation:
 ---------------------------------------------------------------------
 Center     Atomic      Atomic             Coordinates (Angstroms)
 Number     Number       Type             X           Y           Z
 ---------------------------------------------------------------------
      1          6           0       -1.909649   -0.850376    0.041994
      2          6           0       -0.928830    0.298641   -0.019188
      3          7           0       -1.402492    1.481688   -0.093791
      4          6           0        0.577681   -0.068760    0.021210
      5          6           0        0.918888   -0.966829   -1.185183
      6          6           0        1.476588    1.181877   -0.008548
      7          7           0        0.786234   -0.874171    1.244094
      8          1           0       -2.913660   -0.455485    0.201874
      9          1           0       -1.907106   -1.413010   -0.899079
     10          1           0       -1.637776   -1.549070    0.836503
     11          1           0       -0.654305    2.179080   -0.133997
     12          1           0        0.694124   -0.460358   -2.128545
     13          1           0        0.361716   -1.904859   -1.146233
     14          1           0        1.987992   -1.209808   -1.181632
     15          1           0        2.526519    0.877637    0.050480
     16          1           0        1.274333    1.841084    0.843094
     17          1           0        1.355780    1.763536   -0.929270
     18          1           0        1.749466   -1.204972    1.266949
     19          1           0        0.668647   -0.283707    2.066031
 ---------------------------------------------------------------------

 SCF Done:  E(RB3LYP) =  -307.264990918     A.U. after    1 cycles

 The electronic state is 1-A.
 Alpha  occ. eigenvalues --  -14.32018 -14.30499 -10.23185 -10.22614 -10.18498
 Alpha  occ. eigenvalues --  -10.18308 -10.16706  -0.91246  -0.87570  -0.75709
 Alpha  occ. eigenvalues --   -0.72057  -0.68983  -0.60924  -0.52546  -0.50472
 Alpha  occ. eigenvalues --   -0.46491  -0.45979  -0.42031  -0.41135  -0.39927
 Alpha  occ. eigenvalues --   -0.38840  -0.38309  -0.36906  -0.35201  -0.34628
 Alpha  occ. eigenvalues --   -0.29065  -0.25315  -0.23840
 Alpha virt. eigenvalues --    0.01089   0.06555   0.11622   0.11894   0.12499
 Alpha virt. eigenvalues --    0.14167   0.15686   0.17046   0.17478   0.18350
 Alpha virt. eigenvalues --    0.18985   0.20322   0.21098   0.21829   0.24038

 Mulliken charges:
               1
     1  C   -0.352338
     2  C    0.299639
     3  N   -0.528407
     4  C    0.092007
     5  C   -0.307366
     6  C   -0.333081
     7  N   -0.583013
     8  H    0.125874
     9  H    0.114570
    10  H    0.138405
    11  H    0.218325
    12  H    0.112108
    13  H    0.123447
    14  H    0.097116
    15  H    0.097210
    16  H    0.103216
    17  H    0.109091
    18  H    0.234881
    19  H    0.238316
 Sum of Mulliken charges =  -0.00000

 Dipole moment (field-independent basis, Debye):
    X=              2.9324    Y=             -0.4510    Z=              0.1717  Tot=              2.9718
 Quadrupole moment (field-independent basis, Debye-Ang):
   XX=            -46.5155   YY=            -46.7754   ZZ=            -43.0100
   XY=              3.5032   XZ=              1.1067   YZ=              1.4778

  Exact polarizability:  69.922  -1.466  71.676   0.061  -0.228  57.050
 Approx polarizability:  92.448  -8.079 107.970   0.460  -2.074  81.111

                      1                      2                      3
                      A                      A                      A
 Frequencies --     49.9495               153.8231               218.0281
 Red. masses --      2.7444                 1.1205                 1.3679
 Frc consts  --      0.0040                 0.0156                 0.0383
 IR Inten    --      1.3497                 0.0801                 3.0425

                      4                      5                      6
                      A                      A                      A
 Frequencies --    274.1733               283.9411               298.6832
 Red. masses --      1.4555                 2.1082                 1.2255
 Frc consts  --      0.0645                 0.1001                 0.0644
 IR Inten    --      0.9038                 2.3264                33.5235

                      7                      8                      9
                      A                      A                      A
 Frequencies --    321.4704               366.6999               386.1344
 Red. masses --      1.1976                 2.3170                 2.4662
 Frc consts  --      0.0729                 0.1836                 0.2166
 IR Inten    --      5.7234                 1.4112                 3.7085

                     10                     11                     12
                      A                      A                      A
 Frequencies --    397.6446               486.5341               538.4598
 Red. masses --      2.8227                 2.7927                 2.8336
 Frc consts  --      0.2630                 0.3895                 0.4841
 IR Inten    --      7.8410                 4.1630                 9.8930

                     13                     14                     15
                      A                      A                      A
 Frequencies --    591.8356               680.8399               838.1985
 Red. masses --      2.2917                 3.2862                 2.4093
 Frc consts  --      0.4729                 0.8975                 0.9973
 IR Inten    --      6.8234                 3.1574                42.8076

                     16                     17                     18
                      A                      A                      A
 Frequencies --    882.5227               920.6661               937.0054
 Red. masses --      1.5097                 1.3839                 1.5050
 Frc consts  --      0.6928                 0.6911                 0.7785
 IR Inten    --    113.7545                34.3680                 4.4092

                     19                     20                     21
                      A                      A                      A
 Frequencies --    968.4641               987.6164              1031.3187
 Red. masses --      1.7368                 1.6982                 1.3321
 Frc consts  --      0.9598                 0.9759                 0.8348
 IR Inten    --      0.5440                 3.5539                 9.6484

                     22                     23                     24
                      A                      A                      A
 Frequencies --   1084.4470              1096.3692              1107.0447
 Red. masses --      1.4413                 1.4880                 1.5697
 Frc consts  --      0.9986                 1.0538                 1.1335
 IR Inten    --      4.8480                 8.9444                17.4143

                     25                     26                     27
                      A                      A                      A
 Frequencies --   1218.3157              1243.3917              1323.0228
 Red. masses --      2.5052                 2.6162                 1.6824
 Frc consts  --      2.1909                 2.3831                 1.7351
 IR Inten    --     14.9994                28.1522                39.0621

                     28                     29                     30
                      A                      A                      A
 Frequencies --   1368.0325              1408.8804              1417.6183
 Red. masses --      1.6199                 1.2560                 1.5294
 Frc consts  --      1.7862                 1.4689                 1.8109
 IR Inten    --     25.4581                16.2427                40.0736

                     31                     32                     33
                      A                      A                      A
 Frequencies --   1428.6959              1487.8618              1494.3616
 Red. masses --      1.2281                 1.0471                 1.0574
 Frc consts  --      1.4770                 1.3657                 1.3912
 IR Inten    --      5.5205                 7.3268                 7.6819

                     34                     35                     36
                      A                      A                      A
 Frequencies --   1501.9690              1502.8686              1519.5414
 Red. masses --      1.0500                 1.0483                 1.0503
 Frc consts  --      1.3955                 1.3950                 1.4289
 IR Inten    --      2.7873                 1.3044                 3.2524

                     37                     38                     39
                      A                      A                      A
 Frequencies --   1527.9694              1664.3456              1724.7377
 Red. masses --      1.0615                 1.0976                 8.6045
 Frc consts  --      1.4601                 1.7914                15.0808
 IR Inten    --      7.1151                27.8657                59.0336

                     40                     41                     42
                      A                      A                      A
 Frequencies --   3034.9082              3045.4692              3052.0122
 Red. masses --      1.0358                 1.0397                 1.0427
 Frc consts  --      5.6212                 5.6817                 5.7224
 IR Inten    --     16.2289                18.5912                12.4543

                     43                     44                     45
                      A                      A                      A
 Frequencies --   3106.3518              3109.8628              3115.8219
 Red. masses --      1.1024                 1.1007                 1.0991
 Frc consts  --      6.2673                 6.2720                 6.2869
 IR Inten    --     19.2039                11.2091                45.7367

                     46                     47                     48
                      A                      A                      A
 Frequencies --   3122.0132              3149.7694              3167.5644
 Red. masses --      1.0912                 1.1016                 1.1049
 Frc consts  --      6.2663                 6.4389                 6.5316
 IR Inten    --     13.7168                16.4752                 7.8660

                     49                     50                     51
                      A                      A                      A
 Frequencies --   3456.0887              3470.4015              3557.2714
 Red. masses --      1.0729                 1.0491                 1.0929
 Frc consts  --      7.5504                 7.4443                 8.1479
 IR Inten    --      4.7767                 1.3725                 0.2258

 - Thermochemistry -
 -------------------
 Temperature   298.150 Kelvin.  Pressure   1.00000 Atm.
 Atom     1 has atomic number  6 and mass  12.00000

 Molecular mass:   100.10005 amu.
 Principal axes and moments of inertia in atomic units:
                           1         2         3
     Eigenvalues --   561.53033 783.92876 952.88225
           X            0.99479   0.10175  -0.00579
           Y           -0.10142   0.99397   0.04176
           Z            0.01001  -0.04095   0.99911
 This molecule is an asymmetric top.
 Rotational symmetry number  1.
 Warning -- assumption of classical behavior for rotation
           may cause significant error
 Rotational temperatures (Kelvin)      0.15425     0.11049     0.09090
 Rotational constants (GHZ):           3.21397     2.30218     1.89398
 Zero-point vibrational energy     449323.5 (Joules/Mol)
                                  107.39088 (Kcal/Mol)
 Warning -- explicit consideration of  13 degrees of freedom as
           vibrations may cause significant error
 Vibrational temperatures:     71.87   221.32   313.69   394.47   408.53
          (Kelvin)            429.74   462.52   527.60   555.56   572.12
                              700.01   774.72   851.52   979.58  1205.98
                             1269.75  1324.63  1348.14  1393.40  1420.96
                             1483.84  1560.28  1577.43  1592.79  1752.88
                             1788.96  1903.53  1968.29  2027.06  2039.63
                             2055.57  2140.70  2150.05  2161.00  2162.29
                             2186.28  2198.40  2394.62  2481.51  4366.55
                             4381.75  4391.16  4469.34  4474.39  4482.97
                             4491.88  4531.81  4557.41  4972.53  4993.13
                             5118.11

 Zero-point correction=                           0.171138 (Hartree/Particle)
 Thermal correction to Energy=                    0.179894
 Thermal correction to Enthalpy=                  0.180838
 Thermal correction to Gibbs Free Energy=         0.138592
 Sum of electronic and zero-point Energies=           -307.093853
 Sum of electronic and thermal Energies=              -307.085097
 Sum of electronic and thermal Enthalpies=            -307.084153
 Sum of electronic and thermal Free Energies=         -307.126399

                     E (Thermal)             CV                S
                      KCal/Mol        Cal/Mol-Kelvin    Cal/Mol-Kelvin
 Total                  112.885             32.740             88.914
 Electronic               0.000              0.000              0.000
 Translational            0.889              2.981             39.721
 Rotational               0.889              2.981             27.530
 Vibrational            111.108             26.778             21.662
 Vibration     1          0.595              1.978              4.819
 Vibration     2          0.619              1.898              2.624
 Vibration     3          0.646              1.814              1.975
 Vibration     4          0.676              1.721              1.570
 Vibration     5          0.682              1.703              1.510
 Vibration     6          0.692              1.676              1.424
 Vibration     7          0.707              1.632              1.303
 Vibration     8          0.740              1.541              1.094
 Vibration     9          0.755              1.500              1.015
 Vibration    10          0.764              1.475              0.971
 Vibration    11          0.843              1.280              0.693
 Vibration    12          0.893              1.165              0.569
 Vibration    13          0.949              1.049              0.464

 Optimization completed.
    -- Stationary point found.
 Normal termination of Gaussian 09 at Thu Sep  8 15:13:09 2022.
