 Gaussian 09, Revision E.01,
 Gaussian 09:  ES64L-G09RevE.01 30-Nov-2015

 -------------------------
 #P OPT Freq B3LYP/6-31G**
 -------------------------

 --------
 Frag_187
 --------
 Symbolic Z-matrix:
 Charge =  0 Multiplicity = 1

 SCF Done:  E(RB3LYP) =  -167.183873614     A.U. after   12 cycles
 SCF Done:  E(RB3LYP) =  -167.191684667     A.U. after   11 cycles
 SCF Done:  E(RB3LYP) =  -167.192809383     A.U. after   11 cycles
 SCF Done:  E(RB3LYP) =  -167.192963432     A.U. after   10 cycles
 SCF Done:  E(RB3LYP) =  -167.192989650     A.U. after    9 cycles
 SCF Done:  E(RB3LYP) =  -167.193022969     A.U. after   10 cycles
 SCF Done:  E(RB3LYP) =  -167.193056253     A.U. after   10 cycles
 SCF Done:  E(RB3LYP) =  -167.193089299     A.U. after   10 cycles
 SCF Done:  E(RB3LYP) =  -167.193142834     A.U. after   11 cycles
 SCF Done:  E(RB3LYP) =  -167.193812777     A.U. after   13 cycles
 SCF Done:  E(RB3LYP) =  -167.193320918     A.U. after   13 cycles
 SCF Done:  E(RB3LYP) =  -167.194127371     A.U. after   10 cycles
 SCF Done:  E(RB3LYP) =  -167.194194182     A.U. after   10 cycles
 SCF Done:  E(RB3LYP) =  -167.194235475     A.U. after   10 cycles
 SCF Done:  E(RB3LYP) =  -167.194253681     A.U. after    9 cycles
 SCF Done:  E(RB3LYP) =  -167.194264810     A.U. after    9 cycles
 SCF Done:  E(RB3LYP) =  -167.194269272     A.U. after    8 cycles
 SCF Done:  E(RB3LYP) =  -167.194269381     A.U. after    7 cycles
 Optimization completed.
    -- Stationary point found.
 Normal termination of Gaussian 09 at Sat Aug 21 01:34:31 2021.

 ----------------------------------------------------------------------
 #P Geom=AllCheck Guess=TCheck SCRF=Check GenChk RB3LYP/6-31G(d,p) Freq
 ----------------------------------------------------------------------

 Structure from the checkpoint file:  "/public/home/users/caep010/.cache/gau_scr/Gau-66292.chk"
 --------
 Frag_187
 --------
 Charge =  0 Multiplicity = 1

                         Standard orientation:
 ---------------------------------------------------------------------
 Center     Atomic      Atomic             Coordinates (Angstroms)
 Number     Number       Type             X           Y           Z
 ---------------------------------------------------------------------
      1          7           0        1.126563   -0.329197   -0.038921
      2          7           0       -0.004239    0.553662   -0.099999
      3          7           0       -1.241448   -0.139480    0.033547
      4          1           0        1.531466   -0.362261    0.898464
      5          1           0        1.837502    0.040388   -0.664960
      6          1           0        0.017978    1.219002    0.670060
      7          1           0       -1.137779   -0.910390    0.700727
      8          1           0       -1.415297   -0.581635   -0.866680
 ---------------------------------------------------------------------

 SCF Done:  E(RB3LYP) =  -167.194269381     A.U. after    1 cycles

 The electronic state is 1-A.
 Alpha  occ. eigenvalues --  -14.36563 -14.34019 -14.33127  -0.98502  -0.84794
 Alpha  occ. eigenvalues --   -0.69887  -0.51763  -0.48705  -0.46833  -0.44503
 Alpha  occ. eigenvalues --   -0.26463  -0.24482  -0.23769
 Alpha virt. eigenvalues --    0.07182   0.11043   0.11548   0.15645   0.17098
 Alpha virt. eigenvalues --    0.21619   0.24904   0.63944   0.67506   0.68160
 Alpha virt. eigenvalues --    0.69238   0.71226   0.72300   0.75467   0.80663

 Mulliken charges:
               1
     1  N   -0.477174
     2  N   -0.302480
     3  N   -0.443402
     4  H    0.230262
     5  H    0.258222
     6  H    0.254974
     7  H    0.223676
     8  H    0.255922
 Sum of Mulliken charges =  -0.00000

 Dipole moment (field-independent basis, Debye):
    X=              1.6268    Y=             -0.3090    Z=              1.2352  Tot=              2.0659
 Quadrupole moment (field-independent basis, Debye-Ang):
   XX=            -18.1532   YY=            -19.5347   ZZ=            -16.9159
   XY=              3.1573   XZ=              1.3558   YZ=              0.8325

  Exact polarizability:  29.084   1.370  19.962   0.505  -0.206  21.325
 Approx polarizability:  35.969   1.149  26.450   0.422  -0.590  28.727

                      1                      2                      3
                      A                      A                      A
 Frequencies --    226.9976               367.4788               496.7577
 Red. masses --      1.0592                 1.2166                 2.7248
 Frc consts  --      0.0322                 0.0968                 0.3962
 IR Inten    --     70.7898                11.9839                34.5218

                      4                      5                      6
                      A                      A                      A
 Frequencies --    760.1530               865.5455              1014.6383
 Red. masses --      2.1430                 2.5798                 1.2099
 Frc consts  --      0.7296                 1.1387                 0.7339
 IR Inten    --     26.4810               144.1497               103.8000

                      7                      8                      9
                      A                      A                      A
 Frequencies --   1086.7988              1208.3877              1268.0936
 Red. masses --      1.9924                 1.9136                 1.1549
 Frc consts  --      1.3865                 1.6464                 1.0942
 IR Inten    --     21.1807                33.8123                 5.7967

                     10                     11                     12
                      A                      A                      A
 Frequencies --   1351.3817              1509.0341              1671.6794
 Red. masses --      1.2656                 1.0945                 1.0822
 Frc consts  --      1.3618                 1.4684                 1.7818
 IR Inten    --      4.6577                 2.6009                 6.8468

                     13                     14                     15
                      A                      A                      A
 Frequencies --   1705.9181              3394.7062              3426.2922
 Red. masses --      1.0630                 1.0560                 1.0525
 Frc consts  --      1.8227                 7.1702                 7.2801
 IR Inten    --     12.2182                17.5696                16.7443

                     16                     17                     18
                      A                      A                      A
 Frequencies --   3482.1208              3534.9325              3552.5644
 Red. masses --      1.0747                 1.0843                 1.0910
 Frc consts  --      7.6778                 7.9827                 8.1127
 IR Inten    --      4.3908                 0.1767                 0.1175

 - Thermochemistry -
 -------------------
 Temperature   298.150 Kelvin.  Pressure   1.00000 Atm.
 Atom     1 has atomic number  7 and mass  14.00307

 Molecular mass:    47.04835 amu.
 Principal axes and moments of inertia in atomic units:
                           1         2         3
     Eigenvalues --    42.69618 184.21858 204.76502
           X            0.99931   0.03388   0.01509
           Y           -0.03471   0.99767   0.05867
           Z           -0.01306  -0.05916   0.99816
 This molecule is an asymmetric top.
 Rotational symmetry number  1.
 Rotational temperatures (Kelvin)      2.02861     0.47017     0.42299
 Rotational constants (GHZ):          42.26938     9.79674     8.81372
 Zero-point vibrational energy     184963.5 (Joules/Mol)
                                   44.20733 (Kcal/Mol)
 Warning -- explicit consideration of   3 degrees of freedom as
           vibrations may cause significant error
 Vibrational temperatures:    326.60   528.72   714.72  1093.69  1245.33
          (Kelvin)           1459.84  1563.66  1738.60  1824.50  1944.33
                             2171.16  2405.17  2454.43  4884.22  4929.66
                             5009.99  5085.97  5111.34

 Zero-point correction=                           0.070449 (Hartree/Particle)
 Thermal correction to Energy=                    0.074630
 Thermal correction to Enthalpy=                  0.075575
 Thermal correction to Gibbs Free Energy=         0.045259
 Sum of electronic and zero-point Energies=           -167.123821
 Sum of electronic and thermal Energies=              -167.119639
 Sum of electronic and thermal Enthalpies=            -167.118695
 Sum of electronic and thermal Free Energies=         -167.149010

                     E (Thermal)             CV                S
                      KCal/Mol        Cal/Mol-Kelvin    Cal/Mol-Kelvin
 Total                   46.831             13.116             63.805
 Electronic               0.000              0.000              0.000
 Translational            0.889              2.981             37.471
 Rotational               0.889              2.981             22.004
 Vibrational             45.054              7.154              4.331
 Vibration     1          0.651              1.800              1.903
 Vibration     2          0.740              1.539              1.090
 Vibration     3          0.852              1.257              0.666

 Optimization completed.
    -- Stationary point found.
 Normal termination of Gaussian 09 at Sat Aug 21 01:34:37 2021.
