 Gaussian 09, Revision E.01,
 Gaussian 09:  ES64L-G09RevE.01 30-Nov-2015

 ----------------------------
 #P OPT Freq B3LYP/6-31G(d,p)
 ----------------------------

 ---------
 Frag_1090
 ---------
 Symbolic Z-matrix:
 Charge =  0 Multiplicity = 1

 SCF Done:  E(RB3LYP) =  -281.806027369     A.U. after   12 cycles
 SCF Done:  E(RB3LYP) =  -281.806064916     A.U. after    8 cycles
 SCF Done:  E(RB3LYP) =  -281.806070816     A.U. after    8 cycles
 SCF Done:  E(RB3LYP) =  -281.806070821     A.U. after    7 cycles
 SCF Done:  E(RB3LYP) =  -281.806071309     A.U. after    7 cycles
 Optimization completed.
    -- Stationary point found.
 Normal termination of Gaussian 09 at Thu Sep  8 14:49:07 2022.

 ----------------------------------------------------------------------
 #P Geom=AllCheck Guess=TCheck SCRF=Check GenChk RB3LYP/6-31G(d,p) Freq
 ----------------------------------------------------------------------

 Structure from the checkpoint file:  "B3LYP6-31Gdp.Frag_1090.chk"
 ---------
 Frag_1090
 ---------
 Charge =  0 Multiplicity = 1

                         Standard orientation:
 ---------------------------------------------------------------------
 Center     Atomic      Atomic             Coordinates (Angstroms)
 Number     Number       Type             X           Y           Z
 ---------------------------------------------------------------------
      1          7           0       -1.045034   -0.482779   -0.873182
      2          6           0        0.015049    0.002347    0.012615
      3          7           0        0.685887    1.179539   -0.498228
      4          7           0        1.048194   -1.000059    0.210232
      5          8           0       -0.615107    0.316801    1.245893
      6          1           0       -0.662190   -0.629512   -1.804921
      7          1           0       -1.766998    0.231620   -0.957496
      8          1           0        1.401042    1.446646    0.176153
      9          1           0        0.015368    1.944350   -0.530544
     10          1           0        1.594872   -1.081155   -0.643577
     11          1           0        0.606776   -1.901243    0.376590
     12          1           0       -1.181640   -0.436105    1.469208
 ---------------------------------------------------------------------

 SCF Done:  E(RB3LYP) =  -281.806071309     A.U. after    1 cycles

 The electronic state is 1-A.
 Alpha  occ. eigenvalues --  -19.13850 -14.31825 -14.31350 -14.31107 -10.31037
 Alpha  occ. eigenvalues --   -1.03883  -0.91323  -0.84535  -0.84146  -0.60653
 Alpha  occ. eigenvalues --   -0.52314  -0.50908  -0.49547  -0.46755  -0.43308
 Alpha  occ. eigenvalues --   -0.41063  -0.35000  -0.28637  -0.26705  -0.26132
 Alpha  occ. eigenvalues --   -0.24196
 Alpha virt. eigenvalues --    0.06311   0.11010   0.12111   0.13167   0.14500
 Alpha virt. eigenvalues --    0.17242   0.17662   0.25561   0.27770   0.27876
 Alpha virt. eigenvalues --    0.29048   0.61285   0.62197   0.62766   0.64925

 Mulliken charges:
               1
     1  N   -0.591492
     2  C    0.521421
     3  N   -0.582130
     4  N   -0.571964
     5  O   -0.531880
     6  H    0.238954
     7  H    0.237224
     8  H    0.257036
     9  H    0.237706
    10  H    0.243926
    11  H    0.236905
    12  H    0.304293
 Sum of Mulliken charges =  -0.00000

 Dipole moment (field-independent basis, Debye):
    X=             -0.9640    Y=             -0.2818    Z=             -1.3106  Tot=              1.6511
 Quadrupole moment (field-independent basis, Debye-Ang):
   XX=            -30.1686   YY=            -26.9861   ZZ=            -31.0970
   XY=             -0.9892   XZ=             -0.7495   YZ=             -0.5387

  Exact polarizability:  37.734  -0.470  37.520  -0.603  -0.853  34.111
 Approx polarizability:  50.976  -0.630  49.636  -1.858  -0.749  46.949

                      1                      2                      3
                      A                      A                      A
 Frequencies --    180.0381               284.7993               321.8216
 Red. masses --      1.1312                 1.1946                 1.1051
 Frc consts  --      0.0216                 0.0571                 0.0674
 IR Inten    --     16.0852                21.4782                26.9703

                      4                      5                      6
                      A                      A                      A
 Frequencies --    366.5454               421.3386               459.6866
 Red. masses --      1.5067                 2.4485                 1.5411
 Frc consts  --      0.1193                 0.2561                 0.1919
 IR Inten    --     50.9776                33.6912                86.8757

                      7                      8                      9
                      A                      A                      A
 Frequencies --    517.2002               527.8957               560.4386
 Red. masses --      2.6117                 2.7793                 3.5529
 Frc consts  --      0.4116                 0.4563                 0.6575
 IR Inten    --     25.9548                19.2337                21.2842

                     10                     11                     12
                      A                      A                      A
 Frequencies --    825.9501               863.1833               904.5732
 Red. masses --      5.9928                 1.7307                 1.5856
 Frc consts  --      2.4087                 0.7598                 0.7644
 IR Inten    --      8.3682               145.9357               117.7767

                     13                     14                     15
                      A                      A                      A
 Frequencies --    941.0377              1001.4426              1027.7052
 Red. masses --      1.4217                 2.4463                 1.6746
 Frc consts  --      0.7418                 1.4455                 1.0421
 IR Inten    --    214.0503               148.5757                72.9436

                     16                     17                     18
                      A                      A                      A
 Frequencies --   1084.7101              1207.2110              1295.4072
 Red. masses --      1.5275                 1.1947                 1.9712
 Frc consts  --      1.0589                 1.0258                 1.9489
 IR Inten    --     26.7300                44.5588               157.1766

                     19                     20                     21
                      A                      A                      A
 Frequencies --   1389.5170              1417.3712              1649.5747
 Red. masses --      2.1174                 1.8221                 1.1067
 Frc consts  --      2.4087                 2.1566                 1.7743
 IR Inten    --     90.7306                85.4760                29.0113

                     22                     23                     24
                      A                      A                      A
 Frequencies --   1656.4494              1665.0818              3476.9675
 Red. masses --      1.1100                 1.1253                 1.0498
 Frc consts  --      1.7945                 1.8381                 7.4773
 IR Inten    --     61.1759                19.9324                 0.8271

                     25                     26                     27
                      A                      A                      A
 Frequencies --   3490.9924              3499.5070              3569.4933
 Red. masses --      1.0497                 1.0492                 1.0920
 Frc consts  --      7.5372                 7.5704                 8.1973
 IR Inten    --      0.3971                 0.2024                 0.5753

                     28                     29                     30
                      A                      A                      A
 Frequencies --   3577.7634              3591.4131              3788.4977
 Red. masses --      1.0917                 1.0929                 1.0651
 Frc consts  --      8.2337                 8.3051                 9.0072
 IR Inten    --      0.7435                 0.9292                11.1391

 - Thermochemistry -
 -------------------
 Temperature   298.150 Kelvin.  Pressure   1.00000 Atm.
 Atom     1 has atomic number  7 and mass  14.00307

 Molecular mass:    77.05891 amu.
 Principal axes and moments of inertia in atomic units:
                           1         2         3
     Eigenvalues --   344.54600 356.99355 368.22238
           X            0.99396  -0.05570   0.09458
           Y            0.07131   0.98274  -0.17069
           Z           -0.08344   0.17640   0.98078
 This molecule is an asymmetric top.
 Rotational symmetry number  1.
 Rotational temperatures (Kelvin)      0.25139     0.24262     0.23522
 Rotational constants (GHZ):           5.23803     5.05539     4.90123
 Zero-point vibrational energy     272530.9 (Joules/Mol)
                                   65.13645 (Kcal/Mol)
 Warning -- explicit consideration of   9 degrees of freedom as
           vibrations may cause significant error
 Vibrational temperatures:    259.03   409.76   463.03   527.38   606.21
          (Kelvin)            661.39   744.13   759.52   806.35  1188.36
                             1241.93  1301.48  1353.94  1440.85  1478.64
                             1560.65  1736.91  1863.80  1999.20  2039.28
                             2373.37  2383.26  2395.68  5002.57  5022.75
                             5035.00  5135.70  5147.60  5167.24  5450.80

 Zero-point correction=                           0.103802 (Hartree/Particle)
 Thermal correction to Energy=                    0.109926
 Thermal correction to Enthalpy=                  0.110870
 Thermal correction to Gibbs Free Energy=         0.075310
 Sum of electronic and zero-point Energies=           -281.702270
 Sum of electronic and thermal Energies=              -281.696145
 Sum of electronic and thermal Enthalpies=            -281.695201
 Sum of electronic and thermal Free Energies=         -281.730761

                     E (Thermal)             CV                S
                      KCal/Mol        Cal/Mol-Kelvin    Cal/Mol-Kelvin
 Total                   68.980             22.790             74.843
 Electronic               0.000              0.000              0.000
 Translational            0.889              2.981             38.941
 Rotational               0.889              2.981             25.319
 Vibrational             67.202             16.829             10.583
 Vibration     1          0.629              1.867              2.328
 Vibration     2          0.683              1.702              1.505
 Vibration     3          0.707              1.632              1.301
 Vibration     4          0.739              1.541              1.094
 Vibration     5          0.784              1.424              0.887
 Vibration     6          0.818              1.339              0.767
 Vibration     7          0.872              1.212              0.616
 Vibration     8          0.883              1.188              0.592
 Vibration     9          0.916              1.117              0.523

 Normal termination of Gaussian 09 at Thu Sep  8 14:49:15 2022.
