 Gaussian 09, Revision E.01,
 Gaussian 09:  ES64L-G09RevE.01 30-Nov-2015

 ----------------------------
 #P OPT Freq B3LYP/6-31G(d,p)
 ----------------------------

 --------
 Frag_763
 --------
 Symbolic Z-matrix:
 Charge =  0 Multiplicity = 1

 SCF Done:  E(RB3LYP) =  -225.195547810     A.U. after   14 cycles
 SCF Done:  E(RB3LYP) =  -225.195600050     A.U. after   10 cycles
 SCF Done:  E(RB3LYP) =  -225.195603860     A.U. after    8 cycles
 SCF Done:  E(RB3LYP) =  -225.195604426     A.U. after    8 cycles
 SCF Done:  E(RB3LYP) =  -225.195604555     A.U. after    7 cycles
 Optimization completed.
    -- Stationary point found.
 Normal termination of Gaussian 09 at Thu Sep  8 15:17:58 2022.

 ----------------------------------------------------------------------
 #P Geom=AllCheck Guess=TCheck SCRF=Check GenChk RB3LYP/6-31G(d,p) Freq
 ----------------------------------------------------------------------

 Structure from the checkpoint file:  "B3LYP6-31Gdp.Frag_763.chk"
 --------
 Frag_763
 --------
 Charge =  0 Multiplicity = 1

                         Standard orientation:
 ---------------------------------------------------------------------
 Center     Atomic      Atomic             Coordinates (Angstroms)
 Number     Number       Type             X           Y           Z
 ---------------------------------------------------------------------
      1          7           0       -1.380640   -0.458358   -0.103271
      2          7           0       -0.640024    0.713567    0.004928
      3          6           0        0.624533    0.604553    0.010671
      4          8           0        1.267202   -0.609108   -0.011854
      5          1           0       -2.280872   -0.303168    0.333679
      6          1           0       -0.918012   -1.269853    0.304072
      7          1           0        1.238917    1.500356    0.037078
      8          1           0        2.219803   -0.468247    0.044369
 ---------------------------------------------------------------------

 SCF Done:  E(RB3LYP) =  -225.195604555     A.U. after    1 cycles

 The electronic state is 1-A.
 Alpha  occ. eigenvalues --  -19.18714 -14.34586 -14.34150 -10.25915  -1.06844
 Alpha  occ. eigenvalues --   -0.96362  -0.79093  -0.60350  -0.55979  -0.51361
 Alpha  occ. eigenvalues --   -0.45765  -0.41225  -0.37652  -0.32974  -0.27306
 Alpha  occ. eigenvalues --   -0.20849
 Alpha virt. eigenvalues --    0.04016   0.05326   0.11181   0.14008   0.17089
 Alpha virt. eigenvalues --    0.20501   0.30061   0.36140   0.54569   0.57923
 Alpha virt. eigenvalues --    0.61039   0.64967   0.68437   0.71303   0.76737

 Mulliken charges:
               1
     1  N   -0.445584
     2  N   -0.295710
     3  C    0.294269
     4  O   -0.504762
     5  H    0.265112
     6  H    0.256221
     7  H    0.105294
     8  H    0.325161
 Sum of Mulliken charges =   0.00000

 Dipole moment (field-independent basis, Debye):
    X=              2.1580    Y=             -0.5861    Z=              1.3967  Tot=              2.6365
 Quadrupole moment (field-independent basis, Debye-Ang):
   XX=            -15.1133   YY=            -24.1750   ZZ=            -25.0444
   XY=              2.7243   XZ=             -2.0539   YZ=             -1.1788

  Exact polarizability:  44.451   3.168  27.650  -0.408  -0.491  14.176
 Approx polarizability:  68.732   1.880  39.197   0.709  -0.237  19.854

                      1                      2                      3
                      A                      A                      A
 Frequencies --    270.1988               291.9104               385.5276
 Red. masses --      1.1765                 3.7622                 1.0976
 Frc consts  --      0.0506                 0.1889                 0.0961
 IR Inten    --    137.0510                20.6452                28.6534

                      4                      5                      6
                      A                      A                      A
 Frequencies --    578.3837               753.0427               773.1650
 Red. masses --      3.1619                 3.7757                 1.7757
 Frc consts  --      0.6232                 1.2615                 0.6254
 IR Inten    --     24.1768                11.4621               241.7419

                      7                      8                      9
                      A                      A                      A
 Frequencies --    827.2141              1059.5778              1121.7217
 Red. masses --      1.3664                 2.8649                 2.5183
 Frc consts  --      0.5509                 1.8951                 1.8669
 IR Inten    --     12.8494                 7.3073                76.3646

                     10                     11                     12
                      A                      A                      A
 Frequencies --   1242.7580              1346.6164              1408.6696
 Red. masses --      1.5056                 1.2784                 1.2336
 Frc consts  --      1.3701                 1.3658                 1.4422
 IR Inten    --    199.8551                23.4116                 6.3837

                     13                     14                     15
                      A                      A                      A
 Frequencies --   1662.0776              1773.3822              3193.2590
 Red. masses --      1.1245                 6.1021                 1.0924
 Frc consts  --      1.8302                11.3066                 6.5629
 IR Inten    --     24.3703                60.0792                12.6640

                     16                     17                     18
                      A                      A                      A
 Frequencies --   3468.3776              3615.9307              3849.1486
 Red. masses --      1.0501                 1.0939                 1.0669
 Frc consts  --      7.4424                 8.4267                 9.3132
 IR Inten    --      1.7507                 5.5475                64.1224

 - Thermochemistry -
 -------------------
 Temperature   298.150 Kelvin.  Pressure   1.00000 Atm.
 Atom     1 has atomic number  7 and mass  14.00307

 Molecular mass:    60.03236 amu.
 Principal axes and moments of inertia in atomic units:
                           1         2         3
     Eigenvalues --    88.56474 270.96722 357.15141
           X            0.99859   0.05157  -0.01251
           Y           -0.05181   0.99845  -0.02013
           Z            0.01145   0.02075   0.99972
 This molecule is an asymmetric top.
 Rotational symmetry number  1.
 Rotational temperatures (Kelvin)      0.97797     0.31965     0.24251
 Rotational constants (GHZ):          20.37765     6.66037     5.05315
 Zero-point vibrational energy     165210.0 (Joules/Mol)
                                   39.48615 (Kcal/Mol)
 Warning -- explicit consideration of   4 degrees of freedom as
           vibrations may cause significant error
 Vibrational temperatures:    388.76   419.99   554.69   832.16  1083.46
          (Kelvin)           1112.41  1190.18  1524.49  1613.91  1788.05
                             1937.48  2026.76  2391.36  2551.50  4594.38
                             4990.22  5202.51  5538.06

 Zero-point correction=                           0.062925 (Hartree/Particle)
 Thermal correction to Energy=                    0.067480
 Thermal correction to Enthalpy=                  0.068424
 Thermal correction to Gibbs Free Energy=         0.036445
 Sum of electronic and zero-point Energies=           -225.132679
 Sum of electronic and thermal Energies=              -225.128125
 Sum of electronic and thermal Enthalpies=            -225.127180
 Sum of electronic and thermal Free Energies=         -225.159159

                     E (Thermal)             CV                S
                      KCal/Mol        Cal/Mol-Kelvin    Cal/Mol-Kelvin
 Total                   42.344             15.048             67.305
 Electronic               0.000              0.000              0.000
 Translational            0.889              2.981             38.197
 Rotational               0.889              2.981             23.665
 Vibrational             40.567              9.087              5.444
 Vibration     1          0.674              1.728              1.595
 Vibration     2          0.687              1.689              1.463
 Vibration     3          0.754              1.501              1.017
 Vibration     4          0.935              1.078              0.488

 Optimization completed.
    -- Stationary point found.
 Normal termination of Gaussian 09 at Thu Sep  8 15:18:04 2022.
