 Gaussian 09, Revision E.01,
 Gaussian 09:  ES64L-G09RevE.01 30-Nov-2015

 ----------------------------
 #P OPT Freq B3LYP/6-31G(d,p)
 ----------------------------

 --------
 Frag_947
 --------
 Symbolic Z-matrix:
 Charge =  0 Multiplicity = 1

 SCF Done:  E(RB3LYP) =  -242.245536805     A.U. after   14 cycles
 SCF Done:  E(RB3LYP) =  -242.245606270     A.U. after   12 cycles
 SCF Done:  E(RB3LYP) =  -242.245453272     A.U. after   13 cycles
 SCF Done:  E(RB3LYP) =  -242.245652337     A.U. after   10 cycles
 SCF Done:  E(RB3LYP) =  -242.245663795     A.U. after   10 cycles
 SCF Done:  E(RB3LYP) =  -242.245662518     A.U. after   10 cycles
 SCF Done:  E(RB3LYP) =  -242.245666526     A.U. after    9 cycles
 SCF Done:  E(RB3LYP) =  -242.245666651     A.U. after    7 cycles
 SCF Done:  E(RB3LYP) =  -242.245666714     A.U. after    8 cycles
 Optimization completed.
    -- Stationary point found.
 Normal termination of Gaussian 09 at Thu Sep  8 15:07:58 2022.

 ----------------------------------------------------------------------
 #P Geom=AllCheck Guess=TCheck SCRF=Check GenChk RB3LYP/6-31G(d,p) Freq
 ----------------------------------------------------------------------

 Structure from the checkpoint file:  "B3LYP6-31Gdp.Frag_947.chk"
 --------
 Frag_947
 --------
 Charge =  0 Multiplicity = 1

                         Standard orientation:
 ---------------------------------------------------------------------
 Center     Atomic      Atomic             Coordinates (Angstroms)
 Number     Number       Type             X           Y           Z
 ---------------------------------------------------------------------
      1          7           0        2.163500   -0.106736    0.003531
      2          6           0        1.003474   -0.043523   -0.008455
      3          6           0       -0.449686    0.112001   -0.001106
      4          7           0       -1.040438    1.248119    0.017086
      5          7           0       -1.140547   -1.072245   -0.062428
      6          1           0       -0.369090    2.013844   -0.008076
      7          1           0       -2.136177   -0.993535    0.092711
      8          1           0       -0.695056   -1.915147    0.265409
 ---------------------------------------------------------------------

 SCF Done:  E(RB3LYP) =  -242.245666714     A.U. after    1 cycles

 The electronic state is 1-A.
 Alpha  occ. eigenvalues --  -14.37811 -14.36242 -14.33213 -10.31368 -10.24957
 Alpha  occ. eigenvalues --   -0.98275  -0.92104  -0.88261  -0.68815  -0.59455
 Alpha  occ. eigenvalues --   -0.52208  -0.48721  -0.42681  -0.38682  -0.36381
 Alpha  occ. eigenvalues --   -0.34540  -0.29391  -0.26842
 Alpha virt. eigenvalues --   -0.04917   0.00959   0.05962   0.10274   0.11154
 Alpha virt. eigenvalues --    0.13529   0.18798   0.31495   0.35513   0.39381
 Alpha virt. eigenvalues --    0.51057   0.53920   0.56771   0.60848   0.62567

 Mulliken charges:
               1
     1  N   -0.448030
     2  C    0.301312
     3  C    0.448876
     4  N   -0.535711
     5  N   -0.588071
     6  H    0.249552
     7  H    0.288442
     8  H    0.283630
 Sum of Mulliken charges =  -0.00000

 Dipole moment (field-independent basis, Debye):
    X=             -1.9617    Y=             -1.5970    Z=              0.7089  Tot=              2.6270
 Quadrupole moment (field-independent basis, Debye-Ang):
   XX=            -35.2770   YY=            -23.7025   ZZ=            -29.3141
   XY=              5.0053   XZ=             -0.8799   YZ=             -1.5374

  Exact polarizability:  49.218  -2.329  42.561   0.028  -0.148  17.076
 Approx polarizability:  84.460 -11.534  70.989   0.301   1.008  24.021

                      1                      2                      3
                      A                      A                      A
 Frequencies --    194.9925               285.2253               352.3194
 Red. masses --      5.7819                 5.0169                 1.1910
 Frc consts  --      0.1295                 0.2405                 0.0871
 IR Inten    --      8.8574                13.4210               138.1544

                      4                      5                      6
                      A                      A                      A
 Frequencies --    476.9595               516.7474               608.9902
 Red. masses --      3.2717                 1.2827                 5.8536
 Frc consts  --      0.4385                 0.2018                 1.2791
 IR Inten    --     10.6362               187.4805                 6.1799

                      7                      8                      9
                      A                      A                      A
 Frequencies --    713.1165               796.0901               827.8111
 Red. masses --      9.0827                 4.5872                 1.1190
 Frc consts  --      2.7213                 1.7129                 0.4518
 IR Inten    --     11.1863                 7.5322                62.7825

                     10                     11                     12
                      A                      A                      A
 Frequencies --   1129.7500              1155.2751              1415.9482
 Red. masses --      1.7427                 1.3152                 2.8369
 Frc consts  --      1.3105                 1.0342                 3.3511
 IR Inten    --     17.7500               127.5331                86.5810

                     13                     14                     15
                      A                      A                      A
 Frequencies --   1626.8152              1715.0709              2352.9281
 Red. masses --      1.2976                 5.2164                12.7056
 Frc consts  --      2.0233                 9.0404                41.4442
 IR Inten    --     43.4062               252.7933                 2.4853

                     16                     17                     18
                      A                      A                      A
 Frequencies --   3535.1380              3590.3471              3722.3467
 Red. masses --      1.0765                 1.0465                 1.1028
 Frc consts  --      7.9264                 7.9482                 9.0027
 IR Inten    --     10.3870                52.5122                46.7023

 - Thermochemistry -
 -------------------
 Temperature   298.150 Kelvin.  Pressure   1.00000 Atm.
 Atom     1 has atomic number  7 and mass  14.00307

 Molecular mass:    69.03270 amu.
 Principal axes and moments of inertia in atomic units:
                           1         2         3
     Eigenvalues --   168.00380 424.02656 591.11603
           X            0.99927   0.03804  -0.00363
           Y           -0.03809   0.99919  -0.01336
           Z            0.00311   0.01349   0.99990
 This molecule is an asymmetric top.
 Rotational symmetry number  1.
 Rotational temperatures (Kelvin)      0.51555     0.20427     0.14653
 Rotational constants (GHZ):          10.74226     4.25620     3.05311
 Zero-point vibrational energy     149628.1 (Joules/Mol)
                                   35.76198 (Kcal/Mol)
 Warning -- explicit consideration of   6 degrees of freedom as
           vibrations may cause significant error
 Vibrational temperatures:    280.55   410.38   506.91   686.24   743.48
          (Kelvin)            876.20  1026.01  1145.39  1191.03  1625.46
                             1662.18  2037.23  2340.62  2467.60  3385.33
                             5086.27  5165.70  5355.62

 Zero-point correction=                           0.056990 (Hartree/Particle)
 Thermal correction to Energy=                    0.062110
 Thermal correction to Enthalpy=                  0.063054
 Thermal correction to Gibbs Free Energy=         0.029183
 Sum of electronic and zero-point Energies=           -242.188676
 Sum of electronic and thermal Energies=              -242.183557
 Sum of electronic and thermal Enthalpies=            -242.182613
 Sum of electronic and thermal Free Energies=         -242.216484

                     E (Thermal)             CV                S
                      KCal/Mol        Cal/Mol-Kelvin    Cal/Mol-Kelvin
 Total                   38.975             17.352             71.289
 Electronic               0.000              0.000              0.000
 Translational            0.889              2.981             38.613
 Rotational               0.889              2.981             25.246
 Vibrational             37.197             11.390              7.429
 Vibration     1          0.636              1.847              2.180
 Vibration     2          0.683              1.701              1.502
 Vibration     3          0.729              1.571              1.156
 Vibration     4          0.834              1.301              0.718
 Vibration     5          0.872              1.213              0.618
 Vibration     6          0.968              1.013              0.434

 Optimization completed.
    -- Stationary point found.
 Normal termination of Gaussian 09 at Thu Sep  8 15:08:04 2022.
