 Gaussian 09, Revision E.01,
 Gaussian 09:  ES64L-G09RevE.01 30-Nov-2015

 ----------------------------
 #P OPT Freq B3LYP/6-31G(d,p)
 ----------------------------

 --------
 Frag_680
 --------
 Symbolic Z-matrix:
 Charge =  0 Multiplicity = 1

 SCF Done:  E(RB3LYP) =  -398.979809958     A.U. after   14 cycles
 SCF Done:  E(RB3LYP) =  -398.979867962     A.U. after   11 cycles
 SCF Done:  E(RB3LYP) =  -398.979710499     A.U. after   12 cycles
 SCF Done:  E(RB3LYP) =  -398.979924164     A.U. after    8 cycles
 SCF Done:  E(RB3LYP) =  -398.979942590     A.U. after    9 cycles
 SCF Done:  E(RB3LYP) =  -398.979944138     A.U. after    8 cycles
 SCF Done:  E(RB3LYP) =  -398.979942535     A.U. after    8 cycles
 SCF Done:  E(RB3LYP) =  -398.979944450     A.U. after    8 cycles
 Optimization completed.
    -- Stationary point found.
 Normal termination of Gaussian 09 at Thu Sep  8 15:09:16 2022.

 ----------------------------------------------------------------------
 #P Geom=AllCheck Guess=TCheck SCRF=Check GenChk RB3LYP/6-31G(d,p) Freq
 ----------------------------------------------------------------------

 Structure from the checkpoint file:  "B3LYP6-31Gdp.Frag_680.chk"
 --------
 Frag_680
 --------
 Charge =  0 Multiplicity = 1

                         Standard orientation:
 ---------------------------------------------------------------------
 Center     Atomic      Atomic             Coordinates (Angstroms)
 Number     Number       Type             X           Y           Z
 ---------------------------------------------------------------------
      1          6           0       -1.129689   -0.125240    1.385327
      2          6           0       -0.568944    0.005901   -0.035014
      3          7           0       -1.080823   -0.944282   -0.993757
      4          8           0       -0.873120    1.343672   -0.475895
      5          6           0        0.974753   -0.160044    0.010989
      6          8           0        1.511785   -1.242305    0.066133
      7          8           0        1.641246    0.999795    0.024635
      8          1           0       -0.859680   -1.097395    1.804251
      9          1           0       -2.219244   -0.027978    1.352770
     10          1           0       -0.737141    0.660898    2.036329
     11          1           0       -0.468040   -1.755228   -1.025600
     12          1           0       -2.016372   -1.253327   -0.746183
     13          1           0       -0.990605    1.258266   -1.435438
     14          1           0        0.960841    1.691737   -0.116639
 ---------------------------------------------------------------------

 SCF Done:  E(RB3LYP) =  -398.979944450     A.U. after    1 cycles

 The electronic state is 1-A.
 Alpha  occ. eigenvalues --  -19.19403 -19.17465 -19.13931 -14.34031 -10.31820
 Alpha  occ. eigenvalues --  -10.29423 -10.19732  -1.10792  -1.04954  -1.02266
 Alpha  occ. eigenvalues --   -0.90078  -0.75792  -0.65933  -0.60133  -0.55960
 Alpha  occ. eigenvalues --   -0.53290  -0.48657  -0.46482  -0.44667  -0.42973
 Alpha  occ. eigenvalues --   -0.41087  -0.40457  -0.38632  -0.36575  -0.33647
 Alpha  occ. eigenvalues --   -0.31622  -0.27980  -0.25916
 Alpha virt. eigenvalues --    0.00413   0.06052   0.09312   0.12523   0.13603
 Alpha virt. eigenvalues --    0.14355   0.15318   0.17399   0.18821   0.20839
 Alpha virt. eigenvalues --    0.24393   0.27292   0.33839   0.39974   0.51124

 Mulliken charges:
               1
     1  C   -0.303925
     2  C    0.291651
     3  N   -0.614848
     4  O   -0.565133
     5  C    0.590552
     6  O   -0.466187
     7  O   -0.485191
     8  H    0.129849
     9  H    0.117169
    10  H    0.123201
    11  H    0.274370
    12  H    0.250434
    13  H    0.319599
    14  H    0.338459
 Sum of Mulliken charges =   0.00000

 Dipole moment (field-independent basis, Debye):
    X=             -3.3223    Y=              0.5827    Z=             -0.2052  Tot=              3.3792
 Quadrupole moment (field-independent basis, Debye-Ang):
   XX=            -45.3090   YY=            -40.2510   ZZ=            -39.1293
   XY=              5.0192   XZ=             -0.5447   YZ=             -1.0551

  Exact polarizability:  47.601   0.348  51.521   0.648   0.534  40.718
 Approx polarizability:  64.669  -2.784  82.440   2.322   0.983  54.700

                      1                      2                      3
                      A                      A                      A
 Frequencies --     80.9812               230.1540               258.2414
 Red. masses --      6.6881                 3.1084                 1.1636
 Frc consts  --      0.0258                 0.0970                 0.0457
 IR Inten    --      3.9662                 3.2562                 4.1640

                      4                      5                      6
                      A                      A                      A
 Frequencies --    284.3899               315.4613               359.4621
 Red. masses --      1.9527                 1.6763                 2.4057
 Frc consts  --      0.0930                 0.0983                 0.1831
 IR Inten    --     15.8558                20.7431                 5.1405

                      7                      8                      9
                      A                      A                      A
 Frequencies --    387.2912               455.5943               515.7918
 Red. masses --      4.8008                 2.2862                 1.2908
 Frc consts  --      0.4243                 0.2796                 0.2023
 IR Inten    --      2.2959                31.4399                74.0677

                     10                     11                     12
                      A                      A                      A
 Frequencies --    551.6744               611.0218               753.3280
 Red. masses --      5.7048                 3.4861                 5.7364
 Frc consts  --      1.0230                 0.7668                 1.9180
 IR Inten    --      0.4880                24.7291                21.2315

                     13                     14                     15
                      A                      A                      A
 Frequencies --    765.8737               814.4614               851.9740
 Red. masses --      6.0405                 1.1283                 1.4280
 Frc consts  --      2.0875                 0.4410                 0.6107
 IR Inten    --     10.0770               111.9895               135.2476

                     16                     17                     18
                      A                      A                      A
 Frequencies --    905.3227               984.7500              1052.4854
 Red. masses --      2.7150                 1.5794                 1.8620
 Frc consts  --      1.3111                 0.9024                 1.2153
 IR Inten    --     21.8325                36.1628                55.5048

                     19                     20                     21
                      A                      A                      A
 Frequencies --   1105.5735              1209.7250              1229.5567
 Red. masses --      1.8288                 2.3765                 3.1601
 Frc consts  --      1.3171                 2.0491                 2.8148
 IR Inten    --     51.8118                 3.4194                82.7849

                     22                     23                     24
                      A                      A                      A
 Frequencies --   1336.4591              1356.1133              1413.2144
 Red. masses --      1.6565                 1.5880                 1.3610
 Frc consts  --      1.7432                 1.7207                 1.6015
 IR Inten    --     51.5381               112.6705                61.8491

                     25                     26                     27
                      A                      A                      A
 Frequencies --   1428.5832              1495.7556              1511.3623
 Red. masses --      1.8750                 1.0553                 1.0741
 Frc consts  --      2.2545                 1.3911                 1.4455
 IR Inten    --    277.0949                 3.6856                 8.6807

                     28                     29                     30
                      A                      A                      A
 Frequencies --   1660.8153              1870.8957              3055.1553
 Red. masses --      1.1179                 9.0816                 1.0347
 Frc consts  --      1.8168                18.7289                 5.6903
 IR Inten    --     71.3169               215.5209                 9.6938

                     31                     32                     33
                      A                      A                      A
 Frequencies --   3132.0341              3150.0866              3508.2463
 Red. masses --      1.1031                 1.1039                 1.0489
 Frc consts  --      6.3753                 6.4542                 7.6062
 IR Inten    --     16.8121                10.3987                 9.8532

                     34                     35                     36
                      A                      A                      A
 Frequencies --   3590.0122              3598.1265              3768.1954
 Red. masses --      1.0641                 1.0945                 1.0650
 Frc consts  --      8.0806                 8.3490                 8.9102
 IR Inten    --    157.5310                14.3875                45.1768

 - Thermochemistry -
 -------------------
 Temperature   298.150 Kelvin.  Pressure   1.00000 Atm.
 Atom     1 has atomic number  6 and mass  12.00000

 Molecular mass:   105.04259 amu.
 Principal axes and moments of inertia in atomic units:
                           1         2         3
     Eigenvalues --   523.23689 731.29067 872.59437
           X            0.99692   0.07275  -0.02932
           Y           -0.07284   0.99734  -0.00201
           Z            0.02909   0.00414   0.99957
 This molecule is an asymmetric top.
 Rotational symmetry number  1.
 Warning -- assumption of classical behavior for rotation
           may cause significant error
 Rotational temperatures (Kelvin)      0.16553     0.11844     0.09926
 Rotational constants (GHZ):           3.44919     2.46788     2.06825
 Zero-point vibrational energy     296662.9 (Joules/Mol)
                                   70.90414 (Kcal/Mol)
 Warning -- explicit consideration of  11 degrees of freedom as
           vibrations may cause significant error
 Vibrational temperatures:    116.51   331.14   371.55   409.17   453.88
          (Kelvin)            517.19   557.22   655.50   742.11   793.74
                              879.12  1083.87  1101.92  1171.83  1225.80
                             1302.56  1416.83  1514.29  1590.67  1740.52
                             1769.06  1922.86  1951.14  2033.30  2055.41
                             2152.06  2174.51  2389.54  2691.80  4395.68
                             4506.29  4532.27  5047.58  5165.22  5176.90
                             5421.59

 Zero-point correction=                           0.112993 (Hartree/Particle)
 Thermal correction to Energy=                    0.120459
 Thermal correction to Enthalpy=                  0.121403
 Thermal correction to Gibbs Free Energy=         0.081805
 Sum of electronic and zero-point Energies=           -398.866952
 Sum of electronic and thermal Energies=              -398.859485
 Sum of electronic and thermal Enthalpies=            -398.858541
 Sum of electronic and thermal Free Energies=         -398.898140

                     E (Thermal)             CV                S
                      KCal/Mol        Cal/Mol-Kelvin    Cal/Mol-Kelvin
 Total                   75.589             27.742             83.342
 Electronic               0.000              0.000              0.000
 Translational            0.889              2.981             39.865
 Rotational               0.889              2.981             27.304
 Vibrational             73.812             21.781             16.174
 Vibration     1          0.600              1.962              3.867
 Vibration     2          0.652              1.795              1.878
 Vibration     3          0.667              1.749              1.674
 Vibration     4          0.683              1.703              1.507
 Vibration     5          0.703              1.644              1.334
 Vibration     6          0.734              1.556              1.124
 Vibration     7          0.756              1.497              1.011
 Vibration     8          0.814              1.349              0.779
 Vibration     9          0.871              1.215              0.620
 Vibration    10          0.907              1.136              0.541
 Vibration    11          0.970              1.009              0.431

 Optimization completed.
    -- Stationary point found.
 Normal termination of Gaussian 09 at Thu Sep  8 15:09:29 2022.
