 Gaussian 09, Revision E.01,
 Gaussian 09:  ES64L-G09RevE.01 30-Nov-2015

 ----------------------------
 #P OPT Freq B3LYP/6-31G(d,p)
 ----------------------------

 --------
 Frag_898
 --------
 Symbolic Z-matrix:
 Charge =  0 Multiplicity = 1

 SCF Done:  E(RB3LYP) =  -279.253193394     A.U. after   15 cycles
 SCF Done:  E(RB3LYP) =  -279.253301715     A.U. after   12 cycles
 SCF Done:  E(RB3LYP) =  -279.253307070     A.U. after   10 cycles
 SCF Done:  E(RB3LYP) =  -279.253312414     A.U. after   10 cycles
 SCF Done:  E(RB3LYP) =  -279.253315063     A.U. after   10 cycles
 SCF Done:  E(RB3LYP) =  -279.253315428     A.U. after    9 cycles
 SCF Done:  E(RB3LYP) =  -279.253315387     A.U. after    9 cycles
 SCF Done:  E(RB3LYP) =  -279.253315531     A.U. after    8 cycles
 Optimization completed.
    -- Stationary point found.
 Normal termination of Gaussian 09 at Thu Sep  8 15:20:30 2022.

 ----------------------------------------------------------------------
 #P Geom=AllCheck Guess=TCheck SCRF=Check GenChk RB3LYP/6-31G(d,p) Freq
 ----------------------------------------------------------------------

 Structure from the checkpoint file:  "B3LYP6-31Gdp.Frag_898.chk"
 --------
 Frag_898
 --------
 Charge =  0 Multiplicity = 1

                         Standard orientation:
 ---------------------------------------------------------------------
 Center     Atomic      Atomic             Coordinates (Angstroms)
 Number     Number       Type             X           Y           Z
 ---------------------------------------------------------------------
      1          6           0       -1.755354   -0.031042    0.000029
      2          7           0       -0.721762   -0.766528   -0.000047
      3          7           0        0.542031    0.070273   -0.000016
      4          7           0        1.604607   -0.607959    0.000034
      5          8           0        0.458924    1.296649   -0.000016
      6          1           0       -1.688706    1.059043    0.000121
      7          1           0       -2.720789   -0.531129    0.000013
      8          1           0        1.296095   -1.585348    0.000029
 ---------------------------------------------------------------------

 SCF Done:  E(RB3LYP) =  -279.253315531     A.U. after    1 cycles

 The electronic state is 1-A.
 Alpha  occ. eigenvalues --  -19.17607 -14.55728 -14.40509 -14.37665 -10.27055
 Alpha  occ. eigenvalues --   -1.19167  -0.99050  -0.95023  -0.70137  -0.61329
 Alpha  occ. eigenvalues --   -0.57745  -0.51838  -0.50551  -0.48876  -0.36669
 Alpha  occ. eigenvalues --   -0.35616  -0.32240  -0.29078  -0.28253
 Alpha virt. eigenvalues --   -0.08098  -0.00951   0.05241   0.11100   0.11747
 Alpha virt. eigenvalues --    0.18406   0.25502   0.29987   0.34234   0.50185
 Alpha virt. eigenvalues --    0.56275   0.60200   0.61135   0.63999   0.64831

 Mulliken charges:
               1
     1  C    0.008989
     2  N   -0.251051
     3  N    0.350114
     4  N   -0.281295
     5  O   -0.416065
     6  H    0.171087
     7  H    0.148885
     8  H    0.269337
 Sum of Mulliken charges =  -0.00000

 Dipole moment (field-independent basis, Debye):
    X=             -3.2800    Y=             -1.3989    Z=              0.0001  Tot=              3.5658
 Quadrupole moment (field-independent basis, Debye-Ang):
   XX=            -26.4341   YY=            -29.5198   ZZ=            -28.3174
   XY=             -2.9049   XZ=             -0.0003   YZ=             -0.0000

  Exact polarizability:  53.943  -7.076  39.537  -0.000   0.000  14.878
 Approx polarizability:  86.922 -23.781  80.626   0.000   0.000  21.733

                      1                      2                      3
                      A                      A                      A
 Frequencies --    131.4063               393.3937               511.2566
 Red. masses --      4.3787                 3.4226                 7.7437
 Frc consts  --      0.0445                 0.3121                 1.1925
 IR Inten    --      7.6076                16.9802                 3.6930

                      4                      5                      6
                      A                      A                      A
 Frequencies --    569.6308               615.5473               767.2531
 Red. masses --      2.1561                 3.1781                 8.4475
 Frc consts  --      0.4122                 0.7095                 2.9299
 IR Inten    --     22.0327                 3.9977                33.5708

                      7                      8                      9
                      A                      A                      A
 Frequencies --    857.8384               862.4900              1087.2040
 Red. masses --      1.6012                 1.2107                 1.3444
 Frc consts  --      0.6942                 0.5306                 0.9363
 IR Inten    --      6.7849                62.7382                20.7481

                     10                     11                     12
                      A                      A                      A
 Frequencies --   1178.9583              1256.5588              1413.9399
 Red. masses --      1.5824                 3.3609                 1.1350
 Frc consts  --      1.2958                 3.1266                 1.3369
 IR Inten    --      0.5918                71.3338                10.4659

                     13                     14                     15
                      A                      A                      A
 Frequencies --   1454.3221              1696.2719              1746.6507
 Red. masses --      1.8984                 6.9644                 5.9033
 Frc consts  --      2.3657                11.8067                10.6110
 IR Inten    --    241.4670                52.2666                99.1808

                     16                     17                     18
                      A                      A                      A
 Frequencies --   3108.5954              3229.4793              3451.7398
 Red. masses --      1.0577                 1.1173                 1.0724
 Frc consts  --      6.0220                 6.8659                 7.5280
 IR Inten    --      8.2101                 0.0077                10.6574

 - Thermochemistry -
 -------------------
 Temperature   298.150 Kelvin.  Pressure   1.00000 Atm.
 Atom     1 has atomic number  6 and mass  12.00000

 Molecular mass:    73.02761 amu.
 Principal axes and moments of inertia in atomic units:
                           1         2         3
     Eigenvalues --   157.88152 356.39987 514.28139
           X            0.99912  -0.04197  -0.00000
           Y            0.04197   0.99912   0.00000
           Z            0.00000  -0.00000   1.00000
 This molecule is an asymmetric top.
 Rotational symmetry number  1.
 Rotational temperatures (Kelvin)      0.54860     0.24302     0.16842
 Rotational constants (GHZ):          11.43098     5.06381     3.50925
 Zero-point vibrational energy     145540.9 (Joules/Mol)
                                   34.78511 (Kcal/Mol)
 Warning -- explicit consideration of   5 degrees of freedom as
           vibrations may cause significant error
 Vibrational temperatures:    189.06   566.01   735.58   819.57   885.63
          (Kelvin)           1103.90  1234.24  1240.93  1564.24  1696.26
                             1807.91  2034.34  2092.44  2440.55  2513.04
                             4472.57  4646.49  4966.28

 Zero-point correction=                           0.055434 (Hartree/Particle)
 Thermal correction to Energy=                    0.060092
 Thermal correction to Enthalpy=                  0.061036
 Thermal correction to Gibbs Free Energy=         0.027837
 Sum of electronic and zero-point Energies=           -279.197882
 Sum of electronic and thermal Energies=              -279.193224
 Sum of electronic and thermal Enthalpies=            -279.192280
 Sum of electronic and thermal Free Energies=         -279.225479

                     E (Thermal)             CV                S
                      KCal/Mol        Cal/Mol-Kelvin    Cal/Mol-Kelvin
 Total                   37.708             15.446             69.873
 Electronic               0.000              0.000              0.000
 Translational            0.889              2.981             38.781
 Rotational               0.889              2.981             24.874
 Vibrational             35.931              9.485              6.219
 Vibration     1          0.612              1.922              2.925
 Vibration     2          0.761              1.484              0.987
 Vibration     3          0.866              1.225              0.631
 Vibration     4          0.926              1.097              0.505
 Vibration     5          0.975              0.999              0.424

 Optimization completed.
    -- Stationary point found.
 Normal termination of Gaussian 09 at Thu Sep  8 15:20:36 2022.
