 Gaussian 09, Revision E.01,
 Gaussian 09:  ES64L-G09RevE.01 30-Nov-2015

 ----------------------------
 #P OPT Freq B3LYP/6-31G(d,p)
 ----------------------------

 ---------
 Frag_1009
 ---------
 Symbolic Z-matrix:
 Charge =  0 Multiplicity = 1

 SCF Done:  E(RB3LYP) =  -285.610849818     A.U. after   13 cycles
 SCF Done:  E(RB3LYP) =  -285.610907690     A.U. after    9 cycles
 SCF Done:  E(RB3LYP) =  -285.610913504     A.U. after    8 cycles
 SCF Done:  E(RB3LYP) =  -285.610914836     A.U. after    7 cycles
 SCF Done:  E(RB3LYP) =  -285.610915068     A.U. after    7 cycles
 SCF Done:  E(RB3LYP) =  -285.610915156     A.U. after    7 cycles
 SCF Done:  E(RB3LYP) =  -285.610915233     A.U. after    7 cycles
 SCF Done:  E(RB3LYP) =  -285.610915289     A.U. after    7 cycles
 Optimization completed.
    -- Stationary point found.
 Normal termination of Gaussian 09 at Thu Sep  8 14:47:59 2022.

 ----------------------------------------------------------------------
 #P Geom=AllCheck Guess=TCheck SCRF=Check GenChk RB3LYP/6-31G(d,p) Freq
 ----------------------------------------------------------------------

 Structure from the checkpoint file:  "B3LYP6-31Gdp.Frag_1009.chk"
 ---------
 Frag_1009
 ---------
 Charge =  0 Multiplicity = 1

                         Standard orientation:
 ---------------------------------------------------------------------
 Center     Atomic      Atomic             Coordinates (Angstroms)
 Number     Number       Type             X           Y           Z
 ---------------------------------------------------------------------
      1          7           0       -1.227474   -1.011763   -0.331553
      2          6           0       -0.622639    0.072845    0.436783
      3          8           0       -0.809385    1.316952   -0.204442
      4          6           0        0.876739   -0.122489    0.706356
      5          8           0        1.503762   -0.135233   -0.578899
      6          1           0       -0.602606   -1.266437   -1.095312
      7          1           0       -1.325360   -1.838464    0.254059
      8          1           0       -1.149696    0.135919    1.395631
      9          1           0       -0.170483    1.336715   -0.932883
     10          1           0        1.051310   -1.066421    1.245289
     11          1           0        1.250423    0.706918    1.322971
     12          1           0        2.459119   -0.081778   -0.460993
 ---------------------------------------------------------------------

 SCF Done:  E(RB3LYP) =  -285.610915289     A.U. after    1 cycles

 The electronic state is 1-A.
 Alpha  occ. eigenvalues --  -19.16409 -19.13010 -14.30636 -10.25532 -10.23647
 Alpha  occ. eigenvalues --   -1.03996  -1.00716  -0.86515  -0.71669  -0.61016
 Alpha  occ. eigenvalues --   -0.53767  -0.48442  -0.47295  -0.46476  -0.43902
 Alpha  occ. eigenvalues --   -0.38724  -0.36252  -0.32824  -0.28949  -0.26700
 Alpha  occ. eigenvalues --   -0.23559
 Alpha virt. eigenvalues --    0.05248   0.10036   0.12392   0.13841   0.15465
 Alpha virt. eigenvalues --    0.15957   0.18621   0.19188   0.24002   0.25138
 Alpha virt. eigenvalues --    0.29202   0.53526   0.55257   0.56259   0.61316

 Mulliken charges:
               1
     1  N   -0.578512
     2  C    0.261779
     3  O   -0.529693
     4  C    0.031272
     5  O   -0.553862
     6  H    0.242904
     7  H    0.229461
     8  H    0.097403
     9  H    0.309275
    10  H    0.077208
    11  H    0.095336
    12  H    0.317430
 Sum of Mulliken charges =  -0.00000

 Dipole moment (field-independent basis, Debye):
    X=              3.4336    Y=             -1.5603    Z=              1.1513  Tot=              3.9433
 Quadrupole moment (field-independent basis, Debye-Ang):
   XX=            -29.9332   YY=            -30.4693   ZZ=            -28.7114
   XY=              2.3882   XZ=             -1.6180   YZ=             -1.5781

  Exact polarizability:  37.063   2.039  36.466  -1.536  -0.713  36.116
 Approx polarizability:  46.954   1.820  49.326  -3.207  -1.350  50.689

                      1                      2                      3
                      A                      A                      A
 Frequencies --    122.8955               212.4404               245.0994
 Red. masses --      3.2076                 1.1760                 1.0673
 Frc consts  --      0.0285                 0.0313                 0.0378
 IR Inten    --      4.8482                95.3601                66.9196

                      4                      5                      6
                      A                      A                      A
 Frequencies --    271.0433               402.4450               427.7857
 Red. masses --      4.4013                 1.7126                 1.2800
 Frc consts  --      0.1905                 0.1634                 0.1380
 IR Inten    --      9.7507                 6.1474                94.0118

                      7                      8                      9
                      A                      A                      A
 Frequencies --    515.3979               696.1342               821.8898
 Red. masses --      3.5868                 3.0324                 2.7187
 Frc consts  --      0.5614                 0.8658                 1.0820
 IR Inten    --     14.2750                39.2808                59.7467

                     10                     11                     12
                      A                      A                      A
 Frequencies --    892.0890               976.0483              1007.5479
 Red. masses --      1.6589                 1.8639                 2.6119
 Frc consts  --      0.7778                 1.0462                 1.5622
 IR Inten    --    176.0435                26.2928                45.2153

                     13                     14                     15
                      A                      A                      A
 Frequencies --   1093.7727              1140.8446              1175.6463
 Red. masses --      4.0910                 1.6672                 1.2340
 Frc consts  --      2.8836                 1.2785                 1.0049
 IR Inten    --     69.9427                64.6484                93.7323

                     16                     17                     18
                      A                      A                      A
 Frequencies --   1206.4720              1269.8832              1340.4164
 Red. masses --      1.2456                 1.1986                 1.4574
 Frc consts  --      1.0682                 1.1388                 1.5428
 IR Inten    --     19.4878                13.4135                15.8055

                     19                     20                     21
                      A                      A                      A
 Frequencies --   1429.0937              1434.9718              1446.4802
 Red. masses --      1.3190                 1.2271                 1.4792
 Frc consts  --      1.5872                 1.4888                 1.8235
 IR Inten    --     29.9048                45.8719                34.7299

                     22                     23                     24
                      A                      A                      A
 Frequencies --   1526.3166              1663.4565              2994.8800
 Red. masses --      1.0864                 1.1022                 1.0581
 Frc consts  --      1.4912                 1.7970                 5.5915
 IR Inten    --      5.4031                23.0226                54.5940

                     25                     26                     27
                      A                      A                      A
 Frequencies --   3043.8470              3072.9851              3477.5350
 Red. masses --      1.1064                 1.0875                 1.0491
 Frc consts  --      6.0398                 6.0504                 7.4752
 IR Inten    --     62.7869                43.8891                 0.8276

                     28                     29                     30
                      A                      A                      A
 Frequencies --   3568.9298              3777.2650              3847.5679
 Red. masses --      1.0923                 1.0652                 1.0670
 Frc consts  --      8.1976                 8.9544                 9.3068
 IR Inten    --      0.6929                27.3768                31.9091

 - Thermochemistry -
 -------------------
 Temperature   298.150 Kelvin.  Pressure   1.00000 Atm.
 Atom     1 has atomic number  7 and mass  14.00307

 Molecular mass:    77.04768 amu.
 Principal axes and moments of inertia in atomic units:
                           1         2         3
     Eigenvalues --   265.63606 419.42780 517.61766
           X            0.99849   0.05399   0.00976
           Y           -0.05380   0.99838  -0.01859
           Z           -0.01075   0.01804   0.99978
 This molecule is an asymmetric top.
 Rotational symmetry number  1.
 Rotational temperatures (Kelvin)      0.32606     0.20650     0.16733
 Rotational constants (GHZ):           6.79404     4.30286     3.48663
 Zero-point vibrational energy     269765.0 (Joules/Mol)
                                   64.47537 (Kcal/Mol)
 Warning -- explicit consideration of   7 degrees of freedom as
           vibrations may cause significant error
 Vibrational temperatures:    176.82   305.65   352.64   389.97   579.03
          (Kelvin)            615.49   741.54  1001.58  1182.51  1283.52
                             1404.31  1449.63  1573.69  1641.42  1691.49
                             1735.84  1827.08  1928.56  2056.14  2064.60
                             2081.16  2196.03  2393.34  4308.96  4379.41
                             4421.33  5003.39  5134.89  5434.64  5535.79

 Zero-point correction=                           0.102748 (Hartree/Particle)
 Thermal correction to Energy=                    0.109016
 Thermal correction to Enthalpy=                  0.109960
 Thermal correction to Gibbs Free Energy=         0.073598
 Sum of electronic and zero-point Energies=           -285.508167
 Sum of electronic and thermal Energies=              -285.501899
 Sum of electronic and thermal Enthalpies=            -285.500955
 Sum of electronic and thermal Free Energies=         -285.537317

                     E (Thermal)             CV                S
                      KCal/Mol        Cal/Mol-Kelvin    Cal/Mol-Kelvin
 Total                   68.409             21.675             76.530
 Electronic               0.000              0.000              0.000
 Translational            0.889              2.981             38.941
 Rotational               0.889              2.981             25.559
 Vibrational             66.631             15.714             12.030
 Vibration     1          0.610              1.930              3.054
 Vibration     2          0.643              1.822              2.023
 Vibration     3          0.660              1.771              1.766
 Vibration     4          0.675              1.727              1.590
 Vibration     5          0.768              1.465              0.954
 Vibration     6          0.789              1.410              0.866
 Vibration     7          0.870              1.216              0.621

 Normal termination of Gaussian 09 at Thu Sep  8 14:48:08 2022.
