 Gaussian 09, Revision E.01,
 Gaussian 09:  ES64L-G09RevE.01 30-Nov-2015

 --------------------------------
 #P OPT=calcfc Freq B3LYP/6-31G**
 --------------------------------

 --------
 Frag_421
 --------
 Symbolic Z-matrix:
 Charge =  0 Multiplicity = 1

 SCF Done:  E(RB3LYP) =  -319.739672299     A.U. after   15 cycles
 SCF Done:  E(RB3LYP) =  -319.759873064     A.U. after   14 cycles
 SCF Done:  E(RB3LYP) =  -319.763066724     A.U. after   13 cycles
 SCF Done:  E(RB3LYP) =  -319.763821710     A.U. after   15 cycles
 SCF Done:  E(RB3LYP) =  -319.764437388     A.U. after   14 cycles
 SCF Done:  E(RB3LYP) =  -319.763321865     A.U. after   15 cycles
 SCF Done:  E(RB3LYP) =  -319.765419602     A.U. after   11 cycles
 SCF Done:  E(RB3LYP) =  -319.766574988     A.U. after   12 cycles
 SCF Done:  E(RB3LYP) =  -319.767186322     A.U. after   12 cycles
 SCF Done:  E(RB3LYP) =  -319.767988543     A.U. after   13 cycles
 SCF Done:  E(RB3LYP) =  -319.768192798     A.U. after    9 cycles
 SCF Done:  E(RB3LYP) =  -319.768501886     A.U. after   12 cycles
 SCF Done:  E(RB3LYP) =  -319.768638339     A.U. after   12 cycles
 SCF Done:  E(RB3LYP) =  -319.768698562     A.U. after   12 cycles
 SCF Done:  E(RB3LYP) =  -319.768737828     A.U. after   11 cycles
 SCF Done:  E(RB3LYP) =  -319.768762260     A.U. after   11 cycles
 SCF Done:  E(RB3LYP) =  -319.768770087     A.U. after   10 cycles
 SCF Done:  E(RB3LYP) =  -319.768771703     A.U. after    9 cycles
 SCF Done:  E(RB3LYP) =  -319.768771844     A.U. after    7 cycles
 Optimization completed.
    -- Stationary point found.
 Normal termination of Gaussian 09 at Fri Sep 10 20:14:08 2021.

 ----------------------------------------------------------------------
 #P Geom=AllCheck Guess=TCheck SCRF=Check GenChk RB3LYP/6-31G(d,p) Freq
 ----------------------------------------------------------------------

 Structure from the checkpoint file:  "/public/home/users/caep010/.cache/gau_scr/Gau-99167.chk"
 --------
 Frag_421
 --------
 Charge =  0 Multiplicity = 1

                         Standard orientation:
 ---------------------------------------------------------------------
 Center     Atomic      Atomic             Coordinates (Angstroms)
 Number     Number       Type             X           Y           Z
 ---------------------------------------------------------------------
      1          6           0       -1.529937   -1.003166    0.122164
      2          7           0       -0.812050    0.074053   -0.049064
      3          8           0       -1.236670    1.256990   -0.046270
      4          7           0        0.618726   -0.054313   -0.367884
      5          6           0        1.367405    1.090341    0.157651
      6          7           0        1.116246   -1.307069    0.022622
      7          1           0       -2.586074   -0.840026    0.267610
      8          1           0       -1.054381   -1.966728    0.093548
      9          1           0        1.458050    1.060929    1.255949
     10          1           0        0.870752    2.010375   -0.136730
     11          1           0        2.363861    1.047862   -0.287563
     12          1           0        1.782117   -1.617940   -0.676955
     13          1           0        1.573781   -1.262136    0.935695
 ---------------------------------------------------------------------

 SCF Done:  E(RB3LYP) =  -319.768771844     A.U. after    1 cycles

 The electronic state is 1-A.
 Alpha  occ. eigenvalues --  -19.11892 -14.49359 -14.40655 -14.37237 -10.21680
 Alpha  occ. eigenvalues --  -10.20235  -1.12197  -0.99711  -0.84338  -0.80579
 Alpha  occ. eigenvalues --   -0.68947  -0.58465  -0.53583  -0.52928  -0.50490
 Alpha  occ. eigenvalues --   -0.45902  -0.45151  -0.42388  -0.41338  -0.38978
 Alpha  occ. eigenvalues --   -0.29603  -0.26812  -0.24033  -0.21129
 Alpha virt. eigenvalues --   -0.00151   0.06276   0.10464   0.12638   0.13650
 Alpha virt. eigenvalues --    0.15304   0.15925   0.17664   0.18284   0.19930
 Alpha virt. eigenvalues --    0.23325   0.28008   0.33205   0.52028   0.53265

 Mulliken charges:
               1
     1  C   -0.104936
     2  N    0.255584
     3  O   -0.502468
     4  N   -0.209254
     5  C   -0.173095
     6  N   -0.450928
     7  H    0.129168
     8  H    0.144734
     9  H    0.097657
    10  H    0.173458
    11  H    0.114572
    12  H    0.277808
    13  H    0.247699
 Sum of Mulliken charges =   0.00000

 Dipole moment (field-independent basis, Debye):
    X=              3.2669    Y=             -2.2169    Z=              0.8060  Tot=              4.0295
 Quadrupole moment (field-independent basis, Debye-Ang):
   XX=            -31.3622   YY=            -36.9187   ZZ=            -36.4428
   XY=              2.0671   XZ=              0.0172   YZ=              0.2093

  Exact polarizability:  59.427   3.891  58.572  -1.349  -1.268  31.118
 Approx polarizability:  78.513   4.939 107.594  -3.706  -4.526  45.789

                      1                      2                      3
                      A                      A                      A
 Frequencies --     68.2153               205.2950               326.2586
 Red. masses --      3.7576                 1.1464                 1.5309
 Frc consts  --      0.0103                 0.0285                 0.0960
 IR Inten    --      4.2888                 1.3430                24.4374

                      4                      5                      6
                      A                      A                      A
 Frequencies --    352.0329               379.6190               443.6406
 Red. masses --      1.8048                 2.8892                 2.5236
 Frc consts  --      0.1318                 0.2453                 0.2926
 IR Inten    --      7.4791                11.7440                10.3348

                      7                      8                      9
                      A                      A                      A
 Frequencies --    541.2075               546.4801               662.6820
 Red. masses --      4.5083                 2.8432                 1.5808
 Frc consts  --      0.7780                 0.5003                 0.4090
 IR Inten    --      3.3625                 4.6140                 0.8824

                     10                     11                     12
                      A                      A                      A
 Frequencies --    698.1113               710.6684               748.2786
 Red. masses --      2.8767                 1.5446                 1.8164
 Frc consts  --      0.8260                 0.4596                 0.5992
 IR Inten    --     49.7879                11.7303                69.1052

                     13                     14                     15
                      A                      A                      A
 Frequencies --    805.5511              1005.6109              1090.3799
 Red. masses --      2.4226                 1.7559                 2.0737
 Frc consts  --      0.9262                 1.0462                 1.4526
 IR Inten    --     93.7474                22.6825                36.3077

                     16                     17                     18
                      A                      A                      A
 Frequencies --   1139.1202              1179.3999              1252.6976
 Red. masses --      1.5506                 2.1652                 2.7673
 Frc consts  --      1.1854                 1.7745                 2.5586
 IR Inten    --      9.4194                 5.4123                 9.6727

                     19                     20                     21
                      A                      A                      A
 Frequencies --   1298.7699              1324.1938              1424.5397
 Red. masses --      2.0090                 1.3613                 1.1957
 Frc consts  --      1.9966                 1.4064                 1.4296
 IR Inten    --     51.6818                 7.7391                 9.1017

                     22                     23                     24
                      A                      A                      A
 Frequencies --   1451.3153              1499.7872              1515.5879
 Red. masses --      1.3683                 1.0618                 1.0496
 Frc consts  --      1.6981                 1.4072                 1.4204
 IR Inten    --     24.1435                13.9704                15.9497

                     25                     26                     27
                      A                      A                      A
 Frequencies --   1661.3548              1687.3447              2987.9623
 Red. masses --      2.3687                 1.6209                 1.0563
 Frc consts  --      3.8519                 2.7190                 5.5562
 IR Inten    --    129.6519                71.2788                62.4865

                     28                     29                     30
                      A                      A                      A
 Frequencies --   3118.3964              3210.0775              3233.5325
 Red. masses --      1.0846                 1.0972                 1.0503
 Frc consts  --      6.2143                 6.6616                 6.4703
 IR Inten    --     25.4147                 0.2896                 6.2916

                     31                     32                     33
                      A                      A                      A
 Frequencies --   3373.1061              3425.4485              3581.5878
 Red. masses --      1.1251                 1.0539                 1.0892
 Frc consts  --      7.5423                 7.2857                 8.2322
 IR Inten    --      2.9699                 5.0724                 5.4435

 - Thermochemistry -
 -------------------
 Temperature   298.150 Kelvin.  Pressure   1.00000 Atm.
 Atom     1 has atomic number  6 and mass  12.00000

 Molecular mass:    89.05891 amu.
 Principal axes and moments of inertia in atomic units:
                           1         2         3
     Eigenvalues --   341.68835 482.47132 784.60674
           X            0.99168   0.12866   0.00479
           Y           -0.12867   0.99168   0.00303
           Z           -0.00436  -0.00362   0.99998
 This molecule is an asymmetric top.
 Rotational symmetry number  1.
 Rotational temperatures (Kelvin)      0.25349     0.17952     0.11039
 Rotational constants (GHZ):           5.28183     3.74062     2.30019
 Zero-point vibrational energy     280812.9 (Joules/Mol)
                                   67.11590 (Kcal/Mol)
 Warning -- explicit consideration of   8 degrees of freedom as
           vibrations may cause significant error
 Vibrational temperatures:     98.15   295.37   469.41   506.50   546.19
          (Kelvin)            638.30   778.68   786.26   953.45  1004.43
                             1022.49  1076.60  1159.01  1446.85  1568.81
                             1638.94  1696.89  1802.35  1868.64  1905.22
                             2049.59  2088.12  2157.86  2180.59  2390.32
                             2427.71  4299.01  4486.67  4618.58  4652.33
                             4853.14  4928.45  5153.10

 Zero-point correction=                           0.106956 (Hartree/Particle)
 Thermal correction to Energy=                    0.113557
 Thermal correction to Enthalpy=                  0.114502
 Thermal correction to Gibbs Free Energy=         0.076849
 Sum of electronic and zero-point Energies=           -319.661816
 Sum of electronic and thermal Energies=              -319.655214
 Sum of electronic and thermal Enthalpies=            -319.654270
 Sum of electronic and thermal Free Energies=         -319.691922

                     E (Thermal)             CV                S
                      KCal/Mol        Cal/Mol-Kelvin    Cal/Mol-Kelvin
 Total                   71.258             24.075             79.246
 Electronic               0.000              0.000              0.000
 Translational            0.889              2.981             39.373
 Rotational               0.889              2.981             26.361
 Vibrational             69.481             18.114             13.512
 Vibration     1          0.598              1.969              4.204
 Vibration     2          0.640              1.832              2.085
 Vibration     3          0.710              1.623              1.279
 Vibration     4          0.729              1.571              1.157
 Vibration     5          0.750              1.514              1.041
 Vibration     6          0.803              1.375              0.815
 Vibration     7          0.896              1.159              0.563
 Vibration     8          0.902              1.147              0.552

 Optimization completed.
    -- Stationary point found.
 Normal termination of Gaussian 09 at Fri Sep 10 20:14:18 2021.
