 Gaussian 09, Revision E.01,
 Gaussian 09:  ES64L-G09RevE.01 30-Nov-2015

 ----------------------------
 #P OPT Freq B3LYP/6-31G(d,p)
 ----------------------------

 --------
 Frag_732
 --------
 Symbolic Z-matrix:
 Charge =  0 Multiplicity = 1

 SCF Done:  E(RB3LYP) =  -343.112472385     A.U. after   15 cycles
 SCF Done:  E(RB3LYP) =  -343.112559229     A.U. after   11 cycles
 SCF Done:  E(RB3LYP) =  -343.112564310     A.U. after    9 cycles
 SCF Done:  E(RB3LYP) =  -343.112564946     A.U. after    8 cycles
 Optimization completed.
    -- Stationary point found.
 Normal termination of Gaussian 09 at Thu Sep  8 15:22:19 2022.

 ----------------------------------------------------------------------
 #P Geom=AllCheck Guess=TCheck SCRF=Check GenChk RB3LYP/6-31G(d,p) Freq
 ----------------------------------------------------------------------

 Structure from the checkpoint file:  "B3LYP6-31Gdp.Frag_732.chk"
 --------
 Frag_732
 --------
 Charge =  0 Multiplicity = 1

                         Standard orientation:
 ---------------------------------------------------------------------
 Center     Atomic      Atomic             Coordinates (Angstroms)
 Number     Number       Type             X           Y           Z
 ---------------------------------------------------------------------
      1          6           0       -1.692744    1.071882   -0.000098
      2          7           0       -0.977891   -0.016728    0.000006
      3          8           0       -1.446166   -1.201623    0.000106
      4          6           0        0.577803    0.052379   -0.000031
      5          6           0        1.012928   -0.681528    1.271739
      6          6           0        1.012955   -0.682822   -1.271058
      7          7           0        1.015081    1.428480   -0.000591
      8          1           0       -2.766816    0.950761   -0.000074
      9          1           0       -1.186167    2.022285   -0.000135
     10          1           0        2.099137   -0.812272    1.269898
     11          1           0        0.525945   -1.654847    1.322651
     12          1           0        0.728425   -0.104058    2.158260
     13          1           0        2.099195   -0.813294   -1.269155
     14          1           0        0.526180   -1.656295   -1.320953
     15          1           0        0.728278   -0.106352   -2.158179
     16          1           0        1.543673    1.672624   -0.828470
     17          1           0        1.545495    1.672705    0.826090
 ---------------------------------------------------------------------

 SCF Done:  E(RB3LYP) =  -343.112564946     A.U. after    1 cycles

 The electronic state is 1-A.
 Alpha  occ. eigenvalues --  -19.10129 -14.45074 -14.33644 -10.26852 -10.19895
 Alpha  occ. eigenvalues --  -10.18437 -10.18435  -1.07977  -0.91924  -0.82082
 Alpha  occ. eigenvalues --   -0.76917  -0.70388  -0.63739  -0.54848  -0.51078
 Alpha  occ. eigenvalues --   -0.50999  -0.47804  -0.44606  -0.44496  -0.41760
 Alpha  occ. eigenvalues --   -0.38942  -0.38783  -0.38087  -0.36515  -0.34811
 Alpha  occ. eigenvalues --   -0.27765  -0.21882  -0.20528
 Alpha virt. eigenvalues --   -0.00052   0.06662   0.11725   0.12413   0.12434
 Alpha virt. eigenvalues --    0.14905   0.15784   0.16804   0.17102   0.18906
 Alpha virt. eigenvalues --    0.20029   0.20783   0.21575   0.25660   0.27613

 Mulliken charges:
               1
     1  C   -0.096409
     2  N    0.098510
     3  O   -0.508376
     4  C    0.254992
     5  C   -0.320584
     6  C   -0.320538
     7  N   -0.610926
     8  H    0.121631
     9  H    0.138200
    10  H    0.102983
    11  H    0.155128
    12  H    0.108649
    13  H    0.102969
    14  H    0.155130
    15  H    0.108606
    16  H    0.255012
    17  H    0.255024
 Sum of Mulliken charges =  -0.00000

 Dipole moment (field-independent basis, Debye):
    X=              3.4014    Y=              2.5052    Z=             -0.0012  Tot=              4.2244
 Quadrupole moment (field-independent basis, Debye-Ang):
   XX=            -41.5907   YY=            -44.7519   ZZ=            -41.6446
   XY=             -2.3020   XZ=              0.0001   YZ=             -0.0028

  Exact polarizability:  66.020  -4.641  68.382   0.002  -0.003  49.292
 Approx polarizability:  87.069  -5.697 126.747   0.004  -0.009  66.152

                      1                      2                      3
                      A                      A                      A
 Frequencies --     53.6426               147.9528               249.4062
 Red. masses --      2.1849                 1.4446                 1.1110
 Frc consts  --      0.0037                 0.0186                 0.0407
 IR Inten    --      0.0519                21.2211                 2.4414

                      4                      5                      6
                      A                      A                      A
 Frequencies --    285.0962               295.7308               311.7251
 Red. masses --      1.0631                 2.2531                 2.7738
 Frc consts  --      0.0509                 0.1161                 0.1588
 IR Inten    --      2.1632                 4.1842                 5.2338

                      7                      8                      9
                      A                      A                      A
 Frequencies --    365.4925               409.2264               431.1098
 Red. masses --      2.8882                 3.9001                 2.3940
 Frc consts  --      0.2273                 0.3848                 0.2622
 IR Inten    --      8.8722                 1.9978                 0.0372

                     10                     11                     12
                      A                      A                      A
 Frequencies --    516.6605               550.7745               652.0073
 Red. masses --      3.3140                 2.3268                 2.2000
 Frc consts  --      0.5212                 0.4159                 0.5510
 IR Inten    --      7.2352                 8.9477                 2.1138

                     13                     14                     15
                      A                      A                      A
 Frequencies --    655.6529               715.9951               743.4385
 Red. masses --      1.7043                 2.9378                 1.3020
 Frc consts  --      0.4317                 0.8874                 0.4240
 IR Inten    --     97.7028                31.8087                 6.0360

                     16                     17                     18
                      A                      A                      A
 Frequencies --    813.4852               875.3557               951.3660
 Red. masses --      1.4763                 2.2330                 1.5437
 Frc consts  --      0.5756                 1.0081                 0.8232
 IR Inten    --     49.9730                17.7574                 0.1489

                     19                     20                     21
                      A                      A                      A
 Frequencies --   1016.9640              1018.5055              1091.5555
 Red. masses --      1.2756                 1.7213                 1.4820
 Frc consts  --      0.7773                 1.0520                 1.0404
 IR Inten    --      0.7859                 1.6637                 0.8915

                     22                     23                     24
                      A                      A                      A
 Frequencies --   1091.8303              1190.7366              1288.7899
 Red. masses --      2.0538                 1.9946                 3.1656
 Frc consts  --      1.4425                 1.6662                 3.0980
 IR Inten    --     40.7737                48.8266                49.7410

                     25                     26                     27
                      A                      A                      A
 Frequencies --   1322.6400              1350.1681              1402.4694
 Red. masses --      2.4433                 1.8349                 1.3804
 Frc consts  --      2.5183                 1.9707                 1.5997
 IR Inten    --     28.3692                 5.6299                20.1051

                     28                     29                     30
                      A                      A                      A
 Frequencies --   1412.4218              1437.6205              1487.8577
 Red. masses --      1.2427                 1.4606                 1.0483
 Frc consts  --      1.4606                 1.7785                 1.3673
 IR Inten    --     22.8941                18.1568                 0.0597

                     31                     32                     33
                      A                      A                      A
 Frequencies --   1509.2575              1514.6162              1533.6906
 Red. masses --      1.0707                 1.0486                 1.0501
 Frc consts  --      1.4369                 1.4173                 1.4553
 IR Inten    --      8.1326                 1.6620                 7.0431

                     34                     35                     36
                      A                      A                      A
 Frequencies --   1643.6162              1670.9784              3049.8965
 Red. masses --      4.4516                 1.2165                 1.0383
 Frc consts  --      7.0855                 2.0013                 5.6906
 IR Inten    --    123.6307                18.3532                25.4955

                     37                     38                     39
                      A                      A                      A
 Frequencies --   3053.5891              3119.5730              3123.2311
 Red. masses --      1.0396                 1.1027                 1.1015
 Frc consts  --      5.7116                 6.3227                 6.3307
 IR Inten    --     11.5118                11.5601                36.9666

                     40                     41                     42
                      A                      A                      A
 Frequencies --   3174.8547              3177.9446              3210.9343
 Red. masses --      1.0997                 1.0994                 1.0511
 Frc consts  --      6.5312                 6.5416                 6.3850
 IR Inten    --      0.1374                 4.0256                 6.2339

                     43                     44                     45
                      A                      A                      A
 Frequencies --   3348.7973              3557.0418              3651.8769
 Red. masses --      1.1235                 1.0486                 1.0969
 Frc consts  --      7.4231                 7.8172                 8.6185
 IR Inten    --      1.5842                 4.2596                 8.1324

 - Thermochemistry -
 -------------------
 Temperature   298.150 Kelvin.  Pressure   1.00000 Atm.
 Atom     1 has atomic number  6 and mass  12.00000

 Molecular mass:   102.07931 amu.
 Principal axes and moments of inertia in atomic units:
                           1         2         3
     Eigenvalues --   535.89072 732.82278 866.37310
           X            0.99575  -0.09214   0.00001
           Y            0.09214   0.99575   0.00001
           Z           -0.00001  -0.00001   1.00000
 This molecule is an asymmetric top.
 Rotational symmetry number  1.
 Warning -- assumption of classical behavior for rotation
           may cause significant error
 Rotational temperatures (Kelvin)      0.16163     0.11819     0.09997
 Rotational constants (GHZ):           3.36774     2.46273     2.08310
 Zero-point vibrational energy     385649.6 (Joules/Mol)
                                   92.17246 (Kcal/Mol)
 Warning -- explicit consideration of  11 degrees of freedom as
           vibrations may cause significant error
 Vibrational temperatures:     77.18   212.87   358.84   410.19   425.49
          (Kelvin)            448.50   525.86   588.78   620.27   743.36
                              792.44   938.09   943.34  1030.16  1069.64
                             1170.42  1259.44  1368.80  1463.18  1465.40
                             1570.50  1570.90  1713.20  1854.28  1902.98
                             1942.59  2017.84  2032.16  2068.41  2140.69
                             2171.48  2179.19  2206.64  2364.79  2404.16
                             4388.12  4393.43  4488.36  4493.63  4567.90
                             4572.35  4619.81  4818.17  5117.78  5254.23

 Zero-point correction=                           0.146886 (Hartree/Particle)
 Thermal correction to Energy=                    0.155137
 Thermal correction to Enthalpy=                  0.156081
 Thermal correction to Gibbs Free Energy=         0.114828
 Sum of electronic and zero-point Energies=           -342.965679
 Sum of electronic and thermal Energies=              -342.957428
 Sum of electronic and thermal Enthalpies=            -342.956484
 Sum of electronic and thermal Free Energies=         -342.997737

                     E (Thermal)             CV                S
                      KCal/Mol        Cal/Mol-Kelvin    Cal/Mol-Kelvin
 Total                   97.350             30.965             86.825
 Electronic               0.000              0.000              0.000
 Translational            0.889              2.981             39.779
 Rotational               0.889              2.981             27.322
 Vibrational             95.572             25.003             19.723
 Vibration     1          0.596              1.976              4.678
 Vibration     2          0.617              1.905              2.698
 Vibration     3          0.662              1.764              1.735
 Vibration     4          0.683              1.701              1.503
 Vibration     5          0.690              1.682              1.441
 Vibration     6          0.700              1.651              1.353
 Vibration     7          0.739              1.543              1.099
 Vibration     8          0.774              1.450              0.929
 Vibration     9          0.792              1.402              0.855
 Vibration    10          0.872              1.213              0.618
 Vibration    11          0.906              1.138              0.543

 Normal termination of Gaussian 09 at Thu Sep  8 15:22:35 2022.
