 Gaussian 09, Revision E.01,
 Gaussian 09:  ES64L-G09RevE.01 30-Nov-2015

 --------------------------------
 #P OPT=calcfc Freq B3LYP/6-31G**
 --------------------------------

 --------
 Frag_356
 --------
 Symbolic Z-matrix:
 Charge =  0 Multiplicity = 1

 SCF Done:  E(RB3LYP) =  -264.526649885     A.U. after   14 cycles
 SCF Done:  E(RB3LYP) =  -264.549993394     A.U. after   14 cycles
 SCF Done:  E(RB3LYP) =  -264.550011386     A.U. after   12 cycles
 SCF Done:  E(RB3LYP) =  -264.434938281     A.U. after   14 cycles
 SCF Done:  E(RB3LYP) =  -264.469791095     A.U. after   11 cycles
 SCF Done:  E(RB3LYP) =  -264.497783008     A.U. after   11 cycles
 SCF Done:  E(RB3LYP) =  -264.519471715     A.U. after   11 cycles
 SCF Done:  E(RB3LYP) =  -264.535311226     A.U. after   11 cycles
 SCF Done:  E(RB3LYP) =  -264.545635870     A.U. after   11 cycles
 SCF Done:  E(RB3LYP) =  -264.550505174     A.U. after   11 cycles
 SCF Done:  E(RB3LYP) =  -264.551174822     A.U. after    7 cycles
 SCF Done:  E(RB3LYP) =  -264.550913517     A.U. after   12 cycles
 SCF Done:  E(RB3LYP) =  -264.551460184     A.U. after    8 cycles
 SCF Done:  E(RB3LYP) =  -264.551563434     A.U. after   11 cycles
 SCF Done:  E(RB3LYP) =  -264.551120952     A.U. after   13 cycles
 SCF Done:  E(RB3LYP) =  -264.551576012     A.U. after    9 cycles
 SCF Done:  E(RB3LYP) =  -264.551584506     A.U. after    9 cycles
 SCF Done:  E(RB3LYP) =  -264.551585011     A.U. after    8 cycles
 SCF Done:  E(RB3LYP) =  -264.551585065     A.U. after    7 cycles
 Optimization completed.
    -- Stationary point found.
 Normal termination of Gaussian 09 at Fri Sep 10 17:42:42 2021.

 ----------------------------------------------------------------------
 #P Geom=AllCheck Guess=TCheck SCRF=Check GenChk RB3LYP/6-31G(d,p) Freq
 ----------------------------------------------------------------------

 Structure from the checkpoint file:  "/public/home/users/caep010/.cache/gau_scr/Gau-122042.chk"
 --------
 Frag_356
 --------
 Charge =  0 Multiplicity = 1

                         Standard orientation:
 ---------------------------------------------------------------------
 Center     Atomic      Atomic             Coordinates (Angstroms)
 Number     Number       Type             X           Y           Z
 ---------------------------------------------------------------------
      1          6           0        1.858706   -0.075641    0.003580
      2          8           0        0.578312   -0.713363   -0.014967
      3          6           0       -0.493291    0.116132    0.001096
      4          7           0       -0.357826    1.385414   -0.011788
      5          7           0       -1.652589   -0.642212    0.085370
      6          1           0        1.970488    0.544112    0.896891
      7          1           0        2.587776   -0.887178    0.004626
      8          1           0        1.990283    0.559028   -0.876569
      9          1           0       -1.263341    1.851431    0.023969
     10          1           0       -1.545460   -1.606160   -0.199773
     11          1           0       -2.485823   -0.199691   -0.272540
 ---------------------------------------------------------------------

 SCF Done:  E(RB3LYP) =  -264.551585065     A.U. after    1 cycles

 The electronic state is 1-A.
 Alpha  occ. eigenvalues --  -19.17523 -14.34880 -14.28442 -10.29777 -10.22664
 Alpha  occ. eigenvalues --   -1.07419  -0.92099  -0.84772  -0.70936  -0.57901
 Alpha  occ. eigenvalues --   -0.52831  -0.52190  -0.46360  -0.45992  -0.42034
 Alpha  occ. eigenvalues --   -0.37743  -0.34269  -0.28025  -0.26507  -0.23650
 Alpha virt. eigenvalues --    0.05932   0.08018   0.12338   0.13100   0.15118
 Alpha virt. eigenvalues --    0.16096   0.17216   0.18704   0.27809   0.31653
 Alpha virt. eigenvalues --    0.44386   0.53959   0.54621   0.57351   0.57668

 Mulliken charges:
               1
     1  C   -0.060311
     2  O   -0.481536
     3  C    0.653663
     4  N   -0.596832
     5  N   -0.625771
     6  H    0.128241
     7  H    0.108844
     8  H    0.126434
     9  H    0.213048
    10  H    0.272357
    11  H    0.261864
 Sum of Mulliken charges =  -0.00000

 Dipole moment (field-independent basis, Debye):
    X=             -1.3241    Y=             -1.2552    Z=             -0.9231  Tot=              2.0447
 Quadrupole moment (field-independent basis, Debye-Ang):
   XX=            -21.1669   YY=            -31.3270   ZZ=            -31.2922
   XY=             -0.6938   XZ=              2.3221   YZ=              1.0471

  Exact polarizability:  47.036  -0.776  43.396   0.366   0.097  23.233
 Approx polarizability:  57.204   0.614  69.246  -0.131  -0.531  31.836

                      1                      2                      3
                      A                      A                      A
 Frequencies --    142.1496               177.6848               312.4828
 Red. masses --      1.9285                 1.4181                 2.9092
 Frc consts  --      0.0230                 0.0264                 0.1674
 IR Inten    --     11.8264                 8.9903                20.7803

                      4                      5                      6
                      A                      A                      A
 Frequencies --    357.7842               476.5907               541.1618
 Red. masses --      1.0640                 2.8245                 1.3224
 Frc consts  --      0.0802                 0.3780                 0.2282
 IR Inten    --     19.1882                20.2561               238.9362

                      7                      8                      9
                      A                      A                      A
 Frequencies --    636.9239               729.4426               780.8762
 Red. masses --      3.3153                 9.7117                 1.1579
 Frc consts  --      0.7924                 3.0446                 0.4160
 IR Inten    --      7.1027                40.9630                69.7027

                     10                     11                     12
                      A                      A                      A
 Frequencies --    896.7166              1081.0648              1111.1388
 Red. masses --      3.6216                 3.1836                 1.2782
 Frc consts  --      1.7158                 2.1922                 0.9298
 IR Inten    --     33.8852                 6.1298               112.1560

                     13                     14                     15
                      A                      A                      A
 Frequencies --   1152.3707              1183.5281              1221.3360
 Red. masses --      2.5395                 1.2714                 1.5358
 Frc consts  --      1.9869                 1.0493                 1.3497
 IR Inten    --     97.3389                 0.6752                19.1249

                     16                     17                     18
                      A                      A                      A
 Frequencies --   1421.7999              1489.6260              1494.7792
 Red. masses --      1.9809                 1.0547                 1.4099
 Frc consts  --      2.3593                 1.3789                 1.8561
 IR Inten    --    200.3868                 6.5994                70.2215

                     19                     20                     21
                      A                      A                      A
 Frequencies --   1515.2717              1642.7712              1752.3713
 Red. masses --      1.0579                 1.1964                 6.9802
 Frc consts  --      1.4311                 1.9023                12.6291
 IR Inten    --     10.4662               105.3983               297.3098

                     22                     23                     24
                      A                      A                      A
 Frequencies --   3059.5975              3136.0433              3161.0578
 Red. masses --      1.0291                 1.1066                 1.1074
 Frc consts  --      5.6760                 6.4121                 6.5195
 IR Inten    --     35.4201                24.7622                23.1844

                     25                     26                     27
                      A                      A                      A
 Frequencies --   3519.8632              3582.6601              3702.0393
 Red. masses --      1.0758                 1.0475                 1.0997
 Frc consts  --      7.8526                 7.9220                 8.8802
 IR Inten    --      3.8943                21.0718                22.2040

 - Thermochemistry -
 -------------------
 Temperature   298.150 Kelvin.  Pressure   1.00000 Atm.
 Atom     1 has atomic number  6 and mass  12.00000

 Molecular mass:    74.04801 amu.
 Principal axes and moments of inertia in atomic units:
                           1         2         3
     Eigenvalues --   179.68381 415.83654 582.70710
           X            0.99993   0.00781   0.00869
           Y           -0.00788   0.99993   0.00885
           Z           -0.00862  -0.00892   0.99992
 This molecule is an asymmetric top.
 Rotational symmetry number  1.
 Rotational temperatures (Kelvin)      0.48203     0.20829     0.14864
 Rotational constants (GHZ):          10.04398     4.34003     3.09717
 Zero-point vibrational energy     240922.7 (Joules/Mol)
                                   57.58191 (Kcal/Mol)
 Warning -- explicit consideration of   6 degrees of freedom as
           vibrations may cause significant error
 Vibrational temperatures:    204.52   255.65   449.59   514.77   685.71
          (Kelvin)            778.61   916.39  1049.50  1123.51  1290.17
                             1555.41  1598.68  1658.00  1702.83  1757.23
                             2045.65  2143.24  2150.65  2180.14  2363.58
                             2521.27  4402.07  4512.06  4548.05  5064.29
                             5154.64  5326.40

 Zero-point correction=                           0.091763 (Hartree/Particle)
 Thermal correction to Energy=                    0.097555
 Thermal correction to Enthalpy=                  0.098499
 Thermal correction to Gibbs Free Energy=         0.063177
 Sum of electronic and zero-point Energies=           -264.459822
 Sum of electronic and thermal Energies=              -264.454030
 Sum of electronic and thermal Enthalpies=            -264.453086
 Sum of electronic and thermal Free Energies=         -264.488408

                     E (Thermal)             CV                S
                      KCal/Mol        Cal/Mol-Kelvin    Cal/Mol-Kelvin
 Total                   61.217             19.940             74.342
 Electronic               0.000              0.000              0.000
 Translational            0.889              2.981             38.822
 Rotational               0.889              2.981             25.280
 Vibrational             59.439             13.978             10.240
 Vibration     1          0.616              1.911              2.775
 Vibration     2          0.628              1.870              2.353
 Vibration     3          0.701              1.650              1.349
 Vibration     4          0.733              1.559              1.132
 Vibration     5          0.833              1.302              0.719
 Vibration     6          0.896              1.159              0.563

 Optimization completed.
    -- Stationary point found.
 Normal termination of Gaussian 09 at Fri Sep 10 17:42:50 2021.
