 Gaussian 09, Revision E.01,
 Gaussian 09:  ES64L-G09RevE.01 30-Nov-2015

 ----------------------------
 #P OPT Freq B3LYP/6-31G(d,p)
 ----------------------------

 ---------
 Frag_1102
 ---------
 Symbolic Z-matrix:
 Charge =  0 Multiplicity = 1

 SCF Done:  E(RB3LYP) =  -340.984353733     A.U. after   13 cycles
 SCF Done:  E(RB3LYP) =  -340.984422172     A.U. after   10 cycles
 SCF Done:  E(RB3LYP) =  -340.984427723     A.U. after    8 cycles
 SCF Done:  E(RB3LYP) =  -340.984428512     A.U. after    7 cycles
 Optimization completed.
    -- Stationary point found.
 Normal termination of Gaussian 09 at Thu Sep  8 14:51:11 2022.

 ----------------------------------------------------------------------
 #P Geom=AllCheck Guess=TCheck SCRF=Check GenChk RB3LYP/6-31G(d,p) Freq
 ----------------------------------------------------------------------

 Structure from the checkpoint file:  "B3LYP6-31Gdp.Frag_1102.chk"
 ---------
 Frag_1102
 ---------
 Charge =  0 Multiplicity = 1

                         Standard orientation:
 ---------------------------------------------------------------------
 Center     Atomic      Atomic             Coordinates (Angstroms)
 Number     Number       Type             X           Y           Z
 ---------------------------------------------------------------------
      1          6           0        2.048649    0.067829   -0.006158
      2          7           0        0.788714    0.809736   -0.096487
      3          6           0       -0.414106    0.002980   -0.017694
      4          7           0       -1.591882    0.792848   -0.284203
      5          8           0       -0.626346   -0.574393    1.270871
      6          8           0       -0.281134   -1.026017   -0.968729
      7          1           0        2.876739    0.781613   -0.009178
      8          1           0        2.149033   -0.575949   -0.881440
      9          1           0        2.136687   -0.555587    0.898389
     10          1           0        0.737155    1.474163    0.672500
     11          1           0       -2.048676    1.046230    0.584686
     12          1           0       -1.337480    1.625522   -0.805649
     13          1           0       -0.255787   -1.465175    1.220325
     14          1           0       -1.182920   -1.170484   -1.288826
 ---------------------------------------------------------------------

 SCF Done:  E(RB3LYP) =  -340.984428512     A.U. after    1 cycles

 The electronic state is 1-A.
 Alpha  occ. eigenvalues --  -19.14802 -19.14357 -14.32093 -14.31857 -10.33241
 Alpha  occ. eigenvalues --  -10.19766  -1.07510  -0.98991  -0.90106  -0.86151
 Alpha  occ. eigenvalues --   -0.67743  -0.60777  -0.56240  -0.50810  -0.48093
 Alpha  occ. eigenvalues --   -0.45428  -0.43563  -0.41752  -0.38988  -0.37461
 Alpha  occ. eigenvalues --   -0.35673  -0.30866  -0.28625  -0.25946  -0.23003
 Alpha virt. eigenvalues --    0.07113   0.10703   0.11936   0.12920   0.14869
 Alpha virt. eigenvalues --    0.15487   0.17576   0.19081   0.21383   0.26031
 Alpha virt. eigenvalues --    0.26852   0.29076   0.30639   0.54190   0.54802

 Mulliken charges:
               1
     1  C   -0.182238
     2  N   -0.488271
     3  C    0.684088
     4  N   -0.631062
     5  O   -0.550890
     6  O   -0.542052
     7  H    0.104269
     8  H    0.140794
     9  H    0.081860
    10  H    0.236948
    11  H    0.260786
    12  H    0.256426
    13  H    0.311114
    14  H    0.318228
 Sum of Mulliken charges =  -0.00000

 Dipole moment (field-independent basis, Debye):
    X=             -0.0404    Y=              0.4437    Z=              0.7224  Tot=              0.8488
 Quadrupole moment (field-independent basis, Debye-Ang):
   XX=            -35.0127   YY=            -31.5935   ZZ=            -38.1941
   XY=             -0.7231   XZ=              2.0692   YZ=              0.7834

  Exact polarizability:  48.017  -2.060  42.213   0.625   0.399  38.415
 Approx polarizability:  58.760  -3.195  58.246  -0.612   1.075  54.481

                      1                      2                      3
                      A                      A                      A
 Frequencies --    108.4751               116.8068               204.0232
 Red. masses --      1.7104                 1.5635                 1.1835
 Frc consts  --      0.0119                 0.0126                 0.0290
 IR Inten    --     47.1552                22.8763                 1.4821

                      4                      5                      6
                      A                      A                      A
 Frequencies --    267.9637               279.0361               381.2023
 Red. masses --      2.0436                 1.3149                 1.8876
 Frc consts  --      0.0865                 0.0603                 0.1616
 IR Inten    --      4.1846                32.1757                24.0463

                      7                      8                      9
                      A                      A                      A
 Frequencies --    426.5280               466.6798               530.2724
 Red. masses --      2.8663                 1.4018                 3.2252
 Frc consts  --      0.3072                 0.1799                 0.5343
 IR Inten    --      4.3124                89.3456                38.8796

                     10                     11                     12
                      A                      A                      A
 Frequencies --    553.8208               617.5134               765.0930
 Red. masses --      3.9521                 3.9396                 2.1169
 Frc consts  --      0.7142                 0.8851                 0.7301
 IR Inten    --      2.5408                13.9144               123.2976

                     13                     14                     15
                      A                      A                      A
 Frequencies --    830.6112               853.6619               953.1973
 Red. masses --      2.1400                 1.4909                 2.6962
 Frc consts  --      0.8699                 0.6401                 1.4434
 IR Inten    --     97.8494               111.8835               148.0291

                     16                     17                     18
                      A                      A                      A
 Frequencies --   1043.7105              1080.2410              1121.0628
 Red. masses --      1.9865                 1.8859                 3.2310
 Frc consts  --      1.2750                 1.2966                 2.3924
 IR Inten    --    160.4147                86.2011               124.7018

                     19                     20                     21
                      A                      A                      A
 Frequencies --   1164.8727              1199.6971              1300.3441
 Red. masses --      1.4655                 1.4906                 1.6410
 Frc consts  --      1.1717                 1.2641                 1.6349
 IR Inten    --     14.7009                17.5516                85.8663

                     22                     23                     24
                      A                      A                      A
 Frequencies --   1364.0209              1393.8955              1463.8036
 Red. masses --      1.8097                 1.7440                 1.2078
 Frc consts  --      1.9838                 1.9964                 1.5248
 IR Inten    --     54.7134               129.0328                 7.5559

                     25                     26                     27
                      A                      A                      A
 Frequencies --   1501.1098              1511.9338              1537.0372
 Red. masses --      1.2206                 1.1338                 1.0705
 Frc consts  --      1.6205                 1.5270                 1.4901
 IR Inten    --     58.2696                 8.8454                17.9172

                     28                     29                     30
                      A                      A                      A
 Frequencies --   1637.1540              2984.1226              3098.8908
 Red. masses --      1.1400                 1.0568                 1.0793
 Frc consts  --      1.8003                 5.5447                 6.1066
 IR Inten    --     73.6531                74.7240                34.6903

                     31                     32                     33
                      A                      A                      A
 Frequencies --   3151.5247              3520.4908              3533.5983
 Red. masses --      1.1016                 1.0737                 1.0482
 Frc consts  --      6.4462                 7.8402                 7.7111
 IR Inten    --     15.0957                 0.7372                 5.3435

                     34                     35                     36
                      A                      A                      A
 Frequencies --   3639.2320              3810.1320              3833.9536
 Red. masses --      1.0956                 1.0652                 1.0657
 Frc consts  --      8.5494                 9.1108                 9.2292
 IR Inten    --     11.7459                51.8843                36.5035

 - Thermochemistry -
 -------------------
 Temperature   298.150 Kelvin.  Pressure   1.00000 Atm.
 Atom     1 has atomic number  6 and mass  12.00000

 Molecular mass:    92.05858 amu.
 Principal axes and moments of inertia in atomic units:
                           1         2         3
     Eigenvalues --   354.15239 635.91332 645.08032
           X            0.99961  -0.02011   0.01951
           Y            0.02018   0.99979  -0.00334
           Z           -0.01944   0.00373   0.99980
 This molecule is an asymmetric top.
 Rotational symmetry number  1.
 Rotational temperatures (Kelvin)      0.24457     0.13620     0.13427
 Rotational constants (GHZ):           5.09595     2.83803     2.79770
 Zero-point vibrational energy     312498.8 (Joules/Mol)
                                   74.68900 (Kcal/Mol)
 Warning -- explicit consideration of  11 degrees of freedom as
           vibrations may cause significant error
 Vibrational temperatures:    156.07   168.06   293.54   385.54   401.47
          (Kelvin)            548.46   613.68   671.45   762.94   796.82
                              888.46  1100.80  1195.06  1228.23  1371.44
                             1501.66  1554.22  1612.96  1675.99  1726.09
                             1870.90  1962.52  2005.50  2106.08  2159.76
                             2175.33  2211.45  2355.50  4293.48  4458.61
                             4534.34  5065.19  5084.05  5236.04  5481.92
                             5516.20

 Zero-point correction=                           0.119024 (Hartree/Particle)
 Thermal correction to Energy=                    0.126579
 Thermal correction to Enthalpy=                  0.127523
 Thermal correction to Gibbs Free Energy=         0.088110
 Sum of electronic and zero-point Energies=           -340.865404
 Sum of electronic and thermal Energies=              -340.857850
 Sum of electronic and thermal Enthalpies=            -340.856905
 Sum of electronic and thermal Free Energies=         -340.896318

                     E (Thermal)             CV                S
                      KCal/Mol        Cal/Mol-Kelvin    Cal/Mol-Kelvin
 Total                   79.429             27.028             82.951
 Electronic               0.000              0.000              0.000
 Translational            0.889              2.981             39.471
 Rotational               0.889              2.981             26.477
 Vibrational             77.652             21.066             17.003
 Vibration     1          0.606              1.942              3.296
 Vibration     2          0.608              1.935              3.153
 Vibration     3          0.640              1.834              2.097
 Vibration     4          0.673              1.732              1.609
 Vibration     5          0.679              1.712              1.540
 Vibration     6          0.751              1.510              1.034
 Vibration     7          0.788              1.413              0.870
 Vibration     8          0.824              1.324              0.747
 Vibration     9          0.885              1.183              0.587
 Vibration    10          0.909              1.131              0.536
 Vibration    11          0.977              0.995              0.421

 Normal termination of Gaussian 09 at Thu Sep  8 14:51:22 2022.
