 Gaussian 09, Revision E.01,
 Gaussian 09:  ES64L-G09RevE.01 30-Nov-2015

 ----------------------------
 #P OPT Freq B3LYP/6-31G(d,p)
 ----------------------------

 --------
 Frag_663
 --------
 Symbolic Z-matrix:
 Charge =  0 Multiplicity = 1

 SCF Done:  E(RB3LYP) =  -305.062021726     A.U. after   12 cycles
 SCF Done:  E(RB3LYP) =  -305.062067933     A.U. after   10 cycles
 SCF Done:  E(RB3LYP) =  -305.062072716     A.U. after    8 cycles
 SCF Done:  E(RB3LYP) =  -305.062075122     A.U. after    8 cycles
 SCF Done:  E(RB3LYP) =  -305.062076928     A.U. after    8 cycles
 SCF Done:  E(RB3LYP) =  -305.062077529     A.U. after    7 cycles
 SCF Done:  E(RB3LYP) =  -305.062077935     A.U. after    7 cycles
 SCF Done:  E(RB3LYP) =  -305.062077901     A.U. after    6 cycles
 SCF Done:  E(RB3LYP) =  -305.062077905     A.U. after    6 cycles
 SCF Done:  E(RB3LYP) =  -305.062077897     A.U. after    6 cycles
 Optimization completed.
    -- Stationary point found.
 Normal termination of Gaussian 09 at Thu Sep  8 14:57:42 2022.

 ----------------------------------------------------------------------
 #P Geom=AllCheck Guess=TCheck SCRF=Check GenChk RB3LYP/6-31G(d,p) Freq
 ----------------------------------------------------------------------

 Structure from the checkpoint file:  "B3LYP6-31Gdp.Frag_663.chk"
 --------
 Frag_663
 --------
 Charge =  0 Multiplicity = 1

                         Standard orientation:
 ---------------------------------------------------------------------
 Center     Atomic      Atomic             Coordinates (Angstroms)
 Number     Number       Type             X           Y           Z
 ---------------------------------------------------------------------
      1          6           0        1.145212    1.115248    0.718381
      2          6           0        0.716336    0.190798   -0.424208
      3          8           0        1.556702   -0.958694   -0.490258
      4          6           0       -0.731077   -0.328292   -0.299917
      5          7           0       -1.649668    0.740226   -0.723353
      6          7           0       -0.962138   -0.940219    1.009977
      7          1           0        2.162060    1.487016    0.547284
      8          1           0        0.496891    1.995330    0.801875
      9          1           0        1.140818    0.570778    1.666763
     10          1           0        0.753522    0.747727   -1.372078
     11          1           0        2.464695   -0.648017   -0.599600
     12          1           0       -0.819606   -1.131459   -1.039042
     13          1           0       -2.601796    0.380758   -0.736858
     14          1           0       -1.646266    1.492873   -0.035906
     15          1           0       -1.075065   -0.220474    1.720988
     16          1           0       -1.829050   -1.471547    0.996737
 ---------------------------------------------------------------------

 SCF Done:  E(RB3LYP) =  -305.062077897     A.U. after    1 cycles

 The electronic state is 1-A.
 Alpha  occ. eigenvalues --  -19.13054 -14.31150 -14.30789 -10.22981 -10.22580
 Alpha  occ. eigenvalues --  -10.17647  -1.00628  -0.90873  -0.83001  -0.74380
 Alpha  occ. eigenvalues --   -0.66391  -0.56498  -0.51137  -0.50452  -0.45522
 Alpha  occ. eigenvalues --   -0.44915  -0.42185  -0.41135  -0.38963  -0.36386
 Alpha  occ. eigenvalues --   -0.34613  -0.31131  -0.27713  -0.25410  -0.21747
 Alpha virt. eigenvalues --    0.06252   0.08613   0.11035   0.12130   0.14938
 Alpha virt. eigenvalues --    0.15862   0.17157   0.18299   0.19064   0.20533
 Alpha virt. eigenvalues --    0.22613   0.24507   0.26162   0.28227   0.31301

 Mulliken charges:
               1
     1  C   -0.352279
     2  C    0.209117
     3  O   -0.539826
     4  C    0.109930
     5  N   -0.585318
     6  N   -0.568999
     7  H    0.096454
     8  H    0.092478
     9  H    0.128870
    10  H    0.088820
    11  H    0.298544
    12  H    0.119490
    13  H    0.228187
    14  H    0.223326
    15  H    0.221611
    16  H    0.229594
 Sum of Mulliken charges =  -0.00000

 Dipole moment (field-independent basis, Debye):
    X=             -0.9707    Y=              1.6499    Z=              0.9766  Tot=              2.1490
 Quadrupole moment (field-independent basis, Debye-Ang):
   XX=            -28.2458   YY=            -40.8465   ZZ=            -39.7349
   XY=              3.3079   XZ=             -3.6255   YZ=              2.9490

  Exact polarizability:  56.264   1.638  49.512   0.124   0.954  46.039
 Approx polarizability:  70.507   0.655  70.022   0.314   1.239  63.753

                      1                      2                      3
                      A                      A                      A
 Frequencies --     72.0180               203.8147               238.5062
 Red. masses --      3.5997                 1.0443                 1.3064
 Frc consts  --      0.0110                 0.0256                 0.0438
 IR Inten    --      1.7847                11.6186                27.9380

                      4                      5                      6
                      A                      A                      A
 Frequencies --    249.5921               285.3843               288.8151
 Red. masses --      1.1911                 3.3045                 1.4092
 Frc consts  --      0.0437                 0.1586                 0.0693
 IR Inten    --     78.4147                 9.4359                 1.3991

                      7                      8                      9
                      A                      A                      A
 Frequencies --    307.5462               388.1925               449.4617
 Red. masses --      1.2690                 3.7437                 2.3138
 Frc consts  --      0.0707                 0.3324                 0.2754
 IR Inten    --     90.6115                 2.2822                21.9121

                     10                     11                     12
                      A                      A                      A
 Frequencies --    539.4911               608.5070               780.8622
 Red. masses --      3.0348                 2.2641                 1.8916
 Frc consts  --      0.5204                 0.4939                 0.6796
 IR Inten    --     16.5545                 9.7630               171.6097

                     13                     14                     15
                      A                      A                      A
 Frequencies --    799.7887               865.5441               927.4960
 Red. masses --      1.5671                 2.2814                 1.8759
 Frc consts  --      0.5906                 1.0070                 0.9508
 IR Inten    --    183.4367                22.6936                18.3501

                     16                     17                     18
                      A                      A                      A
 Frequencies --   1015.3710              1044.1771              1079.3199
 Red. masses --      1.5872                 2.0740                 1.8618
 Frc consts  --      0.9641                 1.3323                 1.2778
 IR Inten    --     19.0003                 5.1914                51.3819

                     19                     20                     21
                      A                      A                      A
 Frequencies --   1099.5133              1156.9284              1163.7753
 Red. masses --      1.4965                 1.9204                 2.0051
 Frc consts  --      1.0659                 1.5144                 1.6000
 IR Inten    --     73.2230                18.4907                18.6165

                     22                     23                     24
                      A                      A                      A
 Frequencies --   1251.9572              1268.4783              1385.8694
 Red. masses --      1.5135                 1.2634                 1.2406
 Frc consts  --      1.3977                 1.1977                 1.4039
 IR Inten    --     13.2102                29.2802                 2.5405

                     25                     26                     27
                      A                      A                      A
 Frequencies --   1393.8649              1414.0958              1430.2391
 Red. masses --      1.2428                 1.2440                 1.3855
 Frc consts  --      1.4226                 1.4656                 1.6698
 IR Inten    --      7.8309                10.7471                33.6399

                     28                     29                     30
                      A                      A                      A
 Frequencies --   1450.1310              1508.7369              1521.1733
 Red. masses --      1.5837                 1.0613                 1.0795
 Frc consts  --      1.9622                 1.4233                 1.4717
 IR Inten    --      2.3651                 3.8636                 3.6209

                     31                     32                     33
                      A                      A                      A
 Frequencies --   1658.9279              1673.8232              3010.7010
 Red. masses --      1.1006                 1.0880                 1.0841
 Frc consts  --      1.7846                 1.7960                 5.7898
 IR Inten    --      5.0355                43.9850                45.9160

                     34                     35                     36
                      A                      A                      A
 Frequencies --   3037.7590              3081.9738              3097.2315
 Red. masses --      1.0372                 1.0863                 1.1008
 Frc consts  --      5.6394                 6.0796                 6.2215
 IR Inten    --     19.7394                20.3008                38.8832

                     37                     38                     39
                      A                      A                      A
 Frequencies --   3131.8131              3473.3191              3487.2233
 Red. masses --      1.1017                 1.0497                 1.0491
 Frc consts  --      6.3668                 7.4614                 7.5168
 IR Inten    --     22.6126                 2.1708                 1.5884

                     40                     41                     42
                      A                      A                      A
 Frequencies --   3559.4064              3574.5187              3816.0717
 Red. masses --      1.0915                 1.0926                 1.0663
 Frc consts  --      8.1475                 8.2255                 9.1489
 IR Inten    --      0.5639                 0.2950                 8.9129

 - Thermochemistry -
 -------------------
 Temperature   298.150 Kelvin.  Pressure   1.00000 Atm.
 Atom     1 has atomic number  6 and mass  12.00000

 Molecular mass:    90.07931 amu.
 Principal axes and moments of inertia in atomic units:
                           1         2         3
     Eigenvalues --   396.49911 687.00163 752.80093
           X            0.99869   0.05083   0.00507
           Y           -0.05108   0.99394   0.09734
           Z           -0.00009  -0.09747   0.99524
 This molecule is an asymmetric top.
 Rotational symmetry number  1.
 Rotational temperatures (Kelvin)      0.21845     0.12608     0.11506
 Rotational constants (GHZ):           4.55169     2.62698     2.39737
 Zero-point vibrational energy     375576.1 (Joules/Mol)
                                   89.76484 (Kcal/Mol)
 Warning -- explicit consideration of  11 degrees of freedom as
           vibrations may cause significant error
 Vibrational temperatures:    103.62   293.24   343.16   359.11   410.60
          (Kelvin)            415.54   442.49   558.52   646.67   776.21
                              875.50  1123.49  1150.72  1245.32  1334.46
                             1460.89  1502.34  1552.90  1581.95  1664.56
                             1674.41  1801.28  1825.06  1993.95  2005.46
                             2034.57  2057.79  2086.41  2170.73  2188.63
                             2386.82  2408.26  4331.72  4370.65  4434.27
                             4456.22  4505.97  4997.33  5017.33  5121.19
                             5142.93  5490.47

 Zero-point correction=                           0.143049 (Hartree/Particle)
 Thermal correction to Energy=                    0.150943
 Thermal correction to Enthalpy=                  0.151887
 Thermal correction to Gibbs Free Energy=         0.111773
 Sum of electronic and zero-point Energies=           -304.919029
 Sum of electronic and thermal Energies=              -304.911135
 Sum of electronic and thermal Enthalpies=            -304.910191
 Sum of electronic and thermal Free Energies=         -304.950305

                     E (Thermal)             CV                S
                      KCal/Mol        Cal/Mol-Kelvin    Cal/Mol-Kelvin
 Total                   94.718             28.546             84.426
 Electronic               0.000              0.000              0.000
 Translational            0.889              2.981             39.407
 Rotational               0.889              2.981             26.819
 Vibrational             92.940             22.585             18.200
 Vibration     1          0.598              1.967              4.097
 Vibration     2          0.639              1.834              2.098
 Vibration     3          0.656              1.782              1.814
 Vibration     4          0.662              1.763              1.733
 Vibration     5          0.683              1.701              1.501
 Vibration     6          0.685              1.695              1.481
 Vibration     7          0.697              1.659              1.376
 Vibration     8          0.756              1.495              1.007
 Vibration     9          0.808              1.362              0.797
 Vibration    10          0.895              1.163              0.566
 Vibration    11          0.967              1.014              0.435

 Optimization completed.
    -- Stationary point found.
 Normal termination of Gaussian 09 at Thu Sep  8 14:57:55 2022.
