 Gaussian 09, Revision E.01,
 Gaussian 09:  ES64L-G09RevE.01 30-Nov-2015

 ----------------------------
 #P OPT Freq B3LYP/6-31G(d,p)
 ----------------------------

 --------
 Frag_503
 --------
 Symbolic Z-matrix:
 Charge =  0 Multiplicity = 1

 SCF Done:  E(RB3LYP) =  -327.123921974     A.U. after   14 cycles
 SCF Done:  E(RB3LYP) =  -327.123983212     A.U. after   11 cycles
 SCF Done:  E(RB3LYP) =  -327.123986953     A.U. after    8 cycles
 SCF Done:  E(RB3LYP) =  -327.123989952     A.U. after    8 cycles
 SCF Done:  E(RB3LYP) =  -327.123990121     A.U. after    7 cycles
 SCF Done:  E(RB3LYP) =  -327.123990901     A.U. after    8 cycles
 SCF Done:  E(RB3LYP) =  -327.123991088     A.U. after    7 cycles
 Optimization completed.
    -- Stationary point found.
 Normal termination of Gaussian 09 at Thu Sep  8 15:25:08 2022.

 ----------------------------------------------------------------------
 #P Geom=AllCheck Guess=TCheck SCRF=Check GenChk RB3LYP/6-31G(d,p) Freq
 ----------------------------------------------------------------------

 Structure from the checkpoint file:  "B3LYP6-31Gdp.Frag_503.chk"
 --------
 Frag_503
 --------
 Charge =  0 Multiplicity = 1

                         Standard orientation:
 ---------------------------------------------------------------------
 Center     Atomic      Atomic             Coordinates (Angstroms)
 Number     Number       Type             X           Y           Z
 ---------------------------------------------------------------------
      1          6           0       -1.435874    1.433452    0.107202
      2          6           0       -0.922663    0.204389    0.008459
      3          6           0       -1.798031   -1.022952   -0.039263
      4          6           0        0.595627   -0.033576   -0.036535
      5          6           0        1.103474   -0.537771    1.327542
      6          7           0        1.410729    1.114199   -0.422164
      7          8           0        0.791393   -1.036543   -1.035378
      8          1           0       -2.508367    1.593406    0.165416
      9          1           0       -0.813014    2.321783    0.135490
     10          1           0       -1.630576   -1.573506   -0.969322
     11          1           0       -2.855513   -0.755144    0.031780
     12          1           0       -1.566907   -1.715341    0.778698
     13          1           0        0.914452    0.195017    2.118850
     14          1           0        0.605661   -1.471593    1.595602
     15          1           0        2.181041   -0.721599    1.270538
     16          1           0        0.979141    1.591892   -1.210175
     17          1           0        1.490963    1.784255    0.337504
     18          1           0        1.741673   -1.017468   -1.220630
 ---------------------------------------------------------------------

 SCF Done:  E(RB3LYP) =  -327.123991088     A.U. after    1 cycles

 The electronic state is 1-A.
 Alpha  occ. eigenvalues --  -19.13538 -14.31865 -10.26722 -10.19112 -10.17566
 Alpha  occ. eigenvalues --  -10.17285 -10.17246  -1.02136  -0.87706  -0.78821
 Alpha  occ. eigenvalues --   -0.72262  -0.67782  -0.61884  -0.52452  -0.50707
 Alpha  occ. eigenvalues --   -0.48567  -0.46493  -0.43097  -0.41235  -0.40058
 Alpha  occ. eigenvalues --   -0.38879  -0.37700  -0.36125  -0.35571  -0.32817
 Alpha  occ. eigenvalues --   -0.27494  -0.25093  -0.24371
 Alpha virt. eigenvalues --    0.02199   0.07543   0.11210   0.12067   0.13649
 Alpha virt. eigenvalues --    0.14339   0.15646   0.16673   0.18077   0.18470
 Alpha virt. eigenvalues --    0.19224   0.22690   0.24109   0.24721   0.26911

 Mulliken charges:
               1
     1  C   -0.294951
     2  C    0.172755
     3  C   -0.358252
     4  C    0.321929
     5  C   -0.309317
     6  N   -0.608615
     7  O   -0.548309
     8  H    0.091053
     9  H    0.068031
    10  H    0.142727
    11  H    0.099132
    12  H    0.109987
    13  H    0.099810
    14  H    0.116207
    15  H    0.106966
    16  H    0.244576
    17  H    0.240435
    18  H    0.305836
 Sum of Mulliken charges =  -0.00000

 Dipole moment (field-independent basis, Debye):
    X=              0.2824    Y=              0.9719    Z=              0.8335  Tot=              1.3111
 Quadrupole moment (field-independent basis, Debye-Ang):
   XX=            -42.9233   YY=            -41.8510   ZZ=            -44.4935
   XY=             -0.1497   XZ=              0.0587   YZ=             -0.7755

  Exact polarizability:  68.072  -3.785  71.925  -0.434   1.037  50.117
 Approx polarizability:  88.803  -8.012 108.411  -1.973   4.675  70.960

                      1                      2                      3
                      A                      A                      A
 Frequencies --     67.0681               181.8310               233.1955
 Red. masses --      2.8185                 1.0978                 1.1640
 Frc consts  --      0.0075                 0.0214                 0.0373
 IR Inten    --      0.7642                 0.5096                 1.9988

                      4                      5                      6
                      A                      A                      A
 Frequencies --    248.7008               281.3752               291.4243
 Red. masses --      1.9749                 2.0474                 1.3707
 Frc consts  --      0.0720                 0.0955                 0.0686
 IR Inten    --      5.3189                11.4459                25.3624

                      7                      8                      9
                      A                      A                      A
 Frequencies --    364.2312               376.1007               381.6074
 Red. masses --      2.4245                 1.5761                 2.7250
 Frc consts  --      0.1895                 0.1314                 0.2338
 IR Inten    --     11.6069                35.5335                16.0699

                     10                     11                     12
                      A                      A                      A
 Frequencies --    470.9537               509.8602               543.7525
 Red. masses --      2.1769                 2.3664                 2.6096
 Frc consts  --      0.2845                 0.3625                 0.4546
 IR Inten    --     23.2291                 2.5669                37.7845

                     13                     14                     15
                      A                      A                      A
 Frequencies --    577.1152               706.7735               747.2598
 Red. masses --      2.3521                 3.3599                 1.1723
 Frc consts  --      0.4616                 0.9889                 0.3857
 IR Inten    --     14.7701                 6.2893                 3.5296

                     16                     17                     18
                      A                      A                      A
 Frequencies --    858.8826               910.1986               927.0222
 Red. masses --      1.5731                 2.4644                 1.3458
 Frc consts  --      0.6837                 1.2029                 0.6814
 IR Inten    --    156.5075                36.5052                36.6217

                     19                     20                     21
                      A                      A                      A
 Frequencies --    954.2786               977.6427              1007.6489
 Red. masses --      1.8215                 1.4527                 1.8438
 Frc consts  --      0.9773                 0.8181                 1.1030
 IR Inten    --     12.0863                18.6980                27.1490

                     22                     23                     24
                      A                      A                      A
 Frequencies --   1031.4457              1076.2895              1115.7858
 Red. masses --      1.4085                 1.4797                 1.7164
 Frc consts  --      0.8829                 1.0099                 1.2590
 IR Inten    --      4.9449                12.3738               125.3663

                     25                     26                     27
                      A                      A                      A
 Frequencies --   1219.4082              1258.2896              1316.5621
 Red. masses --      3.4382                 2.0747                 1.7939
 Frc consts  --      3.0122                 1.9354                 1.8320
 IR Inten    --     51.2527                19.4823                13.5493

                     28                     29                     30
                      A                      A                      A
 Frequencies --   1387.3534              1415.4257              1421.5503
 Red. masses --      1.7731                 1.3187                 1.2330
 Frc consts  --      2.0107                 1.5565                 1.4680
 IR Inten    --     49.9995                 6.9835                 3.6589

                     31                     32                     33
                      A                      A                      A
 Frequencies --   1453.2595              1488.9548              1505.9903
 Red. masses --      1.2034                 1.0471                 1.0668
 Frc consts  --      1.4974                 1.3678                 1.4255
 IR Inten    --      2.6313                 5.6293                 5.6527

                     34                     35                     36
                      A                      A                      A
 Frequencies --   1507.1262              1509.5644              1658.0111
 Red. masses --      1.0558                 1.0529                 1.1145
 Frc consts  --      1.4129                 1.4137                 1.8051
 IR Inten    --      1.5318                12.7744                25.3279

                     37                     38                     39
                      A                      A                      A
 Frequencies --   1729.4957              3045.4908              3050.4993
 Red. masses --      5.2398                 1.0381                 1.0368
 Frc consts  --      9.2344                 5.6727                 5.6845
 IR Inten    --      7.6032                20.0596                16.3654

                     40                     41                     42
                      A                      A                      A
 Frequencies --   3107.1648              3121.2448              3134.9196
 Red. masses --      1.0964                 1.1030                 1.1036
 Frc consts  --      6.2364                 6.3313                 6.3903
 IR Inten    --     21.9350                24.8300                17.5757

                     43                     44                     45
                      A                      A                      A
 Frequencies --   3150.8906              3158.4347              3237.9212
 Red. masses --      1.1007                 1.0603                 1.1151
 Frc consts  --      6.4386                 6.2317                 6.8883
 IR Inten    --     17.4162                 9.2306                17.2490

                     46                     47                     48
                      A                      A                      A
 Frequencies --   3498.2046              3593.3710              3790.4886
 Red. masses --      1.0492                 1.0932                 1.0652
 Frc consts  --      7.5649                 8.3165                 9.0168
 IR Inten    --      0.0902                 1.0550                21.1436

 - Thermochemistry -
 -------------------
 Temperature   298.150 Kelvin.  Pressure   1.00000 Atm.
 Atom     1 has atomic number  6 and mass  12.00000

 Molecular mass:   101.08406 amu.
 Principal axes and moments of inertia in atomic units:
                           1         2         3
     Eigenvalues --   548.27020 776.24616 937.90874
           X            0.99936   0.02785   0.02261
           Y           -0.02677   0.99854  -0.04687
           Z           -0.02388   0.04623   0.99865
 This molecule is an asymmetric top.
 Rotational symmetry number  1.
 Warning -- assumption of classical behavior for rotation
           may cause significant error
 Rotational temperatures (Kelvin)      0.15798     0.11158     0.09235
 Rotational constants (GHZ):           3.29170     2.32496     1.92422
 Zero-point vibrational energy     416300.8 (Joules/Mol)
                                   99.49829 (Kcal/Mol)
 Warning -- explicit consideration of  13 degrees of freedom as
           vibrations may cause significant error
 Vibrational temperatures:     96.50   261.61   335.52   357.82   404.84
          (Kelvin)            419.29   524.05   541.12   549.05   677.60
                              733.57   782.34   830.34  1016.89  1075.14
                             1235.74  1309.57  1333.78  1372.99  1406.61
                             1449.78  1484.02  1548.54  1605.36  1754.45
                             1810.40  1894.24  1996.09  2036.48  2045.29
                             2090.91  2142.27  2166.78  2168.42  2171.92
                             2385.51  2488.36  4381.78  4388.98  4470.51
                             4490.77  4510.44  4533.42  4544.28  4658.64
                             5033.13  5170.05  5453.66

 Zero-point correction=                           0.158561 (Hartree/Particle)
 Thermal correction to Energy=                    0.167156
 Thermal correction to Enthalpy=                  0.168100
 Thermal correction to Gibbs Free Energy=         0.126439
 Sum of electronic and zero-point Energies=           -326.965430
 Sum of electronic and thermal Energies=              -326.956835
 Sum of electronic and thermal Enthalpies=            -326.955891
 Sum of electronic and thermal Free Energies=         -326.997552

                     E (Thermal)             CV                S
                      KCal/Mol        Cal/Mol-Kelvin    Cal/Mol-Kelvin
 Total                  104.892             32.555             87.683
 Electronic               0.000              0.000              0.000
 Translational            0.889              2.981             39.750
 Rotational               0.889              2.981             27.481
 Vibrational            103.114             26.593             20.452
 Vibration     1          0.598              1.970              4.238
 Vibration     2          0.630              1.864              2.310
 Vibration     3          0.654              1.790              1.854
 Vibration     4          0.662              1.765              1.740
 Vibration     5          0.681              1.708              1.525
 Vibration     6          0.687              1.690              1.466
 Vibration     7          0.738              1.546              1.104
 Vibration     8          0.747              1.521              1.055
 Vibration     9          0.751              1.509              1.033
 Vibration    10          0.828              1.314              0.735
 Vibration    11          0.865              1.228              0.634
 Vibration    12          0.899              1.153              0.557
 Vibration    13          0.934              1.081              0.491

 Optimization completed.
    -- Stationary point found.
 Normal termination of Gaussian 09 at Thu Sep  8 15:25:25 2022.
