 Gaussian 09, Revision E.01,
 Gaussian 09:  ES64L-G09RevE.01 30-Nov-2015

 ----------------------------
 #P OPT Freq B3LYP/6-31G(d,p)
 ----------------------------

 ---------
 Frag_1123
 ---------
 Symbolic Z-matrix:
 Charge =  0 Multiplicity = 1

 SCF Done:  E(RB3LYP) =  -287.704753885     A.U. after   15 cycles
 SCF Done:  E(RB3LYP) =  -287.704825937     A.U. after    9 cycles
 SCF Done:  E(RB3LYP) =  -287.704830935     A.U. after    8 cycles
 SCF Done:  E(RB3LYP) =  -287.704832296     A.U. after    8 cycles
 Optimization completed.
    -- Stationary point found.
 Normal termination of Gaussian 09 at Thu Sep  8 14:54:11 2022.

 ----------------------------------------------------------------------
 #P Geom=AllCheck Guess=TCheck SCRF=Check GenChk RB3LYP/6-31G(d,p) Freq
 ----------------------------------------------------------------------

 Structure from the checkpoint file:  "B3LYP6-31Gdp.Frag_1123.chk"
 ---------
 Frag_1123
 ---------
 Charge =  0 Multiplicity = 1

                         Standard orientation:
 ---------------------------------------------------------------------
 Center     Atomic      Atomic             Coordinates (Angstroms)
 Number     Number       Type             X           Y           Z
 ---------------------------------------------------------------------
      1          6           0        2.104010   -0.000017   -0.012163
      2          6           0        0.967153   -0.000122   -0.685881
      3          7           0       -0.328412    0.000006    0.070877
      4          6           0       -1.096840   -1.233625   -0.332607
      5          6           0       -1.096736    1.233613   -0.332857
      6          8           0       -0.164102    0.000145    1.411968
      7          1           0        2.044275    0.000195    1.071572
      8          1           0        3.059220   -0.000123   -0.524594
      9          1           0        0.861699   -0.000329   -1.766745
     10          1           0       -1.264453   -1.276834   -1.413850
     11          1           0       -2.040322   -1.199971    0.210958
     12          1           0       -0.504923   -2.081135    0.007818
     13          1           0       -1.264305    1.276664   -1.414115
     14          1           0       -0.504767    2.081129    0.007458
     15          1           0       -2.040247    1.200112    0.210666
 ---------------------------------------------------------------------

 SCF Done:  E(RB3LYP) =  -287.704832296     A.U. after    1 cycles

 The electronic state is 1-A.
 Alpha  occ. eigenvalues --  -19.04931 -14.46815 -10.22232 -10.22196 -10.22195
 Alpha  occ. eigenvalues --  -10.18729  -1.04657  -0.82146  -0.77006  -0.73236
 Alpha  occ. eigenvalues --   -0.65275  -0.56277  -0.51475  -0.49037  -0.47054
 Alpha  occ. eigenvalues --   -0.44630  -0.42060  -0.40315  -0.38947  -0.38513
 Alpha  occ. eigenvalues --   -0.36225  -0.27686  -0.19261  -0.18861
 Alpha virt. eigenvalues --    0.00795   0.07272   0.10973   0.12281   0.13299
 Alpha virt. eigenvalues --    0.14835   0.15140   0.16325   0.16689   0.17589
 Alpha virt. eigenvalues --    0.19115   0.19809   0.23438   0.26941   0.35056

 Mulliken charges:
               1
     1  C   -0.221112
     2  C    0.067550
     3  N   -0.112869
     4  C   -0.146657
     5  C   -0.146653
     6  O   -0.573806
     7  H    0.159048
     8  H    0.105040
     9  H    0.101919
    10  H    0.097073
    11  H    0.137972
    12  H    0.148728
    13  H    0.097072
    14  H    0.148728
    15  H    0.137968
 Sum of Mulliken charges =   0.00000

 Dipole moment (field-independent basis, Debye):
    X=             -0.6132    Y=             -0.0004    Z=             -4.0049  Tot=              4.0515
 Quadrupole moment (field-independent basis, Debye-Ang):
   XX=            -32.6399   YY=            -35.7088   ZZ=            -41.4550
   XY=              0.0002   XZ=              0.9069   YZ=             -0.0003

  Exact polarizability:  67.131   0.000  42.754   3.908   0.002  53.794
 Approx polarizability:  90.980   0.001  55.741  10.343   0.004  88.254

                      1                      2                      3
                      A                      A                      A
 Frequencies --    128.9053               266.1002               292.9128
 Red. masses --      2.6860                 1.0202                 1.1981
 Frc consts  --      0.0263                 0.0426                 0.0606
 IR Inten    --      1.0620                 0.3338                 1.9911

                      4                      5                      6
                      A                      A                      A
 Frequencies --    339.8465               347.7916               364.4146
 Red. masses --      2.2369                 2.0062                 2.3904
 Frc consts  --      0.1522                 0.1430                 0.1870
 IR Inten    --     12.0701                 3.2753                 1.3692

                      7                      8                      9
                      A                      A                      A
 Frequencies --    455.5683               484.6476               557.5302
 Red. masses --      3.0552                 2.9696                 3.0812
 Frc consts  --      0.3736                 0.4110                 0.5643
 IR Inten    --     13.2905                14.6371                 4.3925

                     10                     11                     12
                      A                      A                      A
 Frequencies --    705.6183               721.2940               893.3992
 Red. masses --      3.1142                 1.7690                 2.6871
 Frc consts  --      0.9136                 0.5423                 1.2636
 IR Inten    --      1.1698                16.5249                 4.5800

                     13                     14                     15
                      A                      A                      A
 Frequencies --    924.4745               951.2159               977.5217
 Red. masses --      1.9807                 1.3307                 3.7016
 Frc consts  --      0.9974                 0.7094                 2.0840
 IR Inten    --      3.2785                 8.3151                26.3108

                     16                     17                     18
                      A                      A                      A
 Frequencies --    992.6031              1047.6721              1099.4975
 Red. masses --      1.0699                 1.6906                 1.2597
 Frc consts  --      0.6211                 1.0933                 0.8973
 IR Inten    --     36.8051                 3.5594                 3.7267

                     19                     20                     21
                      A                      A                      A
 Frequencies --   1208.2823              1211.9662              1260.8330
 Red. masses --      1.7793                 2.4290                 1.9261
 Frc consts  --      1.5305                 2.1021                 1.8040
 IR Inten    --     11.5301                 0.1345                 1.8658

                     22                     23                     24
                      A                      A                      A
 Frequencies --   1307.2262              1368.7854              1412.1482
 Red. masses --      1.2370                 1.1700                 1.1680
 Frc consts  --      1.2455                 1.2916                 1.3724
 IR Inten    --      7.7507                10.7483                 0.2464

                     25                     26                     27
                      A                      A                      A
 Frequencies --   1443.9783              1476.3457              1490.5941
 Red. masses --      1.1921                 1.0508                 1.0483
 Frc consts  --      1.4645                 1.3494                 1.3723
 IR Inten    --      0.1011                 1.8347                 8.5751

                     28                     29                     30
                      A                      A                      A
 Frequencies --   1493.5246              1512.1338              1728.8039
 Red. masses --      1.0503                 1.0465                 5.1771
 Frc consts  --      1.3803                 1.4099                 9.1166
 IR Inten    --      5.3556                11.5007                15.8780

                     31                     32                     33
                      A                      A                      A
 Frequencies --   3049.0553              3057.9557              3159.5228
 Red. masses --      1.0389                 1.0383                 1.0959
 Frc consts  --      5.6907                 5.7203                 6.4457
 IR Inten    --     13.8596                44.8131                 0.5768

                     34                     35                     36
                      A                      A                      A
 Frequencies --   3165.0613              3167.8443              3198.7571
 Red. masses --      1.0909                 1.0610                 1.1070
 Frc consts  --      6.4390                 6.2732                 6.6737
 IR Inten    --     22.0993                 2.6898                 2.7804

                     37                     38                     39
                      A                      A                      A
 Frequencies --   3200.1156              3201.5951              3279.1260
 Red. masses --      1.0990                 1.1065                 1.1185
 Frc consts  --      6.6312                 6.6823                 7.0857
 IR Inten    --     19.0053                 7.9719                 0.7295

 - Thermochemistry -
 -------------------
 Temperature   298.150 Kelvin.  Pressure   1.00000 Atm.
 Atom     1 has atomic number  6 and mass  12.00000

 Molecular mass:    87.06841 amu.
 Principal axes and moments of inertia in atomic units:
                           1         2         3
     Eigenvalues --   357.86476 608.73271 618.27346
           X            0.99969   0.00001   0.02501
           Y           -0.00000   1.00000  -0.00011
           Z           -0.02501   0.00011   0.99969
 This molecule is an asymmetric top.
 Rotational symmetry number  1.
 Rotational temperatures (Kelvin)      0.24203     0.14229     0.14009
 Rotational constants (GHZ):           5.04308     2.96475     2.91900
 Zero-point vibrational energy     340604.8 (Joules/Mol)
                                   81.40649 (Kcal/Mol)
 Warning -- explicit consideration of   9 degrees of freedom as
           vibrations may cause significant error
 Vibrational temperatures:    185.47   382.86   421.44   488.96   500.39
          (Kelvin)            524.31   655.46   697.30   802.16  1015.23
                             1037.78  1285.40  1330.11  1368.59  1406.43
                             1428.13  1507.36  1581.93  1738.45  1743.75
                             1814.06  1880.80  1969.37  2031.76  2077.56
                             2124.13  2144.63  2148.85  2175.62  2487.36
                             4386.91  4399.71  4545.84  4553.81  4557.82
                             4602.29  4604.25  4606.38  4717.92

 Zero-point correction=                           0.129730 (Hartree/Particle)
 Thermal correction to Energy=                    0.136496
 Thermal correction to Enthalpy=                  0.137440
 Thermal correction to Gibbs Free Energy=         0.100003
 Sum of electronic and zero-point Energies=           -287.575103
 Sum of electronic and thermal Energies=              -287.568337
 Sum of electronic and thermal Enthalpies=            -287.567393
 Sum of electronic and thermal Free Energies=         -287.604829

                     E (Thermal)             CV                S
                      KCal/Mol        Cal/Mol-Kelvin    Cal/Mol-Kelvin
 Total                   85.652             25.560             78.793
 Electronic               0.000              0.000              0.000
 Translational            0.889              2.981             39.305
 Rotational               0.889              2.981             26.402
 Vibrational             83.875             19.599             13.086
 Vibration     1          0.611              1.924              2.962
 Vibration     2          0.672              1.735              1.621
 Vibration     3          0.688              1.687              1.457
 Vibration     4          0.720              1.596              1.213
 Vibration     5          0.725              1.580              1.176
 Vibration     6          0.738              1.546              1.103
 Vibration     7          0.814              1.349              0.779
 Vibration     8          0.841              1.284              0.698
 Vibration     9          0.913              1.123              0.529

 Optimization completed.
    -- Stationary point found.
 Normal termination of Gaussian 09 at Thu Sep  8 14:54:23 2022.
