 Gaussian 09, Revision E.01,
 Gaussian 09:  ES64L-G09RevE.01 30-Nov-2015

 --------------------------------
 #P OPT=calcfc Freq B3LYP/6-31G**
 --------------------------------

 --------
 Frag_367
 --------
 Symbolic Z-matrix:
 Charge =  0 Multiplicity = 1

 SCF Done:  E(RB3LYP) =  -253.114692461     A.U. after   12 cycles
 SCF Done:  E(RB3LYP) =  -253.118516634     A.U. after   11 cycles
 SCF Done:  E(RB3LYP) =  -253.118658441     A.U. after   10 cycles
 SCF Done:  E(RB3LYP) =  -253.118678253     A.U. after    9 cycles
 SCF Done:  E(RB3LYP) =  -253.118679548     A.U. after    8 cycles
 SCF Done:  E(RB3LYP) =  -253.118679590     A.U. after    6 cycles
 Optimization completed.
    -- Stationary point found.
 Normal termination of Gaussian 09 at Fri Sep 10 20:12:23 2021.

 ----------------------------------------------------------------------
 #P Geom=AllCheck Guess=TCheck SCRF=Check GenChk RB3LYP/6-31G(d,p) Freq
 ----------------------------------------------------------------------

 Structure from the checkpoint file:  "/public/home/users/caep010/.cache/gau_scr/Gau-95382.chk"
 --------
 Frag_367
 --------
 Charge =  0 Multiplicity = 1

                         Standard orientation:
 ---------------------------------------------------------------------
 Center     Atomic      Atomic             Coordinates (Angstroms)
 Number     Number       Type             X           Y           Z
 ---------------------------------------------------------------------
      1          6           0        1.729418   -0.802963   -0.567742
      2          6           0        0.666525    0.285974   -0.373722
      3          6           0        1.019530    1.200356    0.817108
      4          7           0       -0.686623   -0.301599   -0.335394
      5          6           0       -0.985163   -1.110268    0.838449
      6          6           0       -1.744390    0.662269   -0.594858
      7          1           0        1.455653   -1.457519   -1.399675
      8          1           0        1.853205   -1.420042    0.328631
      9          1           0        2.702171   -0.349553   -0.784233
     10          1           0        0.676109    0.907268   -1.279480
     11          1           0        1.985995    1.687640    0.650365
     12          1           0        1.095176    0.632417    1.750647
     13          1           0        0.273075    1.988015    0.960702
     14          1           0       -1.087994   -0.531087    1.775098
     15          1           0       -1.930773   -1.639413    0.676825
     16          1           0       -0.210129   -1.865416    0.992003
     17          1           0       -1.898581    1.403747    0.212634
     18          1           0       -2.693265    0.132037   -0.733293
     19          1           0       -1.529803    1.210893   -1.517882
 ---------------------------------------------------------------------

 SCF Done:  E(RB3LYP) =  -253.118679590     A.U. after    1 cycles

 The electronic state is 1-A.
 Alpha  occ. eigenvalues --  -14.31457 -10.20873 -10.19550 -10.19474 -10.16890
 Alpha  occ. eigenvalues --  -10.16783  -0.90922  -0.76440  -0.69785  -0.67811
 Alpha  occ. eigenvalues --   -0.63499  -0.54854  -0.47757  -0.45403  -0.44587
 Alpha  occ. eigenvalues --   -0.41870  -0.40114  -0.39176  -0.37538  -0.37281
 Alpha  occ. eigenvalues --   -0.35665  -0.34427  -0.33257  -0.32333  -0.19925
 Alpha virt. eigenvalues --    0.07957   0.12127   0.12446   0.13914   0.14430
 Alpha virt. eigenvalues --    0.15446   0.16277   0.18071   0.18211   0.18938
 Alpha virt. eigenvalues --    0.19694   0.21132   0.21685   0.22960   0.23903

 Mulliken charges:
               1
     1  C   -0.311722
     2  C    0.078738
     3  C   -0.319396
     4  N   -0.398556
     5  C   -0.160149
     6  C   -0.153949
     7  H    0.112389
     8  H    0.098671
     9  H    0.097150
    10  H    0.085623
    11  H    0.099591
    12  H    0.102635
    13  H    0.102160
    14  H    0.078853
    15  H    0.103393
    16  H    0.104238
    17  H    0.076727
    18  H    0.102130
    19  H    0.101476
 Sum of Mulliken charges =  -0.00000

 Dipole moment (field-independent basis, Debye):
    X=              0.0833    Y=              0.3913    Z=              0.3801  Tot=              0.5519
 Quadrupole moment (field-independent basis, Debye-Ang):
   XX=            -39.4984   YY=            -40.5522   ZZ=            -41.1428
   XY=             -0.0650   XZ=             -0.3454   YZ=             -1.6202

  Exact polarizability:  68.328   0.099  60.709  -0.623  -1.385  57.700
 Approx polarizability:  86.467   0.448  82.341  -0.752  -2.500  81.698

                      1                      2                      3
                      A                      A                      A
 Frequencies --     76.0637               212.3860               240.0962
 Red. masses --      2.1744                 1.0707                 1.1241
 Frc consts  --      0.0074                 0.0285                 0.0382
 IR Inten    --      0.2402                 0.1902                 0.2598

                      4                      5                      6
                      A                      A                      A
 Frequencies --    251.1772               254.1124               265.6567
 Red. masses --      1.2284                 1.1565                 1.5377
 Frc consts  --      0.0457                 0.0440                 0.0639
 IR Inten    --      0.8776                 0.8854                 1.7967

                      7                      8                      9
                      A                      A                      A
 Frequencies --    307.6264               348.6537               431.4557
 Red. masses --      2.3895                 2.2254                 2.0973
 Frc consts  --      0.1332                 0.1594                 0.2300
 IR Inten    --      0.0989                 0.6921                 1.6663

                     10                     11                     12
                      A                      A                      A
 Frequencies --    467.3585               537.7685               743.3500
 Red. masses --      2.7699                 2.3277                 2.8673
 Frc consts  --      0.3565                 0.3966                 0.9335
 IR Inten    --      7.6787                 1.7675                 5.7421

                     13                     14                     15
                      A                      A                      A
 Frequencies --    879.8385               926.6472               947.0116
 Red. masses --      2.5312                 1.2524                 1.3851
 Frc consts  --      1.1545                 0.6336                 0.7319
 IR Inten    --      6.6506                 0.6642                 0.0204

                     16                     17                     18
                      A                      A                      A
 Frequencies --   1008.9705              1074.1932              1112.8210
 Red. masses --      2.0550                 1.5740                 1.6456
 Frc consts  --      1.2326                 1.0701                 1.2007
 IR Inten    --     22.0758                11.8617                 9.8413

                     19                     20                     21
                      A                      A                      A
 Frequencies --   1125.0615              1136.0605              1186.8118
 Red. masses --      1.3310                 1.9072                 1.6705
 Frc consts  --      0.9926                 1.4502                 1.3863
 IR Inten    --     12.5682                18.2979                17.4029

                     22                     23                     24
                      A                      A                      A
 Frequencies --   1194.2715              1255.8564              1311.8445
 Red. masses --      1.7177                 2.6653                 2.4988
 Frc consts  --      1.4435                 2.4767                 2.5337
 IR Inten    --     12.3185                15.5573                22.7762

                     25                     26                     27
                      A                      A                      A
 Frequencies --   1356.7110              1406.0738              1410.2653
 Red. masses --      1.3384                 1.2889                 1.2849
 Frc consts  --      1.4515                 1.5013                 1.5056
 IR Inten    --      6.4926                 7.9259                10.7342

                     28                     29                     30
                      A                      A                      A
 Frequencies --   1430.2383              1455.1170              1483.1185
 Red. masses --      1.2653                 1.1537                 1.1510
 Frc consts  --      1.5250                 1.4393                 1.4917
 IR Inten    --     15.6279                 0.5998                 2.2655

                     31                     32                     33
                      A                      A                      A
 Frequencies --   1490.9907              1500.0469              1503.9424
 Red. masses --      1.0480                 1.0459                 1.0524
 Frc consts  --      1.3726                 1.3866                 1.4025
 IR Inten    --      9.2455                 1.4182                 0.4056

                     34                     35                     36
                      A                      A                      A
 Frequencies --   1508.5578              1517.2950              1525.2964
 Red. masses --      1.0686                 1.0448                 1.0508
 Frc consts  --      1.4328                 1.4172                 1.4404
 IR Inten    --     10.6478                10.0766                 0.8121

                     37                     38                     39
                      A                      A                      A
 Frequencies --   1528.4466              1534.1941              2929.1670
 Red. masses --      1.0659                 1.0535                 1.0607
 Frc consts  --      1.4672                 1.4610                 5.3618
 IR Inten    --      4.3649                 3.1204                59.3844

                     40                     41                     42
                      A                      A                      A
 Frequencies --   2943.7290              3026.2078              3042.3410
 Red. masses --      1.0617                 1.0849                 1.0354
 Frc consts  --      5.4206                 5.8540                 5.6464
 IR Inten    --    109.1436                18.8798                21.0995

                     43                     44                     45
                      A                      A                      A
 Frequencies --   3048.1355              3058.9712              3068.7451
 Red. masses --      1.0365                 1.0710                 1.0741
 Frc consts  --      5.6738                 5.9048                 5.9597
 IR Inten    --     17.8988                41.8069                46.6046

                     46                     47                     48
                      A                      A                      A
 Frequencies --   3106.0649              3108.0268              3114.8037
 Red. masses --      1.1030                 1.1020                 1.1011
 Frc consts  --      6.2695                 6.2717                 6.2941
 IR Inten    --     19.2440                 1.8839                82.6199

                     49                     50                     51
                      A                      A                      A
 Frequencies --   3116.7533              3124.9708              3132.5408
 Red. masses --      1.1020                 1.0990                 1.1026
 Frc consts  --      6.3070                 6.3230                 6.3749
 IR Inten    --     29.4484                31.4123                29.6238

 - Thermochemistry -
 -------------------
 Temperature   298.150 Kelvin.  Pressure   1.00000 Atm.
 Atom     1 has atomic number  6 and mass  12.00000

 Molecular mass:    87.10480 amu.
 Principal axes and moments of inertia in atomic units:
                           1         2         3
     Eigenvalues --   406.36634 676.87473 768.28877
           X            0.99986  -0.01629  -0.00439
           Y            0.01616   0.99948  -0.02789
           Z            0.00484   0.02781   0.99960
 This molecule is an asymmetric top.
 Rotational symmetry number  1.
 Rotational temperatures (Kelvin)      0.21314     0.12796     0.11274
 Rotational constants (GHZ):           4.44117     2.66629     2.34904
 Zero-point vibrational energy     465143.0 (Joules/Mol)
                                  111.17185 (Kcal/Mol)
 Warning -- explicit consideration of  11 degrees of freedom as
           vibrations may cause significant error
 Vibrational temperatures:    109.44   305.58   345.44   361.39   365.61
          (Kelvin)            382.22   442.61   501.63   620.77   672.42
                              773.73  1069.51  1265.89  1333.24  1362.54
                             1451.68  1545.52  1601.10  1618.71  1634.54
                             1707.56  1718.29  1806.90  1887.45  1952.00
                             2023.02  2029.05  2057.79  2093.59  2133.87
                             2145.20  2158.23  2163.83  2170.48  2183.05
                             2194.56  2199.09  2207.36  4214.41  4235.36
                             4354.03  4377.24  4385.58  4401.17  4415.23
                             4468.93  4471.75  4481.50  4484.31  4496.13
                             4507.02

 Zero-point correction=                           0.177164 (Hartree/Particle)
 Thermal correction to Energy=                    0.185268
 Thermal correction to Enthalpy=                  0.186212
 Thermal correction to Gibbs Free Energy=         0.145802
 Sum of electronic and zero-point Energies=           -252.941516
 Sum of electronic and thermal Energies=              -252.933412
 Sum of electronic and thermal Enthalpies=            -252.932468
 Sum of electronic and thermal Free Energies=         -252.972877

                     E (Thermal)             CV                S
                      KCal/Mol        Cal/Mol-Kelvin    Cal/Mol-Kelvin
 Total                  116.257             29.439             85.049
 Electronic               0.000              0.000              0.000
 Translational            0.889              2.981             39.307
 Rotational               0.889              2.981             26.849
 Vibrational            114.480             23.477             18.893
 Vibration     1          0.599              1.965              3.990
 Vibration     2          0.643              1.822              2.023
 Vibration     3          0.657              1.779              1.802
 Vibration     4          0.663              1.761              1.722
 Vibration     5          0.665              1.756              1.702
 Vibration     6          0.671              1.736              1.624
 Vibration     7          0.697              1.659              1.375
 Vibration     8          0.726              1.578              1.172
 Vibration     9          0.792              1.402              0.854
 Vibration    10          0.825              1.322              0.745
 Vibration    11          0.893              1.167              0.570

 Optimization completed.
    -- Stationary point found.
 Normal termination of Gaussian 09 at Fri Sep 10 20:12:40 2021.
