 Gaussian 09, Revision E.01,
 Gaussian 09:  ES64L-G09RevE.01 30-Nov-2015

 ----------------------------
 #P OPT Freq B3LYP/6-31G(d,p)
 ----------------------------

 --------
 Frag_954
 --------
 Symbolic Z-matrix:
 Charge =  0 Multiplicity = 1

 SCF Done:  E(RB3LYP) =  -227.353735064     A.U. after   13 cycles
 SCF Done:  E(RB3LYP) =  -227.353839507     A.U. after   10 cycles
 SCF Done:  E(RB3LYP) =  -227.353742711     A.U. after   11 cycles
 SCF Done:  E(RB3LYP) =  -227.353826396     A.U. after   11 cycles
 SCF Done:  E(RB3LYP) =  -227.353851535     A.U. after   10 cycles
 SCF Done:  E(RB3LYP) =  -227.353852197     A.U. after    8 cycles
 SCF Done:  E(RB3LYP) =  -227.353853282     A.U. after    8 cycles
 SCF Done:  E(RB3LYP) =  -227.353853689     A.U. after    7 cycles
 Optimization completed.
    -- Stationary point found.
 Normal termination of Gaussian 09 at Thu Sep  8 15:20:52 2022.

 ----------------------------------------------------------------------
 #P Geom=AllCheck Guess=TCheck SCRF=Check GenChk RB3LYP/6-31G(d,p) Freq
 ----------------------------------------------------------------------

 Structure from the checkpoint file:  "B3LYP6-31Gdp.Frag_954.chk"
 --------
 Frag_954
 --------
 Charge =  0 Multiplicity = 1

                         Standard orientation:
 ---------------------------------------------------------------------
 Center     Atomic      Atomic             Coordinates (Angstroms)
 Number     Number       Type             X           Y           Z
 ---------------------------------------------------------------------
      1          6           0       -2.217880   -0.012320   -0.109247
      2          6           0       -1.027279   -0.028561    0.096725
      3          6           0        0.425527   -0.001711    0.380120
      4          7           0        1.121993    1.182401   -0.126315
      5          7           0        1.063498   -1.157633   -0.249090
      6          1           0       -3.264980    0.001980   -0.306276
      7          1           0        0.539344    0.026631    1.479093
      8          1           0        0.973870    1.228783   -1.132950
      9          1           0        0.713916    2.021392    0.279374
     10          1           0        2.037880   -1.178735    0.042778
     11          1           0        0.619323   -2.017882    0.060229
 ---------------------------------------------------------------------

 SCF Done:  E(RB3LYP) =  -227.353853689     A.U. after    1 cycles

 The electronic state is 1-A.
 Alpha  occ. eigenvalues --  -14.31893 -14.31730 -10.26348 -10.18407 -10.18112
 Alpha  occ. eigenvalues --   -0.92443  -0.83997  -0.74539  -0.65269  -0.53857
 Alpha  occ. eigenvalues --   -0.51320  -0.50115  -0.43467  -0.42048  -0.41120
 Alpha  occ. eigenvalues --   -0.28455  -0.27110  -0.24576  -0.24274
 Alpha virt. eigenvalues --    0.04368   0.04813   0.09216   0.12444   0.12874
 Alpha virt. eigenvalues --    0.14798   0.16083   0.17834   0.24945   0.25928
 Alpha virt. eigenvalues --    0.28210   0.43743   0.49437   0.53767   0.54653

 Mulliken charges:
               1
     1  C   -0.432090
     2  C    0.301451
     3  C    0.030936
     4  N   -0.569807
     5  N   -0.580029
     6  H    0.154651
     7  H    0.108536
     8  H    0.251286
     9  H    0.241473
    10  H    0.249337
    11  H    0.244256
 Sum of Mulliken charges =  -0.00000

 Dipole moment (field-independent basis, Debye):
    X=             -0.6414    Y=              0.0096    Z=              0.9370  Tot=              1.1356
 Quadrupole moment (field-independent basis, Debye-Ang):
   XX=            -28.1665   YY=            -26.6208   ZZ=            -30.6745
   XY=             -2.0743   XZ=              1.7966   YZ=             -2.1709

  Exact polarizability:  59.039   0.498  37.419   2.307   0.122  29.760
 Approx polarizability:  91.373   1.820  48.520   5.524   0.888  41.877

                      1                      2                      3
                      A                      A                      A
 Frequencies --    179.1966               232.1693               284.5840
 Red. masses --      3.3043                 2.9579                 1.1366
 Frc consts  --      0.0625                 0.0939                 0.0542
 IR Inten    --      0.5026                 2.2520                59.3480

                      4                      5                      6
                      A                      A                      A
 Frequencies --    321.2543               447.9662               546.0220
 Red. masses --      1.2128                 2.9057                 5.1361
 Frc consts  --      0.0737                 0.3436                 0.9022
 IR Inten    --     37.8328                 1.5488                14.8682

                      7                      8                      9
                      A                      A                      A
 Frequencies --    592.4971               628.4441               639.7495
 Red. masses --      3.8005                 1.2340                 1.2144
 Frc consts  --      0.7861                 0.2871                 0.2928
 IR Inten    --      5.8196                44.0843                39.5444

                     10                     11                     12
                      A                      A                      A
 Frequencies --    823.4228               894.9155               927.8674
 Red. masses --      2.1546                 1.7150                 1.6658
 Frc consts  --      0.8607                 0.8092                 0.8450
 IR Inten    --     53.3745               144.0149               206.4606

                     13                     14                     15
                      A                      A                      A
 Frequencies --    995.0840              1137.0736              1203.7987
 Red. masses --      2.4062                 2.2140                 1.2313
 Frc consts  --      1.4038                 1.6866                 1.0513
 IR Inten    --      3.8316                43.0951                 4.2781

                     16                     17                     18
                      A                      A                      A
 Frequencies --   1290.9207              1390.9019              1417.7800
 Red. masses --      1.3896                 1.4796                 1.2629
 Frc consts  --      1.3644                 1.6865                 1.4956
 IR Inten    --     10.0872                60.8070                17.0811

                     19                     20                     21
                      A                      A                      A
 Frequencies --   1641.0062              1651.3059              2227.3725
 Red. masses --      1.1007                 1.1018                 5.9358
 Frc consts  --      1.7464                 1.7702                17.3506
 IR Inten    --     42.5382                24.9107                 0.7338

                     22                     23                     24
                      A                      A                      A
 Frequencies --   2942.9033              3487.6457              3488.4343
 Red. masses --      1.0816                 1.1256                 1.0796
 Frc consts  --      5.5190                 8.0667                 7.7406
 IR Inten    --     70.4310                41.1728                14.7147

                     25                     26                     27
                      A                      A                      A
 Frequencies --   3497.6713              3582.4437              3596.7697
 Red. masses --      1.0490                 1.0927                 1.0938
 Frc consts  --      7.5612                 8.2627                 8.3370
 IR Inten    --      0.0774                 1.0837                 0.7042

 - Thermochemistry -
 -------------------
 Temperature   298.150 Kelvin.  Pressure   1.00000 Atm.
 Atom     1 has atomic number  6 and mass  12.00000

 Molecular mass:    70.05310 amu.
 Principal axes and moments of inertia in atomic units:
                           1         2         3
     Eigenvalues --   200.81316 468.23649 621.01323
           X            0.99988  -0.01297   0.00887
           Y            0.01317   0.99966  -0.02248
           Z           -0.00857   0.02259   0.99971
 This molecule is an asymmetric top.
 Rotational symmetry number  1.
 Rotational temperatures (Kelvin)      0.43132     0.18498     0.13947
 Rotational constants (GHZ):           8.98717     3.85434     2.90612
 Zero-point vibrational energy     239667.0 (Joules/Mol)
                                   57.28180 (Kcal/Mol)
 Warning -- explicit consideration of   7 degrees of freedom as
           vibrations may cause significant error
 Vibrational temperatures:    257.82   334.04   409.45   462.21   644.52
          (Kelvin)            785.60   852.47   904.19   920.46  1184.72
                             1287.58  1334.99  1431.70  1635.99  1732.00
                             1857.34  2001.20  2039.87  2361.04  2375.86
                             3204.69  4234.18  5017.94  5019.07  5032.36
                             5154.33  5174.94

 Zero-point correction=                           0.091284 (Hartree/Particle)
 Thermal correction to Energy=                    0.097246
 Thermal correction to Enthalpy=                  0.098190
 Thermal correction to Gibbs Free Energy=         0.062761
 Sum of electronic and zero-point Energies=           -227.262569
 Sum of electronic and thermal Energies=              -227.256608
 Sum of electronic and thermal Enthalpies=            -227.255663
 Sum of electronic and thermal Free Energies=         -227.291092

                     E (Thermal)             CV                S
                      KCal/Mol        Cal/Mol-Kelvin    Cal/Mol-Kelvin
 Total                   61.023             21.312             74.566
 Electronic               0.000              0.000              0.000
 Translational            0.889              2.981             38.657
 Rotational               0.889              2.981             25.571
 Vibrational             59.245             15.351             10.338
 Vibration     1          0.629              1.868              2.337
 Vibration     2          0.653              1.792              1.862
 Vibration     3          0.683              1.702              1.506
 Vibration     4          0.707              1.633              1.304
 Vibration     5          0.807              1.365              0.802
 Vibration     6          0.901              1.148              0.552
 Vibration     7          0.950              1.048              0.463

 Optimization completed.
    -- Stationary point found.
 Normal termination of Gaussian 09 at Thu Sep  8 15:21:00 2022.
