 Gaussian 09, Revision D.01,
 Gaussian 09:  ES64L-G09RevD.01 24-Apr-2013

 -------------------------
 #P OPT Freq B3LYP/6-31G**
 -------------------------

 ------
 Frag_3
 ------
 Symbolic Z-matrix:
 Charge =  0 Multiplicity = 1

 SCF Done:  E(RB3LYP) =  -117.916548620     A.U. after   12 cycles
 Optimization completed.
    -- Stationary point found.
 Normal termination of Gaussian 09 at Fri Jul 23 00:36:17 2021.

 ----------------------------------------------------------------------
 #P Geom=AllCheck Guess=TCheck SCRF=Check GenChk RB3LYP/6-31G(d,p) Freq
 ----------------------------------------------------------------------

 Structure from the checkpoint file:  "/vol2/users/liuj201281/HOFBenchmark/IsodesmicSplit/Sample60/Ring26/Running/Gau-98077.chk"
 ------
 Frag_3
 ------
 Charge =  0 Multiplicity = 1

                         Standard orientation:
 ---------------------------------------------------------------------
 Center     Atomic      Atomic             Coordinates (Angstroms)
 Number     Number       Type             X           Y           Z
 ---------------------------------------------------------------------
      1          6           0        1.282404    0.220498    0.000004
      2          6           0        0.133705   -0.455404   -0.000096
      3          6           0       -1.234396    0.162894    0.000004
      4          1           0        2.243705   -0.284601    0.000204
      5          1           0        1.303702    1.307998   -0.000196
      6          1           0        0.164806   -1.545604    0.000004
      7          1           0       -1.810096   -0.149207    0.880604
      8          1           0       -1.811696   -0.152207   -0.878396
      9          1           0       -1.180698    1.255694   -0.001696
 ---------------------------------------------------------------------

 SCF Done:  E(RB3LYP) =  -117.916548620     A.U. after    1 cycles

 The electronic state is 1-A.
 Alpha  occ. eigenvalues --  -10.18736 -10.18077 -10.17300  -0.77993  -0.68046
 Alpha  occ. eigenvalues --   -0.54947  -0.46092  -0.41546  -0.40802  -0.36752
 Alpha  occ. eigenvalues --   -0.34126  -0.25023
 Alpha virt. eigenvalues --    0.02724   0.11385   0.13572   0.15068   0.17562
 Alpha virt. eigenvalues --    0.18048   0.19317   0.28632   0.37660   0.49336
 Alpha virt. eigenvalues --    0.52605   0.53359   0.60629   0.62887   0.65481

 Mulliken charges:
               1
     1  C   -0.236029
     2  C   -0.023262
     3  C   -0.349973
     4  H    0.094169
     5  H    0.089504
     6  H    0.083406
     7  H    0.116089
     8  H    0.116040
     9  H    0.110056
 Sum of Mulliken charges =   0.00000

 Dipole moment (field-independent basis, Debye):
    X=             -0.3583    Y=             -0.0802    Z=              0.0004  Tot=              0.3672
 Quadrupole moment (field-independent basis, Debye-Ang):
   XX=            -18.8977   YY=            -18.7392   ZZ=            -21.2620
   XY=              0.1144   XZ=              0.0000   YZ=              0.0000

  Exact polarizability:  43.879   4.075  32.346  -0.001   0.000  19.409
 Approx polarizability:  60.396  10.314  45.206  -0.001   0.000  26.124

                      1                      2                      3
                      A                      A                      A
 Frequencies --    210.2852               424.0773               589.0886
 Red. masses --      1.1618                 1.9568                 1.1967
 Frc consts  --      0.0303                 0.2073                 0.2447
 IR Inten    --      0.4689                 0.9970                 9.5092

                      4                      5                      6
                      A                      A                      A
 Frequencies --    930.1609               938.5777               949.3304
 Red. masses --      2.4193                 1.3373                 1.1529
 Frc consts  --      1.2333                 0.6941                 0.6122
 IR Inten    --      1.9933                36.5530                 4.1740

                      7                      8                      9
                      A                      A                      A
 Frequencies --   1033.6612              1073.8669              1195.6782
 Red. masses --      1.0489                 1.5321                 1.8092
 Frc consts  --      0.6603                 1.0410                 1.5239
 IR Inten    --      9.7395                 0.7423                 0.3562

                     10                     11                     12
                      A                      A                      A
 Frequencies --   1331.0901              1419.4192              1461.4474
 Red. masses --      1.2421                 1.2110                 1.2135
 Frc consts  --      1.2966                 1.4376                 1.5271
 IR Inten    --      0.3284                 0.7957                 0.6776

                     13                     14                     15
                      A                      A                      A
 Frequencies --   1493.3054              1507.7664              1734.2505
 Red. masses --      1.0449                 1.0561                 4.4457
 Frc consts  --      1.3728                 1.4146                 7.8780
 IR Inten    --      5.8072                 9.8883                10.2441

                     16                     17                     18
                      A                      A                      A
 Frequencies --   3028.0895              3078.7459              3115.8324
 Red. masses --      1.0372                 1.0999                 1.0987
 Frc consts  --      5.6032                 6.1425                 6.2847
 IR Inten    --     25.9811                25.7123                 9.1229

                     19                     20                     21
                      A                      A                      A
 Frequencies --   3141.4057              3150.7923              3233.5536
 Red. masses --      1.0759                 1.0765                 1.1155
 Frc consts  --      6.2555                 6.2967                 6.8717
 IR Inten    --     36.0428                 3.9816                22.0509

 - Thermochemistry -
 -------------------
 Temperature   298.150 Kelvin.  Pressure   1.00000 Atm.
 Atom     1 has atomic number  6 and mass  12.00000

 Molecular mass:    42.04695 amu.
 Principal axes and moments of inertia in atomic units:
                           1         2         3
     Eigenvalues --    38.54349 194.96107 222.36890
           X            1.00000  -0.00308   0.00001
           Y            0.00308   1.00000  -0.00005
           Z           -0.00001   0.00005   1.00000
 This molecule is an asymmetric top.
 Rotational symmetry number  1.
 Rotational temperatures (Kelvin)      2.24717     0.44426     0.38951
 Rotational constants (GHZ):          46.82350     9.25693     8.11598
 Zero-point vibrational energy     209588.3 (Joules/Mol)
                                   50.09280 (Kcal/Mol)
 Warning -- explicit consideration of   3 degrees of freedom as
           vibrations may cause significant error
 Vibrational temperatures:    302.55   610.15   847.57  1338.29  1350.40
          (Kelvin)           1365.87  1487.21  1545.05  1720.31  1915.14
                             2042.23  2102.69  2148.53  2169.34  2495.20
                             4356.74  4429.62  4482.98  4519.78  4533.28
                             4652.36

 Zero-point correction=                           0.079828 (Hartree/Particle)
 Thermal correction to Energy=                    0.083909
 Thermal correction to Enthalpy=                  0.084853
 Thermal correction to Gibbs Free Energy=         0.054826
 Sum of electronic and zero-point Energies=           -117.836721
 Sum of electronic and thermal Energies=              -117.832640
 Sum of electronic and thermal Enthalpies=            -117.831696
 Sum of electronic and thermal Free Energies=         -117.861723

                     E (Thermal)             CV                S
                      KCal/Mol        Cal/Mol-Kelvin    Cal/Mol-Kelvin
 Total                   52.654             12.959             63.198
 Electronic               0.000              0.000              0.000
 Translational            0.889              2.981             37.136
 Rotational               0.889              2.981             22.040
 Vibrational             50.876              6.997              4.022
 Vibration     1          0.642              1.825              2.041
 Vibration     2          0.786              1.418              0.878
 Vibration     3          0.946              1.055              0.469

 Normal termination of Gaussian 09 at Fri Jul 23 00:36:25 2021.
