 Gaussian 09, Revision E.01,
 Gaussian 09:  ES64L-G09RevE.01 30-Nov-2015

 ----------------------------
 #P OPT Freq B3LYP/6-31G(d,p)
 ----------------------------

 ---------
 Frag_1133
 ---------
 Symbolic Z-matrix:
 Charge =  0 Multiplicity = 1

 SCF Done:  E(RB3LYP) =  -398.941875899     A.U. after   14 cycles
 SCF Done:  E(RB3LYP) =  -398.941963847     A.U. after   10 cycles
 SCF Done:  E(RB3LYP) =  -398.941968631     A.U. after    8 cycles
 SCF Done:  E(RB3LYP) =  -398.941970416     A.U. after    8 cycles
 SCF Done:  E(RB3LYP) =  -398.941971533     A.U. after    8 cycles
 SCF Done:  E(RB3LYP) =  -398.941972357     A.U. after    8 cycles
 SCF Done:  E(RB3LYP) =  -398.941972807     A.U. after    7 cycles
 SCF Done:  E(RB3LYP) =  -398.941973106     A.U. after    8 cycles
 SCF Done:  E(RB3LYP) =  -398.941973253     A.U. after    7 cycles
 SCF Done:  E(RB3LYP) =  -398.941973363     A.U. after    7 cycles
 Optimization completed.
    -- Stationary point found.
 Normal termination of Gaussian 09 at Thu Sep  8 14:47:21 2022.

 ----------------------------------------------------------------------
 #P Geom=AllCheck Guess=TCheck SCRF=Check GenChk RB3LYP/6-31G(d,p) Freq
 ----------------------------------------------------------------------

 Structure from the checkpoint file:  "B3LYP6-31Gdp.Frag_1133.chk"
 ---------
 Frag_1133
 ---------
 Charge =  0 Multiplicity = 1

                         Standard orientation:
 ---------------------------------------------------------------------
 Center     Atomic      Atomic             Coordinates (Angstroms)
 Number     Number       Type             X           Y           Z
 ---------------------------------------------------------------------
      1          6           0       -1.626601   -1.209821   -0.001162
      2          6           0       -0.947248   -0.053437   -0.049843
      3          7           0       -1.500397    1.221521    0.033932
      4          6           0        0.586446   -0.039145   -0.031347
      5          8           0        1.118983    1.162654   -0.539813
      6          8           0        1.073696   -0.110034    1.298078
      7          8           0        1.034946   -1.100758   -0.802890
      8          1           0       -1.104381   -2.156119   -0.037183
      9          1           0       -2.710951   -1.228668    0.049751
     10          1           0       -2.493197    1.258236   -0.155578
     11          1           0       -0.977109    1.905278   -0.499356
     12          1           0        1.380726    1.680464    0.234947
     13          1           0        0.508723   -0.735367    1.773359
     14          1           0        2.002389   -1.074947   -0.752355
 ---------------------------------------------------------------------

 SCF Done:  E(RB3LYP) =  -398.941973363     A.U. after    1 cycles

 The electronic state is 1-A.
 Alpha  occ. eigenvalues --  -19.16227 -19.16175 -19.15625 -14.33536 -10.34329
 Alpha  occ. eigenvalues --  -10.22154 -10.15947  -1.10596  -1.01018  -1.00343
 Alpha  occ. eigenvalues --   -0.90788  -0.74175  -0.66316  -0.57720  -0.55873
 Alpha  occ. eigenvalues --   -0.53938  -0.51525  -0.46224  -0.43133  -0.42774
 Alpha  occ. eigenvalues --   -0.39089  -0.37846  -0.35125  -0.34307  -0.32509
 Alpha  occ. eigenvalues --   -0.29580  -0.28730  -0.20631
 Alpha virt. eigenvalues --    0.03209   0.07116   0.09814   0.10753   0.11467
 Alpha virt. eigenvalues --    0.15107   0.16618   0.18103   0.23793   0.26315
 Alpha virt. eigenvalues --    0.27959   0.29125   0.34279   0.38087   0.55808

 Mulliken charges:
               1
     1  C   -0.318430
     2  C    0.274511
     3  N   -0.645586
     4  C    0.641934
     5  O   -0.562283
     6  O   -0.547859
     7  O   -0.506407
     8  H    0.108782
     9  H    0.078498
    10  H    0.255690
    11  H    0.268408
    12  H    0.326173
    13  H    0.316948
    14  H    0.309622
 Sum of Mulliken charges =  -0.00000

 Dipole moment (field-independent basis, Debye):
    X=             -0.2630    Y=              0.8187    Z=              0.8101  Tot=              1.1815
 Quadrupole moment (field-independent basis, Debye-Ang):
   XX=            -34.9319   YY=            -37.7686   ZZ=            -43.5222
   XY=             -2.3173   XZ=              0.9894   YZ=             -2.5144

  Exact polarizability:  54.071   4.879  58.910  -0.360  -0.663  32.972
 Approx polarizability:  70.413  11.837  91.942  -0.448  -0.064  48.227

                      1                      2                      3
                      A                      A                      A
 Frequencies --     47.7788               238.9294               263.7101
 Red. masses --      4.3755                 1.7025                 1.8304
 Frc consts  --      0.0059                 0.0573                 0.0750
 IR Inten    --      3.2541                93.0517                14.4402

                      4                      5                      6
                      A                      A                      A
 Frequencies --    295.6263               314.3836               358.0128
 Red. masses --      3.4815                 1.2198                 1.2728
 Frc consts  --      0.1793                 0.0710                 0.0961
 IR Inten    --     29.2032                82.5647                47.2888

                      7                      8                      9
                      A                      A                      A
 Frequencies --    390.8418               434.5234               442.8280
 Red. masses --      2.8168                 2.6001                 1.3521
 Frc consts  --      0.2535                 0.2892                 0.1562
 IR Inten    --      6.9083                23.3421                19.8087

                     10                     11                     12
                      A                      A                      A
 Frequencies --    532.6365               563.1826               588.9845
 Red. masses --      2.7783                 2.6988                 4.8017
 Frc consts  --      0.4644                 0.5043                 0.9814
 IR Inten    --     19.9942                38.8127                53.3811

                     13                     14                     15
                      A                      A                      A
 Frequencies --    655.7941               710.8283               753.6885
 Red. masses --      2.1354                 1.3165                 1.5328
 Frc consts  --      0.5411                 0.3919                 0.5130
 IR Inten    --    114.9892                57.1676                50.7266

                     16                     17                     18
                      A                      A                      A
 Frequencies --    769.4573               822.9766               991.6375
 Red. masses --      3.9934                 1.5174                 2.2241
 Frc consts  --      1.3930                 0.6055                 1.2886
 IR Inten    --     28.1112                81.0954                25.3037

                     19                     20                     21
                      A                      A                      A
 Frequencies --    997.5885              1051.6845              1120.2679
 Red. masses --      1.9221                 2.8743                 2.2186
 Frc consts  --      1.1270                 1.8730                 1.6405
 IR Inten    --     55.4466               210.7452               168.5759

                     22                     23                     24
                      A                      A                      A
 Frequencies --   1160.4669              1299.1047              1344.8376
 Red. masses --      1.9135                 1.4365                 1.7502
 Frc consts  --      1.5182                 1.4284                 1.8650
 IR Inten    --    182.3475                55.2340                52.6814

                     25                     26                     27
                      A                      A                      A
 Frequencies --   1367.2012              1441.9005              1470.3104
 Red. masses --      1.9315                 1.4530                 1.7627
 Frc consts  --      2.1272                 1.7799                 2.2451
 IR Inten    --    138.9632                60.6274               121.8743

                     28                     29                     30
                      A                      A                      A
 Frequencies --   1637.0377              1726.7473              3171.5301
 Red. masses --      1.1679                 5.2291                 1.0628
 Frc consts  --      1.8440                 9.1862                 6.2987
 IR Inten    --     54.6361                84.2172                 9.4215

                     31                     32                     33
                      A                      A                      A
 Frequencies --   3276.0909              3552.4397              3663.4551
 Red. masses --      1.1128                 1.0472                 1.0978
 Frc consts  --      7.0368                 7.7860                 8.6807
 IR Inten    --      5.1741                18.9924                19.7672

                     34                     35                     36
                      A                      A                      A
 Frequencies --   3788.4055              3807.7548              3813.3989
 Red. masses --      1.0648                 1.0662                 1.0648
 Frc consts  --      9.0039                 9.1083                 9.1233
 IR Inten    --     31.5150                41.7225                42.1091

 - Thermochemistry -
 -------------------
 Temperature   298.150 Kelvin.  Pressure   1.00000 Atm.
 Atom     1 has atomic number  6 and mass  12.00000

 Molecular mass:   105.04259 amu.
 Principal axes and moments of inertia in atomic units:
                           1         2         3
     Eigenvalues --   506.26067 720.54744 898.12272
           X            0.99995   0.00886   0.00424
           Y           -0.00875   0.99966  -0.02451
           Z           -0.00446   0.02447   0.99969
 This molecule is an asymmetric top.
 Rotational symmetry number  1.
 Warning -- assumption of classical behavior for rotation
           may cause significant error
 Rotational temperatures (Kelvin)      0.17109     0.12021     0.09644
 Rotational constants (GHZ):           3.56485     2.50468     2.00946
 Zero-point vibrational energy     292283.8 (Joules/Mol)
                                   69.85751 (Kcal/Mol)
 Warning -- explicit consideration of  12 degrees of freedom as
           vibrations may cause significant error
 Vibrational temperatures:     68.74   343.77   379.42   425.34   452.33
          (Kelvin)            515.10   562.33   625.18   637.13   766.34
                              810.29   847.42   943.54  1022.72  1084.39
                             1107.08  1184.08  1426.74  1435.31  1513.14
                             1611.81  1669.65  1869.12  1934.92  1967.10
                             2074.57  2115.45  2355.33  2484.40  4563.12
                             4713.56  5111.16  5270.89  5450.66  5478.50
                             5486.62

 Zero-point correction=                           0.111325 (Hartree/Particle)
 Thermal correction to Energy=                    0.119248
 Thermal correction to Enthalpy=                  0.120192
 Thermal correction to Gibbs Free Energy=         0.079590
 Sum of electronic and zero-point Energies=           -398.830648
 Sum of electronic and thermal Energies=              -398.822725
 Sum of electronic and thermal Enthalpies=            -398.821781
 Sum of electronic and thermal Free Energies=         -398.862383

                     E (Thermal)             CV                S
                      KCal/Mol        Cal/Mol-Kelvin    Cal/Mol-Kelvin
 Total                   74.829             29.958             85.454
 Electronic               0.000              0.000              0.000
 Translational            0.889              2.981             39.865
 Rotational               0.889              2.981             27.285
 Vibrational             73.052             23.996             18.304
 Vibration     1          0.595              1.978              4.907
 Vibration     2          0.657              1.781              1.811
 Vibration     3          0.670              1.739              1.637
 Vibration     4          0.690              1.682              1.442
 Vibration     5          0.702              1.646              1.339
 Vibration     6          0.733              1.559              1.131
 Vibration     7          0.759              1.490              0.997
 Vibration     8          0.795              1.395              0.844
 Vibration     9          0.802              1.377              0.818
 Vibration    10          0.888              1.178              0.581
 Vibration    11          0.919              1.111              0.518
 Vibration    12          0.946              1.055              0.469

 Normal termination of Gaussian 09 at Thu Sep  8 14:47:34 2022.
