 Gaussian 09, Revision E.01,
 Gaussian 09:  ES64L-G09RevE.01 30-Nov-2015

 ----------------------------
 #P OPT Freq B3LYP/6-31G(d,p)
 ----------------------------

 --------
 Frag_516
 --------
 Symbolic Z-matrix:
 Charge =  0 Multiplicity = 1

 SCF Done:  E(RB3LYP) =  -188.053722560     A.U. after   11 cycles
 SCF Done:  E(RB3LYP) =  -188.053770624     A.U. after    7 cycles
 SCF Done:  E(RB3LYP) =  -188.053773607     A.U. after    7 cycles
 SCF Done:  E(RB3LYP) =  -188.053774910     A.U. after    7 cycles
 Optimization completed.
    -- Stationary point found.
 Normal termination of Gaussian 09 at Thu Sep  8 15:24:48 2022.

 ----------------------------------------------------------------------
 #P Geom=AllCheck Guess=TCheck SCRF=Check GenChk RB3LYP/6-31G(d,p) Freq
 ----------------------------------------------------------------------

 Structure from the checkpoint file:  "B3LYP6-31Gdp.Frag_516.chk"
 --------
 Frag_516
 --------
 Charge =  0 Multiplicity = 1

                         Standard orientation:
 ---------------------------------------------------------------------
 Center     Atomic      Atomic             Coordinates (Angstroms)
 Number     Number       Type             X           Y           Z
 ---------------------------------------------------------------------
      1          6           0        1.666620   -0.099776    0.000075
      2          7           0        0.527940    0.476300    0.000029
      3          7           0       -0.527940   -0.476300   -0.000005
      4          6           0       -1.666620    0.099776   -0.000024
      5          1           0        1.777424   -1.186925   -0.000157
      6          1           0        2.555600    0.527155   -0.000319
      7          1           0       -2.555600   -0.527155    0.000039
      8          1           0       -1.777424    1.186925   -0.000043
 ---------------------------------------------------------------------

 SCF Done:  E(RB3LYP) =  -188.053774910     A.U. after    1 cycles

 The electronic state is 1-A.
 Alpha  occ. eigenvalues --  -14.36383 -14.36368 -10.23144 -10.23144  -0.99073
 Alpha  occ. eigenvalues --   -0.84703  -0.64755  -0.56949  -0.50374  -0.48151
 Alpha  occ. eigenvalues --   -0.40314  -0.39899  -0.34308  -0.28488  -0.24202
 Alpha virt. eigenvalues --   -0.04431   0.02584   0.11730   0.13332   0.13382
 Alpha virt. eigenvalues --    0.18993   0.24281   0.25375   0.33763   0.52662
 Alpha virt. eigenvalues --    0.55252   0.58643   0.58916   0.64847   0.65116

 Mulliken charges:
               1
     1  C    0.000253
     2  N   -0.233092
     3  N   -0.233092
     4  C    0.000253
     5  H    0.114937
     6  H    0.117903
     7  H    0.117903
     8  H    0.114937
 Sum of Mulliken charges =  -0.00000

 Dipole moment (field-independent basis, Debye):
    X=             -0.0000    Y=              0.0000    Z=             -0.0003  Tot=              0.0003
 Quadrupole moment (field-independent basis, Debye-Ang):
   XX=            -16.0446   YY=            -25.3424   ZZ=            -24.5642
   XY=             -1.3044   XZ=             -0.0008   YZ=             -0.0001

  Exact polarizability:  64.671  -4.515  30.305  -0.000  -0.000  14.809
 Approx polarizability:  98.378 -12.467  44.788   0.003  -0.001  21.557

                      1                      2                      3
                      A                      A                      A
 Frequencies --     76.9738               372.7482               615.3024
 Red. masses --      3.6235                 2.3801                 2.9951
 Frc consts  --      0.0126                 0.1948                 0.6681
 IR Inten    --     25.4235                10.8659                 0.0000

                      4                      5                      6
                      A                      A                      A
 Frequencies --    672.8852               874.4843               875.3088
 Red. masses --      1.0182                 3.8372                 1.3465
 Frc consts  --      0.2716                 1.7289                 0.6078
 IR Inten    --      0.3624                 0.0000                 0.0000

                      7                      8                      9
                      A                      A                      A
 Frequencies --   1050.5283              1052.8589              1187.2085
 Red. masses --      1.3543                 1.3617                 1.4636
 Frc consts  --      0.8806                 0.8894                 1.2154
 IR Inten    --     39.5202                 0.0000                13.3089

                     10                     11                     12
                      A                      A                      A
 Frequencies --   1241.0389              1449.5249              1461.3118
 Red. masses --      1.8484                 1.1517                 1.2033
 Frc consts  --      1.6773                 1.4257                 1.5139
 IR Inten    --      0.0000                16.5710                 0.0000

                     13                     14                     15
                      A                      A                      A
 Frequencies --   1688.2174              1719.0857              3090.8254
 Red. masses --      5.3095                 5.5503                 1.0585
 Frc consts  --      8.9159                 9.6642                 5.9581
 IR Inten    --      0.0000                18.3475                37.2138

                     16                     17                     18
                      A                      A                      A
 Frequencies --   3094.8255              3213.3868              3213.4852
 Red. masses --      1.0578                 1.1160                 1.1157
 Frc consts  --      5.9694                 6.7896                 6.7879
 IR Inten    --      0.0000                 0.0000                26.2882

 - Thermochemistry -
 -------------------
 Temperature   298.150 Kelvin.  Pressure   1.00000 Atm.
 Atom     1 has atomic number  6 and mass  12.00000

 Molecular mass:    56.03745 amu.
 Principal axes and moments of inertia in atomic units:
                           1         2         3
     Eigenvalues --    35.58538 335.78151 371.36689
           X            0.99984  -0.01802  -0.00001
           Y            0.01802   0.99984  -0.00000
           Z            0.00001   0.00000   1.00000
 This molecule is an asymmetric top.
 Rotational symmetry number  1.
 Rotational temperatures (Kelvin)      2.43397     0.25795     0.23323
 Rotational constants (GHZ):          50.71581     5.37475     4.85973
 Zero-point vibrational energy     161196.8 (Joules/Mol)
                                   38.52696 (Kcal/Mol)
 Warning -- explicit consideration of   3 degrees of freedom as
           vibrations may cause significant error
 Vibrational temperatures:    110.75   536.30   885.28   968.13  1258.19
          (Kelvin)           1259.37  1511.47  1514.83  1708.13  1785.58
                             2085.54  2102.50  2428.97  2473.38  4447.00
                             4452.76  4623.34  4623.48

 Zero-point correction=                           0.061397 (Hartree/Particle)
 Thermal correction to Energy=                    0.065848
 Thermal correction to Enthalpy=                  0.066792
 Thermal correction to Gibbs Free Energy=         0.034779
 Sum of electronic and zero-point Energies=           -187.992378
 Sum of electronic and thermal Energies=              -187.987927
 Sum of electronic and thermal Enthalpies=            -187.986982
 Sum of electronic and thermal Free Energies=         -188.018996

                     E (Thermal)             CV                S
                      KCal/Mol        Cal/Mol-Kelvin    Cal/Mol-Kelvin
 Total                   41.320             13.695             67.379
 Electronic               0.000              0.000              0.000
 Translational            0.889              2.981             37.992
 Rotational               0.889              2.981             23.011
 Vibrational             39.543              7.733              6.376
 Vibration     1          0.599              1.965              3.967
 Vibration     2          0.744              1.528              1.068
 Vibration     3          0.975              1.000              0.424

 Optimization completed.
    -- Stationary point found.
 Normal termination of Gaussian 09 at Thu Sep  8 15:24:54 2022.
