 Gaussian 09, Revision E.01,
 Gaussian 09:  ES64L-G09RevE.01 30-Nov-2015

 ----------------------------
 #P OPT Freq B3LYP/6-31G(d,p)
 ----------------------------

 --------
 Frag_959
 --------
 Symbolic Z-matrix:
 Charge =  0 Multiplicity = 1

 SCF Done:  E(RB3LYP) =  -319.867763468     A.U. after   14 cycles
 SCF Done:  E(RB3LYP) =  -319.867843650     A.U. after    9 cycles
 SCF Done:  E(RB3LYP) =  -319.867851174     A.U. after    8 cycles
 SCF Done:  E(RB3LYP) =  -319.867853332     A.U. after    8 cycles
 SCF Done:  E(RB3LYP) =  -319.867854699     A.U. after    8 cycles
 SCF Done:  E(RB3LYP) =  -319.867855150     A.U. after    8 cycles
 Optimization completed.
    -- Stationary point found.
 Normal termination of Gaussian 09 at Thu Sep  8 15:00:45 2022.

 ----------------------------------------------------------------------
 #P Geom=AllCheck Guess=TCheck SCRF=Check GenChk RB3LYP/6-31G(d,p) Freq
 ----------------------------------------------------------------------

 Structure from the checkpoint file:  "B3LYP6-31Gdp.Frag_959.chk"
 --------
 Frag_959
 --------
 Charge =  0 Multiplicity = 1

                         Standard orientation:
 ---------------------------------------------------------------------
 Center     Atomic      Atomic             Coordinates (Angstroms)
 Number     Number       Type             X           Y           Z
 ---------------------------------------------------------------------
      1          6           0       -1.484207    1.072648   -0.064285
      2          7           0       -0.595205   -0.071164   -0.185373
      3          7           0       -1.113644   -1.337042    0.154026
      4          6           0        0.772950    0.119603   -0.020651
      5          7           0        1.411948    1.219136    0.135158
      6          8           0        1.465517   -1.037748   -0.102955
      7          1           0       -1.626874    1.401783    0.977861
      8          1           0       -1.102334    1.913330   -0.648950
      9          1           0       -2.457881    0.796771   -0.476985
     10          1           0       -1.590509   -1.291328    1.055553
     11          1           0       -1.789689   -1.611660   -0.553719
     12          1           0        0.800543    2.022604    0.245585
     13          1           0        2.388455   -0.759531    0.007233
 ---------------------------------------------------------------------

 SCF Done:  E(RB3LYP) =  -319.867855150     A.U. after    1 cycles

 The electronic state is 1-A.
 Alpha  occ. eigenvalues --  -19.16628 -14.38348 -14.35897 -14.28286 -10.29584
 Alpha  occ. eigenvalues --  -10.22898  -1.07091  -0.98973  -0.87269  -0.79860
 Alpha  occ. eigenvalues --   -0.71431  -0.58418  -0.52896  -0.51882  -0.51695
 Alpha  occ. eigenvalues --   -0.46548  -0.43809  -0.41554  -0.39930  -0.37679
 Alpha  occ. eigenvalues --   -0.28463  -0.26875  -0.25348  -0.22557
 Alpha virt. eigenvalues --    0.05043   0.07374   0.10286   0.11144   0.12544
 Alpha virt. eigenvalues --    0.14630   0.15464   0.17289   0.18746   0.23020
 Alpha virt. eigenvalues --    0.27992   0.33906   0.44492   0.52813   0.53620

 Mulliken charges:
               1
     1  C   -0.181243
     2  N   -0.373936
     3  N   -0.425567
     4  C    0.693541
     5  N   -0.623002
     6  O   -0.492145
     7  H    0.110524
     8  H    0.129959
     9  H    0.112740
    10  H    0.246373
    11  H    0.258852
    12  H    0.216111
    13  H    0.327794
 Sum of Mulliken charges =  -0.00000

 Dipole moment (field-independent basis, Debye):
    X=             -3.4976    Y=              0.4784    Z=              0.4116  Tot=              3.5541
 Quadrupole moment (field-independent basis, Debye-Ang):
   XX=            -30.9171   YY=            -37.4213   ZZ=            -35.7270
   XY=             -1.9804   XZ=             -0.3325   YZ=             -0.2715

  Exact polarizability:  54.651   3.940  52.162   0.169   1.079  30.779
 Approx polarizability:  72.176   9.868  78.345   1.364   3.045  43.818

                      1                      2                      3
                      A                      A                      A
 Frequencies --     84.7615               163.2121               200.1363
 Red. masses --      4.1386                 1.8065                 1.5979
 Frc consts  --      0.0175                 0.0284                 0.0377
 IR Inten    --      0.3551                 6.6323                10.8673

                      4                      5                      6
                      A                      A                      A
 Frequencies --    324.9665               334.4657               424.4052
 Red. masses --      2.9393                 1.1602                 2.5445
 Frc consts  --      0.1829                 0.0765                 0.2700
 IR Inten    --      1.0933                24.8773                10.5881

                      7                      8                      9
                      A                      A                      A
 Frequencies --    540.1246               551.8955               561.2437
 Red. masses --      1.2215                 2.8355                 3.7575
 Frc consts  --      0.2100                 0.5089                 0.6974
 IR Inten    --    118.4270                35.1195                 9.5820

                     10                     11                     12
                      A                      A                      A
 Frequencies --    727.1244               751.6890               782.1463
 Red. masses --      3.4878                 1.4482                 4.2812
 Frc consts  --      1.0865                 0.4821                 1.5431
 IR Inten    --     74.4542                 1.8767                 2.7080

                     13                     14                     15
                      A                      A                      A
 Frequencies --    870.7883              1046.8916              1105.0306
 Red. masses --      1.5954                 1.8421                 1.4569
 Frc consts  --      0.7128                 1.1895                 1.0482
 IR Inten    --    158.6439                81.3673                85.5902

                     16                     17                     18
                      A                      A                      A
 Frequencies --   1142.6302              1211.2957              1276.4026
 Red. masses --      1.3409                 2.9250                 1.7962
 Frc consts  --      1.0315                 2.5286                 1.7241
 IR Inten    --     11.0322                40.3434               179.8621

                     19                     20                     21
                      A                      A                      A
 Frequencies --   1306.2666              1327.6632              1453.3588
 Red. masses --      2.1424                 1.2852                 1.2400
 Frc consts  --      2.1538                 1.3347                 1.5431
 IR Inten    --      9.3271                 6.4563                23.9925

                     22                     23                     24
                      A                      A                      A
 Frequencies --   1488.6125              1510.3792              1521.5640
 Red. masses --      1.8941                 1.1367                 1.1931
 Frc consts  --      2.4729                 1.5279                 1.6274
 IR Inten    --    101.4964                10.2217                40.0245

                     25                     26                     27
                      A                      A                      A
 Frequencies --   1694.4362              1729.7174              2988.0041
 Red. masses --      1.2593                 4.0747                 1.0536
 Frc consts  --      2.1303                 7.1828                 5.5423
 IR Inten    --     66.8251               302.2937                57.8093

                     28                     29                     30
                      A                      A                      A
 Frequencies --   3093.6296              3134.2322              3435.0373
 Red. masses --      1.0811                 1.1039                 1.0500
 Frc consts  --      6.0963                 6.3890                 7.2995
 IR Inten    --     26.4956                16.8129                11.4076

                     31                     32                     33
                      A                      A                      A
 Frequencies --   3550.7992              3564.4776              3782.3721
 Red. masses --      1.0930                 1.0752                 1.0640
 Frc consts  --      8.1192                 8.0488                 8.9686
 IR Inten    --      0.1686                 3.1106                59.8678

 - Thermochemistry -
 -------------------
 Temperature   298.150 Kelvin.  Pressure   1.00000 Atm.
 Atom     1 has atomic number  6 and mass  12.00000

 Molecular mass:    89.05891 amu.
 Principal axes and moments of inertia in atomic units:
                           1         2         3
     Eigenvalues --   345.32216 516.01578 829.92159
           X            0.99932  -0.03678  -0.00154
           Y            0.03678   0.99932  -0.00237
           Z            0.00162   0.00231   1.00000
 This molecule is an asymmetric top.
 Rotational symmetry number  1.
 Rotational temperatures (Kelvin)      0.25082     0.16785     0.10436
 Rotational constants (GHZ):           5.22625     3.49745     2.17459
 Zero-point vibrational energy     285188.3 (Joules/Mol)
                                   68.16164 (Kcal/Mol)
 Warning -- explicit consideration of   9 degrees of freedom as
           vibrations may cause significant error
 Vibrational temperatures:    121.95   234.83   287.95   467.55   481.22
          (Kelvin)            610.62   777.12   794.05   807.50  1046.17
                             1081.51  1125.33  1252.87  1506.24  1589.89
                             1643.99  1742.78  1836.46  1879.42  1910.21
                             2091.06  2141.78  2173.10  2189.19  2437.91
                             2488.67  4299.07  4451.04  4509.46  4942.25
                             5108.80  5128.48  5441.98

 Zero-point correction=                           0.108622 (Hartree/Particle)
 Thermal correction to Energy=                    0.115512
 Thermal correction to Enthalpy=                  0.116456
 Thermal correction to Gibbs Free Energy=         0.078165
 Sum of electronic and zero-point Energies=           -319.759233
 Sum of electronic and thermal Energies=              -319.752343
 Sum of electronic and thermal Enthalpies=            -319.751399
 Sum of electronic and thermal Free Energies=         -319.789690

                     E (Thermal)             CV                S
                      KCal/Mol        Cal/Mol-Kelvin    Cal/Mol-Kelvin
 Total                   72.485             24.310             80.591
 Electronic               0.000              0.000              0.000
 Translational            0.889              2.981             39.373
 Rotational               0.889              2.981             26.495
 Vibrational             70.708             18.348             14.723
 Vibration     1          0.601              1.960              3.777
 Vibration     2          0.623              1.888              2.512
 Vibration     3          0.638              1.840              2.132
 Vibration     4          0.709              1.626              1.285
 Vibration     5          0.716              1.607              1.238
 Vibration     6          0.786              1.417              0.877
 Vibration     7          0.895              1.161              0.565
 Vibration     8          0.907              1.136              0.540
 Vibration     9          0.917              1.115              0.521

 Optimization completed.
    -- Stationary point found.
 Normal termination of Gaussian 09 at Thu Sep  8 15:00:55 2022.
