 Gaussian 09, Revision E.01,
 Gaussian 09:  ES64L-G09RevE.01 30-Nov-2015

 ----------------------------
 #P OPT Freq B3LYP/6-31G(d,p)
 ----------------------------

 --------
 Frag_900
 --------
 Symbolic Z-matrix:
 Charge =  0 Multiplicity = 1

 SCF Done:  E(RB3LYP) =  -363.023342085     A.U. after   13 cycles
 SCF Done:  E(RB3LYP) =  -363.023419966     A.U. after    9 cycles
 SCF Done:  E(RB3LYP) =  -363.023422564     A.U. after    8 cycles
 SCF Done:  E(RB3LYP) =  -363.023423912     A.U. after    8 cycles
 SCF Done:  E(RB3LYP) =  -363.023423629     A.U. after    8 cycles
 SCF Done:  E(RB3LYP) =  -363.023423789     A.U. after    7 cycles
 SCF Done:  E(RB3LYP) =  -363.023423781     A.U. after    7 cycles
 SCF Done:  E(RB3LYP) =  -363.023423712     A.U. after    7 cycles
 Optimization completed.
    -- Stationary point found.
 Normal termination of Gaussian 09 at Thu Sep  8 15:09:47 2022.

 ----------------------------------------------------------------------
 #P Geom=AllCheck Guess=TCheck SCRF=Check GenChk RB3LYP/6-31G(d,p) Freq
 ----------------------------------------------------------------------

 Structure from the checkpoint file:  "B3LYP6-31Gdp.Frag_900.chk"
 --------
 Frag_900
 --------
 Charge =  0 Multiplicity = 1

                         Standard orientation:
 ---------------------------------------------------------------------
 Center     Atomic      Atomic             Coordinates (Angstroms)
 Number     Number       Type             X           Y           Z
 ---------------------------------------------------------------------
      1          6           0        1.733702    1.089270   -0.099848
      2          6           0        0.930463    0.022667   -0.043080
      3          8           0        1.370735   -1.276425    0.009167
      4          6           0       -0.601643    0.066965    0.026060
      5          6           0       -1.226430   -0.834298   -1.047261
      6          7           0       -1.091263   -0.353344    1.337769
      7          8           0       -1.055161    1.404664   -0.114884
      8          1           0        2.816095    0.992289   -0.115247
      9          1           0        1.316606    2.086395   -0.098069
     10          1           0        2.337577   -1.279077    0.028266
     11          1           0       -0.915586   -0.513197   -2.047677
     12          1           0       -0.918832   -1.874862   -0.921339
     13          1           0       -2.312543   -0.763745   -0.963156
     14          1           0       -0.726937    0.297635    2.031823
     15          1           0       -0.692669   -1.264698    1.552571
     16          1           0       -0.806021    1.699128   -1.001042
 ---------------------------------------------------------------------

 SCF Done:  E(RB3LYP) =  -363.023423712     A.U. after    1 cycles

 The electronic state is 1-A.
 Alpha  occ. eigenvalues --  -19.18323 -19.14612 -14.31064 -10.27129 -10.24377
 Alpha  occ. eigenvalues --  -10.17196 -10.16941  -1.06292  -1.02942  -0.87466
 Alpha  occ. eigenvalues --   -0.75537  -0.72282  -0.63261  -0.58848  -0.51098
 Alpha  occ. eigenvalues --   -0.49939  -0.47798  -0.44596  -0.42798  -0.40914
 Alpha  occ. eigenvalues --   -0.40035  -0.37586  -0.36881  -0.35879  -0.34147
 Alpha  occ. eigenvalues --   -0.27903  -0.24519  -0.22633
 Alpha virt. eigenvalues --    0.03437   0.06070   0.08200   0.11953   0.13574
 Alpha virt. eigenvalues --    0.14907   0.15645   0.17366   0.18580   0.19138
 Alpha virt. eigenvalues --    0.23528   0.25084   0.26416   0.28636   0.33645

 Mulliken charges:
               1
     1  C   -0.344060
     2  C    0.346350
     3  O   -0.548387
     4  C    0.337651
     5  C   -0.311034
     6  N   -0.568492
     7  O   -0.543829
     8  H    0.077142
     9  H    0.104204
    10  H    0.318268
    11  H    0.090459
    12  H    0.117804
    13  H    0.129806
    14  H    0.244607
    15  H    0.245117
    16  H    0.304395
 Sum of Mulliken charges =  -0.00000

 Dipole moment (field-independent basis, Debye):
    X=              2.7137    Y=             -0.5922    Z=             -0.8405  Tot=              2.9020
 Quadrupole moment (field-independent basis, Debye-Ang):
   XX=            -41.7345   YY=            -42.0506   ZZ=            -40.1136
   XY=             -0.7548   XZ=              3.0624   YZ=             -2.6074

  Exact polarizability:  61.573   6.529  61.503  -0.863  -1.953  45.611
 Approx polarizability:  81.997  10.897  95.798  -3.867  -4.338  62.697

                      1                      2                      3
                      A                      A                      A
 Frequencies --     76.7827               223.0166               243.4808
 Red. masses --      4.2771                 1.4132                 1.3601
 Frc consts  --      0.0149                 0.0414                 0.0475
 IR Inten    --      2.5567                 3.5495                27.2833

                      4                      5                      6
                      A                      A                      A
 Frequencies --    257.2883               281.7543               332.5338
 Red. masses --      1.6438                 2.1485                 1.0878
 Frc consts  --      0.0641                 0.1005                 0.0709
 IR Inten    --      2.7137                17.0883               130.8460

                      7                      8                      9
                      A                      A                      A
 Frequencies --    364.2089               391.3449               426.1885
 Red. masses --      2.6129                 3.5741                 1.3092
 Frc consts  --      0.2042                 0.3225                 0.1401
 IR Inten    --      8.0507                 2.3298                64.9033

                     10                     11                     12
                      A                      A                      A
 Frequencies --    448.6930               528.9240               544.9421
 Red. masses --      2.3167                 3.0787                 3.2586
 Frc consts  --      0.2748                 0.5075                 0.5701
 IR Inten    --     40.2618                16.9709                 7.2356

                     13                     14                     15
                      A                      A                      A
 Frequencies --    678.5943               720.7442               744.2919
 Red. masses --      2.7962                 3.5697                 1.2582
 Frc consts  --      0.7586                 1.0926                 0.4107
 IR Inten    --     12.8851                 9.5245                 4.9959

                     16                     17                     18
                      A                      A                      A
 Frequencies --    826.1580               902.5790               925.1348
 Red. masses --      1.3723                 1.6763                 2.1686
 Frc consts  --      0.5519                 0.8046                 1.0936
 IR Inten    --     49.9384               119.9025                63.0592

                     19                     20                     21
                      A                      A                      A
 Frequencies --    971.0103               998.2424              1051.7714
 Red. masses --      1.8451                 1.4387                 2.1215
 Frc consts  --      1.0250                 0.8447                 1.3827
 IR Inten    --     10.7419                26.0317                73.3487

                     22                     23                     24
                      A                      A                      A
 Frequencies --   1124.1021              1145.7955              1219.6028
 Red. masses --      1.6756                 1.9649                 1.8743
 Frc consts  --      1.2475                 1.5198                 1.6426
 IR Inten    --     14.3099               238.7535                74.8216

                     25                     26                     27
                      A                      A                      A
 Frequencies --   1338.4516              1370.4400              1376.0245
 Red. masses --      1.9210                 2.2539                 1.5977
 Frc consts  --      2.0276                 2.4940                 1.7824
 IR Inten    --      4.4281                19.8909                47.6662

                     28                     29                     30
                      A                      A                      A
 Frequencies --   1415.7089              1446.8275              1498.3449
 Red. masses --      1.3632                 1.2093                 1.0576
 Frc consts  --      1.6098                 1.4915                 1.3989
 IR Inten    --     16.0276                19.2684                 2.8066

                     31                     32                     33
                      A                      A                      A
 Frequencies --   1507.8402              1656.3198              1723.5786
 Red. masses --      1.0606                 1.1045                 5.9617
 Frc consts  --      1.4207                 1.7853                10.4348
 IR Inten    --      2.1760                31.9267               103.7339

                     34                     35                     36
                      A                      A                      A
 Frequencies --   3052.8728              3129.4495              3159.4629
 Red. masses --      1.0388                 1.0974                 1.1043
 Frc consts  --      5.7042                 6.3323                 6.4947
 IR Inten    --     15.6186                20.4842                10.3597

                     37                     38                     39
                      A                      A                      A
 Frequencies --   3163.7786              3276.4778              3486.5221
 Red. masses --      1.0661                 1.1098                 1.0499
 Frc consts  --      6.2871                 7.0194                 7.5197
 IR Inten    --     11.7307                 3.8060                 0.4721

                     40                     41                     42
                      A                      A                      A
 Frequencies --   3579.0762              3807.7724              3820.7150
 Red. masses --      1.0915                 1.0658                 1.0658
 Frc consts  --      8.2379                 9.1049                 9.1668
 IR Inten    --      1.6176                22.9732                16.2514

 - Thermochemistry -
 -------------------
 Temperature   298.150 Kelvin.  Pressure   1.00000 Atm.
 Atom     1 has atomic number  6 and mass  12.00000

 Molecular mass:   103.06333 amu.
 Principal axes and moments of inertia in atomic units:
                           1         2         3
     Eigenvalues --   534.33339 750.41730 912.46434
           X            0.99512   0.09497   0.02687
           Y           -0.09516   0.99545   0.00571
           Z           -0.02621  -0.00824   0.99962
 This molecule is an asymmetric top.
 Rotational symmetry number  1.
 Warning -- assumption of classical behavior for rotation
           may cause significant error
 Rotational temperatures (Kelvin)      0.16210     0.11542     0.09492
 Rotational constants (GHZ):           3.37756     2.40498     1.97788
 Zero-point vibrational energy     354315.0 (Joules/Mol)
                                   84.68332 (Kcal/Mol)
 Warning -- explicit consideration of  12 degrees of freedom as
           vibrations may cause significant error
 Vibrational temperatures:    110.47   320.87   350.31   370.18   405.38
          (Kelvin)            478.44   524.01   563.06   613.19   645.57
                              761.00   784.05   976.34  1036.99  1070.87
                             1188.66  1298.61  1331.06  1397.07  1436.25
                             1513.26  1617.33  1648.54  1754.73  1925.73
                             1971.75  1979.79  2036.89  2081.66  2155.78
                             2169.44  2383.07  2479.84  4392.40  4502.57
                             4545.76  4551.97  4714.11  5016.32  5149.49
                             5478.53  5497.15

 Zero-point correction=                           0.134951 (Hartree/Particle)
 Thermal correction to Energy=                    0.143213
 Thermal correction to Enthalpy=                  0.144157
 Thermal correction to Gibbs Free Energy=         0.103236
 Sum of electronic and zero-point Energies=           -362.888472
 Sum of electronic and thermal Energies=              -362.880211
 Sum of electronic and thermal Enthalpies=            -362.879267
 Sum of electronic and thermal Free Energies=         -362.920188

                     E (Thermal)             CV                S
                      KCal/Mol        Cal/Mol-Kelvin    Cal/Mol-Kelvin
 Total                   89.867             31.288             86.126
 Electronic               0.000              0.000              0.000
 Translational            0.889              2.981             39.808
 Rotational               0.889              2.981             27.395
 Vibrational             88.090             25.327             18.923
 Vibration     1          0.599              1.965              3.971
 Vibration     2          0.649              1.806              1.934
 Vibration     3          0.659              1.774              1.777
 Vibration     4          0.667              1.750              1.680
 Vibration     5          0.681              1.707              1.523
 Vibration     6          0.714              1.611              1.248
 Vibration     7          0.738              1.546              1.104
 Vibration     8          0.759              1.489              0.995
 Vibration     9          0.788              1.413              0.871
 Vibration    10          0.808              1.364              0.800
 Vibration    11          0.884              1.186              0.590
 Vibration    12          0.900              1.151              0.555

 Optimization completed.
    -- Stationary point found.
 Normal termination of Gaussian 09 at Thu Sep  8 15:10:02 2022.
