 Gaussian 09, Revision E.01,
 Gaussian 09:  ES64L-G09RevE.01 30-Nov-2015

 --------------------------------
 #P OPT=calcfc Freq B3LYP/6-31G**
 --------------------------------

 --------
 Frag_284
 --------
 Symbolic Z-matrix:
 Charge =  0 Multiplicity = 1

 SCF Done:  E(RB3LYP) =  -207.976769403     A.U. after   14 cycles
 SCF Done:  E(RB3LYP) =  -207.991290534     A.U. after   14 cycles
 SCF Done:  E(RB3LYP) =  -207.991811987     A.U. after   14 cycles
 SCF Done:  E(RB3LYP) =  -207.944069176     A.U. after   15 cycles
 SCF Done:  E(RB3LYP) =  -207.991814421     A.U. after    8 cycles
 SCF Done:  E(RB3LYP) =  -207.991962607     A.U. after   12 cycles
 SCF Done:  E(RB3LYP) =  -207.991979942     A.U. after   11 cycles
 SCF Done:  E(RB3LYP) =  -207.991980552     A.U. after    8 cycles
 Optimization completed.
    -- Stationary point found.
 Normal termination of Gaussian 09 at Sat Aug 21 02:20:30 2021.

 ----------------------------------------------------------------------
 #P Geom=AllCheck Guess=TCheck SCRF=Check GenChk RB3LYP/6-31G(d,p) Freq
 ----------------------------------------------------------------------

 Structure from the checkpoint file:  "/public/home/users/caep010/.cache/gau_scr/Gau-87202.chk"
 --------
 Frag_284
 --------
 Charge =  0 Multiplicity = 1

                         Standard orientation:
 ---------------------------------------------------------------------
 Center     Atomic      Atomic             Coordinates (Angstroms)
 Number     Number       Type             X           Y           Z
 ---------------------------------------------------------------------
      1          6           0       -1.737997    0.169992   -0.000015
      2          7           0       -0.416847   -0.403265    0.000277
      3          6           0        0.736542   -0.052773   -0.000115
      4          8           0        1.900792    0.147824   -0.000032
      5          1           0       -2.474643   -0.635373    0.026943
      6          1           0       -1.911143    0.763795   -0.903827
      7          1           0       -1.893890    0.808528    0.875982
 ---------------------------------------------------------------------

 SCF Done:  E(RB3LYP) =  -207.991980552     A.U. after    1 cycles

 The electronic state is 1-A.
 Alpha  occ. eigenvalues --  -19.18776 -14.36032 -10.31993 -10.24760  -1.08987
 Alpha  occ. eigenvalues --   -0.94932  -0.74739  -0.53806  -0.48711  -0.47414
 Alpha  occ. eigenvalues --   -0.47299  -0.42239  -0.41726  -0.29233  -0.27758
 Alpha virt. eigenvalues --    0.02388   0.05942   0.10473   0.12596   0.15180
 Alpha virt. eigenvalues --    0.17575   0.23568   0.41483   0.47054   0.49488
 Alpha virt. eigenvalues --    0.50435   0.58057   0.58181   0.68822   0.72742

 Mulliken charges:
               1
     1  C   -0.177038
     2  N   -0.438302
     3  C    0.615072
     4  O   -0.413211
     5  H    0.141343
     6  H    0.136241
     7  H    0.135894
 Sum of Mulliken charges =  -0.00000

 Dipole moment (field-independent basis, Debye):
    X=             -2.8336    Y=              0.7325    Z=             -0.0007  Tot=              2.9267
 Quadrupole moment (field-independent basis, Debye-Ang):
   XX=            -23.8072   YY=            -22.7476   ZZ=            -22.2611
   XY=             -1.1703   XZ=             -0.0000   YZ=              0.0004

  Exact polarizability:  45.957   2.847  20.118   0.009   0.001  18.901
 Approx polarizability:  78.170  11.158  28.751   0.014   0.000  24.578

                      1                      2                      3
                      A                      A                      A
 Frequencies --     52.7275               170.7313               568.1273
 Red. masses --      1.5554                 4.3235                12.5568
 Frc consts  --      0.0025                 0.0743                 2.3879
 IR Inten    --      2.5108                15.9800                25.0900

                      4                      5                      6
                      A                      A                      A
 Frequencies --    618.6899               882.6973              1132.5802
 Red. masses --     11.3807                 6.3682                 1.2589
 Frc consts  --      2.5666                 2.9234                 0.9515
 IR Inten    --     27.5750                31.6535                 0.0018

                      7                      8                      9
                      A                      A                      A
 Frequencies --   1161.6579              1469.1338              1494.1462
 Red. masses --      1.2813                 1.3378                 1.5441
 Frc consts  --      1.0187                 1.7013                 2.0311
 IR Inten    --     16.1864                42.7882                10.0242

                     10                     11                     12
                      A                      A                      A
 Frequencies --   1517.5424              1523.7947              2396.8558
 Red. masses --      1.0438                 1.9527                12.2563
 Frc consts  --      1.4163                 2.6715                41.4853
 IR Inten    --      4.8360                 0.6954               918.9226

                     13                     14                     15
                      A                      A                      A
 Frequencies --   3041.1083              3105.7243              3136.5037
 Red. masses --      1.0345                 1.1057                 1.1020
 Frc consts  --      5.6367                 6.2835                 6.3871
 IR Inten    --     47.6439                23.5298                17.9130

 - Thermochemistry -
 -------------------
 Temperature   298.150 Kelvin.  Pressure   1.00000 Atm.
 Atom     1 has atomic number  6 and mass  12.00000

 Molecular mass:    57.02146 amu.
 Principal axes and moments of inertia in atomic units:
                           1         2         3
     Eigenvalues --    22.22009 419.19908 430.01049
           X            0.99991  -0.01357   0.00001
           Y            0.01357   0.99991   0.00025
           Z           -0.00002  -0.00025   1.00000
 This molecule is an asymmetric top.
 Rotational symmetry number  1.
 Rotational temperatures (Kelvin)      3.89800     0.20662     0.20142
 Rotational constants (GHZ):          81.22116     4.30521     4.19697
 Zero-point vibrational energy     133216.3 (Joules/Mol)
                                   31.83945 (Kcal/Mol)
 Warning -- explicit consideration of   4 degrees of freedom as
           vibrations may cause significant error
 Vibrational temperatures:     75.86   245.64   817.41   890.16  1270.00
          (Kelvin)           1629.53  1671.36  2113.75  2149.74  2183.40
                             2192.40  3448.54  4375.47  4468.44  4512.72

 Zero-point correction=                           0.050739 (Hartree/Particle)
 Thermal correction to Energy=                    0.055456
 Thermal correction to Enthalpy=                  0.056401
 Thermal correction to Gibbs Free Energy=         0.023465
 Sum of electronic and zero-point Energies=           -207.941241
 Sum of electronic and thermal Energies=              -207.936524
 Sum of electronic and thermal Enthalpies=            -207.935580
 Sum of electronic and thermal Free Energies=         -207.968516

                     E (Thermal)             CV                S
                      KCal/Mol        Cal/Mol-Kelvin    Cal/Mol-Kelvin
 Total                   34.799             13.220             69.319
 Electronic               0.000              0.000              0.000
 Translational            0.889              2.981             38.044
 Rotational               0.889              2.981             22.909
 Vibrational             33.022              7.258              8.366
 Vibration     1          0.596              1.977              4.712
 Vibration     2          0.626              1.879              2.427
 Vibration     3          0.924              1.100              0.508
 Vibration     4          0.979              0.992              0.419

 Normal termination of Gaussian 09 at Sat Aug 21 02:20:35 2021.
