 Gaussian 09, Revision E.01,
 Gaussian 09:  ES64L-G09RevE.01 30-Nov-2015

 ----------------------------
 #P OPT Freq B3LYP/6-31G(d,p)
 ----------------------------

 --------
 Frag_919
 --------
 Symbolic Z-matrix:
 Charge =  0 Multiplicity = 1

 SCF Done:  E(RB3LYP) =  -305.020988954     A.U. after   13 cycles
 SCF Done:  E(RB3LYP) =  -305.021034635     A.U. after   10 cycles
 SCF Done:  E(RB3LYP) =  -305.021042475     A.U. after    8 cycles
 SCF Done:  E(RB3LYP) =  -305.021043972     A.U. after    8 cycles
 SCF Done:  E(RB3LYP) =  -305.021044117     A.U. after    7 cycles
 Optimization completed.
    -- Stationary point found.
 Normal termination of Gaussian 09 at Thu Sep  8 15:18:44 2022.

 ----------------------------------------------------------------------
 #P Geom=AllCheck Guess=TCheck SCRF=Check GenChk RB3LYP/6-31G(d,p) Freq
 ----------------------------------------------------------------------

 Structure from the checkpoint file:  "B3LYP6-31Gdp.Frag_919.chk"
 --------
 Frag_919
 --------
 Charge =  0 Multiplicity = 1

                         Standard orientation:
 ---------------------------------------------------------------------
 Center     Atomic      Atomic             Coordinates (Angstroms)
 Number     Number       Type             X           Y           Z
 ---------------------------------------------------------------------
      1          6           0       -1.619552   -0.830558   -0.357883
      2          6           0       -0.392022   -0.000862    0.033430
      3          6           0       -0.467052    1.422694   -0.560317
      4          7           0       -0.266347   -0.003439    1.494728
      5          7           0        0.778904   -0.752269   -0.478543
      6          8           0        1.981318   -0.025089   -0.113471
      7          1           0       -1.549636   -1.824748    0.087247
      8          1           0       -2.534839   -0.345406   -0.003036
      9          1           0       -1.699986   -0.928659   -1.445848
     10          1           0       -1.315413    1.974653   -0.140805
     11          1           0       -0.593366    1.399185   -1.649726
     12          1           0        0.450623    1.972544   -0.334698
     13          1           0       -1.069856    0.475279    1.895624
     14          1           0        0.550892    0.553838    1.736570
     15          1           0        0.768247   -0.665392   -1.496726
     16          1           0        2.426649   -0.668269    0.454491
 ---------------------------------------------------------------------

 SCF Done:  E(RB3LYP) =  -305.021044117     A.U. after    1 cycles

 The electronic state is 1-A.
 Alpha  occ. eigenvalues --  -19.16706 -14.36322 -14.30561 -10.24208 -10.17442
 Alpha  occ. eigenvalues --  -10.17119  -1.04773  -0.89602  -0.80862  -0.72260
 Alpha  occ. eigenvalues --   -0.68775  -0.57116  -0.50161  -0.49048  -0.46125
 Alpha  occ. eigenvalues --   -0.43117  -0.42311  -0.39825  -0.38638  -0.37689
 Alpha  occ. eigenvalues --   -0.36272  -0.34130  -0.28463  -0.24410  -0.22845
 Alpha virt. eigenvalues --    0.06647   0.07887   0.12620   0.13239   0.13937
 Alpha virt. eigenvalues --    0.14755   0.16845   0.17574   0.18664   0.20318
 Alpha virt. eigenvalues --    0.21126   0.22694   0.24018   0.26188   0.28475

 Mulliken charges:
               1
     1  C   -0.303907
     2  C    0.255516
     3  C   -0.312229
     4  N   -0.582895
     5  N   -0.275242
     6  O   -0.464484
     7  H    0.133623
     8  H    0.098153
     9  H    0.094123
    10  H    0.091990
    11  H    0.088421
    12  H    0.122835
    13  H    0.231434
    14  H    0.237475
    15  H    0.251299
    16  H    0.333887
 Sum of Mulliken charges =  -0.00000

 Dipole moment (field-independent basis, Debye):
    X=             -0.5719    Y=              0.9383    Z=             -0.2521  Tot=              1.1274
 Quadrupole moment (field-independent basis, Debye-Ang):
   XX=            -35.4423   YY=            -39.7046   ZZ=            -36.0655
   XY=             -2.1878   XZ=              1.4974   YZ=              2.9200

  Exact polarizability:  57.215  -0.127  46.728   1.919   1.050  50.961
 Approx polarizability:  77.311   0.212  62.986   2.596   1.911  71.614

                      1                      2                      3
                      A                      A                      A
 Frequencies --    126.9924               200.3688               234.5887
 Red. masses --      2.6194                 1.1759                 1.0390
 Frc consts  --      0.0249                 0.0278                 0.0337
 IR Inten    --     22.6395                47.3609                27.9924

                      4                      5                      6
                      A                      A                      A
 Frequencies --    253.6926               277.6104               347.1507
 Red. masses --      2.0666                 1.3456                 2.2037
 Frc consts  --      0.0784                 0.0611                 0.1565
 IR Inten    --      1.1944                 0.0406                 7.3219

                      7                      8                      9
                      A                      A                      A
 Frequencies --    368.2999               405.8826               436.1678
 Red. masses --      2.1611                 1.5839                 1.8226
 Frc consts  --      0.1727                 0.1537                 0.2043
 IR Inten    --      2.2465                21.3432                35.9678

                     10                     11                     12
                      A                      A                      A
 Frequencies --    491.5216               566.3142               765.6043
 Red. masses --      2.7835                 3.1586                 4.5256
 Frc consts  --      0.3962                 0.5968                 1.5629
 IR Inten    --      8.6377                10.9147                 8.1220

                     13                     14                     15
                      A                      A                      A
 Frequencies --    846.6275               922.5386               925.7180
 Red. masses --      2.4876                 1.5831                 1.5136
 Frc consts  --      1.0505                 0.7938                 0.7642
 IR Inten    --     63.6402                 1.8568               118.2321

                     16                     17                     18
                      A                      A                      A
 Frequencies --    951.0959               970.8421              1022.1708
 Red. masses --      2.4171                 1.9472                 1.3210
 Frc consts  --      1.2882                 1.0813                 0.8132
 IR Inten    --     25.3328                 9.4117                22.7448

                     19                     20                     21
                      A                      A                      A
 Frequencies --   1038.9776              1122.5301              1208.5916
 Red. masses --      1.5021                 1.3964                 2.3832
 Frc consts  --      0.9553                 1.0367                 2.0510
 IR Inten    --     33.5847                30.6932                74.9982

                     22                     23                     24
                      A                      A                      A
 Frequencies --   1295.2854              1347.0338              1357.8065
 Red. masses --      2.5540                 1.7098                 1.3550
 Frc consts  --      2.5246                 1.8279                 1.4719
 IR Inten    --     17.4792                 4.8472                64.7210

                     25                     26                     27
                      A                      A                      A
 Frequencies --   1405.9001              1425.1996              1478.8475
 Red. masses --      1.2847                 1.2729                 1.0887
 Frc consts  --      1.4961                 1.5233                 1.4029
 IR Inten    --     12.7472                 6.8578                 1.7940

                     28                     29                     30
                      A                      A                      A
 Frequencies --   1496.8689              1498.2528              1517.7066
 Red. masses --      1.0514                 1.0531                 1.0785
 Frc consts  --      1.3880                 1.3928                 1.4637
 IR Inten    --      0.6527                 0.4053                 1.2561

                     31                     32                     33
                      A                      A                      A
 Frequencies --   1522.6607              1649.8676              3032.3513
 Red. masses --      1.0706                 1.1014                 1.0379
 Frc consts  --      1.4625                 1.7665                 5.6228
 IR Inten    --      7.1563                34.2769                19.9312

                     34                     35                     36
                      A                      A                      A
 Frequencies --   3049.6216              3096.9203              3114.3150
 Red. masses --      1.0371                 1.1009                 1.1013
 Frc consts  --      5.6828                 6.2210                 6.2936
 IR Inten    --     20.2949                21.7283                40.3235

                     37                     38                     39
                      A                      A                      A
 Frequencies --   3132.1843              3152.9072              3455.0445
 Red. masses --      1.1010                 1.1017                 1.0751
 Frc consts  --      6.3641                 6.4525                 7.5611
 IR Inten    --     17.5547                14.7749                 1.9213

                     40                     41                     42
                      A                      A                      A
 Frequencies --   3487.0163              3573.4507              3809.8734
 Red. masses --      1.0494                 1.0915                 1.0681
 Frc consts  --      7.5183                 8.2124                 9.1347
 IR Inten    --      1.1853                 0.2348                40.2169

 - Thermochemistry -
 -------------------
 Temperature   298.150 Kelvin.  Pressure   1.00000 Atm.
 Atom     1 has atomic number  6 and mass  12.00000

 Molecular mass:    90.07931 amu.
 Principal axes and moments of inertia in atomic units:
                           1         2         3
     Eigenvalues --   393.24163 657.45898 665.38610
           X            0.99955  -0.00266   0.02975
           Y           -0.00397   0.97534   0.22068
           Z           -0.02961  -0.22070   0.97489
 This molecule is an asymmetric top.
 Rotational symmetry number  1.
 Rotational temperatures (Kelvin)      0.22026     0.13174     0.13017
 Rotational constants (GHZ):           4.58940     2.74502     2.71232
 Zero-point vibrational energy     373129.6 (Joules/Mol)
                                   89.18012 (Kcal/Mol)
 Warning -- explicit consideration of  11 degrees of freedom as
           vibrations may cause significant error
 Vibrational temperatures:    182.71   288.29   337.52   365.01   399.42
          (Kelvin)            499.47   529.90   583.97   627.55   707.19
                              814.80  1101.53  1218.11  1327.33  1331.90
                             1368.41  1396.82  1470.67  1494.86  1615.07
                             1738.89  1863.62  1938.08  1953.58  2022.77
                             2050.54  2127.73  2153.66  2155.65  2183.64
                             2190.77  2373.79  4362.87  4387.72  4455.77
                             4480.80  4506.51  4536.32  4971.03  5017.03
                             5141.39  5481.55

 Zero-point correction=                           0.142118 (Hartree/Particle)
 Thermal correction to Energy=                    0.149843
 Thermal correction to Enthalpy=                  0.150787
 Thermal correction to Gibbs Free Energy=         0.111436
 Sum of electronic and zero-point Energies=           -304.878927
 Sum of electronic and thermal Energies=              -304.871201
 Sum of electronic and thermal Enthalpies=            -304.870257
 Sum of electronic and thermal Free Energies=         -304.909608

                     E (Thermal)             CV                S
                      KCal/Mol        Cal/Mol-Kelvin    Cal/Mol-Kelvin
 Total                   94.028             28.559             82.821
 Electronic               0.000              0.000              0.000
 Translational            0.889              2.981             39.407
 Rotational               0.889              2.981             26.645
 Vibrational             92.250             22.598             16.769
 Vibration     1          0.611              1.926              2.991
 Vibration     2          0.638              1.839              2.130
 Vibration     3          0.654              1.788              1.844
 Vibration     4          0.665              1.757              1.705
 Vibration     5          0.679              1.715              1.548
 Vibration     6          0.725              1.581              1.179
 Vibration     7          0.741              1.537              1.087
 Vibration     8          0.771              1.457              0.941
 Vibration     9          0.797              1.391              0.839
 Vibration    10          0.847              1.269              0.680
 Vibration    11          0.922              1.104              0.511

 Normal termination of Gaussian 09 at Thu Sep  8 15:18:57 2022.
