 Gaussian 09, Revision E.01,
 Gaussian 09:  ES64L-G09RevE.01 30-Nov-2015

 ----------------------------
 #P OPT Freq B3LYP/6-31G(d,p)
 ----------------------------

 --------
 Frag_679
 --------
 Symbolic Z-matrix:
 Charge =  0 Multiplicity = 1

 SCF Done:  E(RB3LYP) =  -323.713101954     A.U. after   13 cycles
 SCF Done:  E(RB3LYP) =  -323.713186223     A.U. after    9 cycles
 SCF Done:  E(RB3LYP) =  -323.713193478     A.U. after    8 cycles
 SCF Done:  E(RB3LYP) =  -323.713195360     A.U. after    8 cycles
 SCF Done:  E(RB3LYP) =  -323.713196075     A.U. after    7 cycles
 SCF Done:  E(RB3LYP) =  -323.713196315     A.U. after    7 cycles
 SCF Done:  E(RB3LYP) =  -323.713196445     A.U. after    7 cycles
 SCF Done:  E(RB3LYP) =  -323.713196551     A.U. after    7 cycles
 SCF Done:  E(RB3LYP) =  -323.713196708     A.U. after    7 cycles
 SCF Done:  E(RB3LYP) =  -323.713196921     A.U. after    8 cycles
 SCF Done:  E(RB3LYP) =  -323.713197151     A.U. after    8 cycles
 SCF Done:  E(RB3LYP) =  -323.713197304     A.U. after    8 cycles
 SCF Done:  E(RB3LYP) =  -323.713197364     A.U. after    7 cycles
 Optimization completed.
    -- Stationary point found.
 Normal termination of Gaussian 09 at Thu Sep  8 15:12:32 2022.

 ----------------------------------------------------------------------
 #P Geom=AllCheck Guess=TCheck SCRF=Check GenChk RB3LYP/6-31G(d,p) Freq
 ----------------------------------------------------------------------

 Structure from the checkpoint file:  "B3LYP6-31Gdp.Frag_679.chk"
 --------
 Frag_679
 --------
 Charge =  0 Multiplicity = 1

                         Standard orientation:
 ---------------------------------------------------------------------
 Center     Atomic      Atomic             Coordinates (Angstroms)
 Number     Number       Type             X           Y           Z
 ---------------------------------------------------------------------
      1          6           0        1.615240    1.129853   -0.045579
      2          6           0        0.655068   -0.012331    0.013515
      3          8           0        1.197688   -1.315500   -0.049671
      4          6           0       -0.691625    0.044432    0.002538
      5          7           0       -1.486472    1.193571   -0.053285
      6          8           0       -1.444678   -1.092624   -0.025785
      7          1           0        1.094136    2.082699   -0.178338
      8          1           0        2.234118    1.215140    0.861140
      9          1           0        2.303363    1.013056   -0.892495
     10          1           0        1.658868   -1.493951    0.783277
     11          1           0       -2.445668    0.978465    0.190260
     12          1           0       -1.137184    1.956624    0.511050
     13          1           0       -0.798503   -1.813766   -0.121091
 ---------------------------------------------------------------------

 SCF Done:  E(RB3LYP) =  -323.713197364     A.U. after    1 cycles

 The electronic state is 1-A.
 Alpha  occ. eigenvalues --  -19.16254 -19.15828 -14.33562 -10.25769 -10.20287
 Alpha  occ. eigenvalues --  -10.18076  -1.05842  -1.01755  -0.89556  -0.74916
 Alpha  occ. eigenvalues --   -0.66755  -0.59055  -0.53875  -0.47575  -0.46618
 Alpha  occ. eigenvalues --   -0.46137  -0.41742  -0.40016  -0.38366  -0.36674
 Alpha  occ. eigenvalues --   -0.35886  -0.29794  -0.28416  -0.17495
 Alpha virt. eigenvalues --    0.06430   0.06544   0.09574   0.12754   0.13953
 Alpha virt. eigenvalues --    0.15193   0.17603   0.19118   0.22258   0.25067
 Alpha virt. eigenvalues --    0.29117   0.38635   0.46561   0.53213   0.55215

 Mulliken charges:
               1
     1  C   -0.364955
     2  C    0.211612
     3  O   -0.586985
     4  C    0.443208
     5  N   -0.641829
     6  O   -0.550912
     7  H    0.104028
     8  H    0.094457
     9  H    0.124383
    10  H    0.311424
    11  H    0.268547
    12  H    0.256847
    13  H    0.330174
 Sum of Mulliken charges =  -0.00000

 Dipole moment (field-independent basis, Debye):
    X=              0.5399    Y=              0.7255    Z=              2.3579  Tot=              2.5254
 Quadrupole moment (field-independent basis, Debye-Ang):
   XX=            -34.0383   YY=            -32.0820   ZZ=            -36.3213
   XY=             -2.3239   XZ=              0.4005   YZ=              0.3091

  Exact polarizability:  63.429  -1.031  48.104   1.601   0.177  29.047
 Approx polarizability:  93.968  -3.278  65.059   3.296   0.637  41.535

                      1                      2                      3
                      A                      A                      A
 Frequencies --     57.8566               171.0591               211.8321
 Red. masses --      1.2868                 1.2312                 1.8538
 Frc consts  --      0.0025                 0.0212                 0.0490
 IR Inten    --     21.3125                 3.3547                 1.8731

                      4                      5                      6
                      A                      A                      A
 Frequencies --    251.0853               295.1977               341.9295
 Red. masses --      2.8545                 2.9732                 1.3090
 Frc consts  --      0.1060                 0.1527                 0.0902
 IR Inten    --      1.5133                14.5010                59.7153

                      7                      8                      9
                      A                      A                      A
 Frequencies --    384.5182               476.8455               572.2626
 Red. masses --      2.9161                 3.3117                 4.4430
 Frc consts  --      0.2540                 0.4437                 0.8573
 IR Inten    --     56.9789                 0.9269                15.4059

                     10                     11                     12
                      A                      A                      A
 Frequencies --    584.5878               615.1500               724.2055
 Red. masses --      1.9025                 1.4514                 1.8895
 Frc consts  --      0.3831                 0.3236                 0.5839
 IR Inten    --     91.0250                75.0212               236.7108

                     13                     14                     15
                      A                      A                      A
 Frequencies --    756.7396               969.6521              1057.2119
 Red. masses --      4.0725                 2.0156                 1.3264
 Frc consts  --      1.3741                 1.1166                 0.8735
 IR Inten    --     38.6707                13.1206                 4.3818

                     16                     17                     18
                      A                      A                      A
 Frequencies --   1075.3878              1172.4833              1231.8527
 Red. masses --      1.7005                 1.6890                 1.4185
 Frc consts  --      1.1586                 1.3681                 1.2683
 IR Inten    --     63.1156               146.3339                32.4218

                     19                     20                     21
                      A                      A                      A
 Frequencies --   1250.0036              1346.8853              1420.6684
 Red. masses --      3.1342                 1.8212                 1.5120
 Frc consts  --      2.8853                 1.9466                 1.7980
 IR Inten    --     32.8400               155.8405                25.8464

                     22                     23                     24
                      A                      A                      A
 Frequencies --   1449.3847              1486.4421              1512.7959
 Red. masses --      1.9774                 1.0440                 1.0616
 Frc consts  --      2.4475                 1.3591                 1.4314
 IR Inten    --      7.6408                 5.7851                13.0842

                     25                     26                     27
                      A                      A                      A
 Frequencies --   1651.4712              1804.0733              2995.3167
 Red. masses --      1.1549                 6.8493                 1.0506
 Frc consts  --      1.8558                13.1342                 5.5538
 IR Inten    --     67.4750               168.4680                72.8260

                     28                     29                     30
                      A                      A                      A
 Frequencies --   3054.2283              3115.3709              3561.3524
 Red. masses --      1.0884                 1.0968                 1.0483
 Frc consts  --      5.9818                 6.2720                 7.8339
 IR Inten    --     31.8827                22.0403                14.0710

                     31                     32                     33
                      A                      A                      A
 Frequencies --   3665.0984              3721.6577              3747.1245
 Red. masses --      1.0967                 1.0638                 1.0668
 Frc consts  --      8.6797                 8.6811                 8.8254
 IR Inten    --     16.1331                63.8569                10.0784

 - Thermochemistry -
 -------------------
 Temperature   298.150 Kelvin.  Pressure   1.00000 Atm.
 Atom     1 has atomic number  6 and mass  12.00000

 Molecular mass:    89.04768 amu.
 Principal axes and moments of inertia in atomic units:
                           1         2         3
     Eigenvalues --   363.30645 551.30736 895.92084
           X            0.99942   0.03416   0.00040
           Y           -0.03416   0.99942   0.00060
           Z           -0.00038  -0.00061   1.00000
 This molecule is an asymmetric top.
 Rotational symmetry number  1.
 Rotational temperatures (Kelvin)      0.23840     0.15711     0.09668
 Rotational constants (GHZ):           4.96755     3.27357     2.01440
 Zero-point vibrational energy     279517.8 (Joules/Mol)
                                   66.80636 (Kcal/Mol)
 Warning -- explicit consideration of  11 degrees of freedom as
           vibrations may cause significant error
 Vibrational temperatures:     83.24   246.12   304.78   361.26   424.72
          (Kelvin)            491.96   553.24   686.07   823.36   841.09
                              885.06  1041.97  1088.78  1395.11  1521.09
                             1547.24  1686.94  1772.36  1798.47  1937.87
                             2044.02  2085.34  2138.66  2176.57  2376.10
                             2595.66  4309.59  4394.35  4482.32  5123.99
                             5273.25  5354.63  5391.27

 Zero-point correction=                           0.106463 (Hartree/Particle)
 Thermal correction to Energy=                    0.113985
 Thermal correction to Enthalpy=                  0.114929
 Thermal correction to Gibbs Free Energy=         0.075243
 Sum of electronic and zero-point Energies=           -323.606735
 Sum of electronic and thermal Energies=              -323.599213
 Sum of electronic and thermal Enthalpies=            -323.598269
 Sum of electronic and thermal Free Energies=         -323.637955

                     E (Thermal)             CV                S
                      KCal/Mol        Cal/Mol-Kelvin    Cal/Mol-Kelvin
 Total                   71.526             26.290             83.527
 Electronic               0.000              0.000              0.000
 Translational            0.889              2.981             39.372
 Rotational               0.889              2.981             26.687
 Vibrational             69.749             20.328             17.468
 Vibration     1          0.596              1.974              4.529
 Vibration     2          0.626              1.878              2.424
 Vibration     3          0.643              1.823              2.028
 Vibration     4          0.663              1.761              1.723
 Vibration     5          0.689              1.683              1.444
 Vibration     6          0.721              1.592              1.203
 Vibration     7          0.753              1.503              1.021
 Vibration     8          0.833              1.301              0.719
 Vibration     9          0.928              1.091              0.500
 Vibration    10          0.942              1.065              0.477
 Vibration    11          0.975              1.000              0.424

 Normal termination of Gaussian 09 at Thu Sep  8 15:12:42 2022.
