 Gaussian 09, Revision E.01,
 Gaussian 09:  ES64L-G09RevE.01 30-Nov-2015

 ----------------------------
 #P OPT Freq B3LYP/6-31G(d,p)
 ----------------------------

 --------
 Frag_797
 --------
 Symbolic Z-matrix:
 Charge =  0 Multiplicity = 1

 SCF Done:  E(RB3LYP) =  -395.048792518     A.U. after   15 cycles
 SCF Done:  E(RB3LYP) =  -395.048545856     A.U. after   13 cycles
 SCF Done:  E(RB3LYP) =  -395.048827255     A.U. after    8 cycles
 SCF Done:  E(RB3LYP) =  -395.047054972     A.U. after   14 cycles
 SCF Done:  E(RB3LYP) =  -395.048924855     A.U. after    8 cycles
 SCF Done:  E(RB3LYP) =  -395.048928077     A.U. after    9 cycles
 SCF Done:  E(RB3LYP) =  -395.048929784     A.U. after    9 cycles
 SCF Done:  E(RB3LYP) =  -395.048930814     A.U. after    9 cycles
 SCF Done:  E(RB3LYP) =  -395.048932368     A.U. after    9 cycles
 Optimization completed.
    -- Stationary point found.
 Normal termination of Gaussian 09 at Thu Sep  8 15:16:57 2022.

 ----------------------------------------------------------------------
 #P Geom=AllCheck Guess=TCheck SCRF=Check GenChk RB3LYP/6-31G(d,p) Freq
 ----------------------------------------------------------------------

 Structure from the checkpoint file:  "B3LYP6-31Gdp.Frag_797.chk"
 --------
 Frag_797
 --------
 Charge =  0 Multiplicity = 1

                         Standard orientation:
 ---------------------------------------------------------------------
 Center     Atomic      Atomic             Coordinates (Angstroms)
 Number     Number       Type             X           Y           Z
 ---------------------------------------------------------------------
      1          6           0        0.997293   -0.436088    1.381708
      2          6           0        0.620091    0.017620   -0.033623
      3          7           0        1.141284    1.297596   -0.326440
      4          7           0        0.937091   -0.878731   -1.119641
      5          7           0       -0.988266    0.020504   -0.021773
      6          8           0       -1.548882    1.107227    0.033523
      7          8           0       -1.546102   -1.073199   -0.026917
      8          1           0        2.085282   -0.518731    1.444140
      9          1           0        0.544171   -1.404692    1.600832
     10          1           0        0.661133    0.285120    2.134031
     11          1           0        0.828385    1.993005    0.342377
     12          1           0        0.860504    1.586566   -1.258821
     13          1           0        0.500421   -1.781803   -0.961053
     14          1           0        1.944912   -0.996470   -1.167883
 ---------------------------------------------------------------------

 SCF Done:  E(RB3LYP) =  -395.048932368     A.U. after    1 cycles

 The electronic state is 1-A.
 Alpha  occ. eigenvalues --  -19.18486 -19.18246 -14.55254 -14.34153 -14.33826
 Alpha  occ. eigenvalues --  -10.30808 -10.20150  -1.21862  -1.05157  -0.96135
 Alpha  occ. eigenvalues --   -0.86829  -0.76027  -0.69252  -0.58823  -0.56071
 Alpha  occ. eigenvalues --   -0.53763  -0.51136  -0.50622  -0.47923  -0.45317
 Alpha  occ. eigenvalues --   -0.42336  -0.41753  -0.40204  -0.32587  -0.31071
 Alpha  occ. eigenvalues --   -0.29607  -0.26998  -0.25837
 Alpha virt. eigenvalues --   -0.05893   0.06492   0.08726   0.11923   0.12998
 Alpha virt. eigenvalues --    0.13927   0.14813   0.16286   0.18335   0.20670
 Alpha virt. eigenvalues --    0.23946   0.27304   0.29221   0.39549   0.51368

 Mulliken charges:
               1
     1  C   -0.304020
     2  C    0.298733
     3  N   -0.551650
     4  N   -0.577630
     5  N    0.458234
     6  O   -0.380641
     7  O   -0.380925
     8  H    0.129617
     9  H    0.133036
    10  H    0.119267
    11  H    0.261361
    12  H    0.266341
    13  H    0.267426
    14  H    0.260852
 Sum of Mulliken charges =  -0.00000

 Dipole moment (field-independent basis, Debye):
    X=              3.2043    Y=             -0.2353    Z=              0.8405  Tot=              3.3210
 Quadrupole moment (field-independent basis, Debye-Ang):
   XX=            -46.2190   YY=            -38.5053   ZZ=            -40.1702
   XY=             -2.2711   XZ=              0.1401   YZ=             -0.0268

  Exact polarizability:  49.746   0.307  55.897  -0.977   1.224  42.116
 Approx polarizability:  69.627   2.263 102.764  -2.439   3.525  57.280

                      1                      2                      3
                      A                      A                      A
 Frequencies --     47.4300               232.4259               257.4078
 Red. masses --      6.7391                 1.2904                 1.1194
 Frc consts  --      0.0089                 0.0411                 0.0437
 IR Inten    --      0.5905                 4.5165                19.4248

                      4                      5                      6
                      A                      A                      A
 Frequencies --    265.5263               287.1496               353.1774
 Red. masses --      2.1719                 2.3367                 2.2739
 Frc consts  --      0.0902                 0.1135                 0.1671
 IR Inten    --      8.1161                24.5030                 7.1391

                      7                      8                      9
                      A                      A                      A
 Frequencies --    361.1218               384.8685               465.1059
 Red. masses --      4.0826                 1.7049                 2.8258
 Frc consts  --      0.3137                 0.1488                 0.3602
 IR Inten    --     24.7190                29.3385                 3.6996

                     10                     11                     12
                      A                      A                      A
 Frequencies --    537.5680               564.5826               717.9134
 Red. masses --      3.5257                 2.8095                 6.5199
 Frc consts  --      0.6003                 0.5276                 1.9799
 IR Inten    --     15.9628                12.5912                 9.5887

                     13                     14                     15
                      A                      A                      A
 Frequencies --    824.4517               828.4885               850.8857
 Red. masses --      2.2390                 3.7426                 2.7341
 Frc consts  --      0.8967                 1.5135                 1.1663
 IR Inten    --     84.6070                68.0155               221.1473

                     16                     17                     18
                      A                      A                      A
 Frequencies --    899.8402              1016.7375              1040.9191
 Red. masses --      1.4238                 1.4818                 1.6475
 Frc consts  --      0.6792                 0.9025                 1.0517
 IR Inten    --    106.7535                 4.0639                28.3684

                     19                     20                     21
                      A                      A                      A
 Frequencies --   1093.4623              1244.8165              1366.2198
 Red. masses --      1.6544                 1.7014                 1.7529
 Frc consts  --      1.1654                 1.5533                 1.9278
 IR Inten    --     20.9105                44.1927                29.0651

                     22                     23                     24
                      A                      A                      A
 Frequencies --   1377.9008              1406.9752              1435.0332
 Red. masses --      2.8975                 2.1091                 2.8057
 Frc consts  --      3.2413                 2.4599                 3.4043
 IR Inten    --     56.3153                36.2812                49.6332

                     25                     26                     27
                      A                      A                      A
 Frequencies --   1500.5735              1509.0039              1623.3859
 Red. masses --      1.0900                 1.0534                 1.3739
 Frc consts  --      1.4461                 1.4133                 2.1333
 IR Inten    --      1.9023                 3.7434               179.2877

                     28                     29                     30
                      A                      A                      A
 Frequencies --   1661.9859              1676.7254              3056.9834
 Red. masses --      1.3702                 2.5019                 1.0368
 Frc consts  --      2.2299                 4.1443                 5.7084
 IR Inten    --      2.9236               163.8189                 9.3002

                     31                     32                     33
                      A                      A                      A
 Frequencies --   3132.8240              3159.5835              3521.0369
 Red. masses --      1.1010                 1.1040                 1.0486
 Frc consts  --      6.3666                 6.4932                 7.6597
 IR Inten    --     14.4881                 7.3385                 5.3266

                     34                     35                     36
                      A                      A                      A
 Frequencies --   3531.5513              3618.0949              3626.9617
 Red. masses --      1.0494                 1.0943                 1.0939
 Frc consts  --      7.7109                 8.4404                 8.4785
 IR Inten    --      8.1641                10.3870                10.8241

 - Thermochemistry -
 -------------------
 Temperature   298.150 Kelvin.  Pressure   1.00000 Atm.
 Atom     1 has atomic number  6 and mass  12.00000

 Molecular mass:   105.05383 amu.
 Principal axes and moments of inertia in atomic units:
                           1         2         3
     Eigenvalues --   510.55707 724.03714 840.37660
           X            0.99948  -0.02458   0.02081
           Y            0.02514   0.99933  -0.02672
           Z           -0.02013   0.02723   0.99943
 This molecule is an asymmetric top.
 Rotational symmetry number  1.
 Warning -- assumption of classical behavior for rotation
           may cause significant error
 Rotational temperatures (Kelvin)      0.16965     0.11963     0.10307
 Rotational constants (GHZ):           3.53485     2.49261     2.14754
 Zero-point vibrational energy     295948.5 (Joules/Mol)
                                   70.73338 (Kcal/Mol)
 Warning -- explicit consideration of  11 degrees of freedom as
           vibrations may cause significant error
 Vibrational temperatures:     68.24   334.41   370.35   382.03   413.14
          (Kelvin)            508.14   519.57   553.74   669.18   773.44
                              812.31  1032.92  1186.20  1192.01  1224.23
                             1294.67  1462.86  1497.65  1573.25  1791.01
                             1965.68  1982.49  2024.32  2064.69  2158.99
                             2171.12  2335.69  2391.22  2412.43  4398.31
                             4507.43  4545.93  5065.98  5081.11  5205.63
                             5218.38

 Zero-point correction=                           0.112721 (Hartree/Particle)
 Thermal correction to Energy=                    0.120464
 Thermal correction to Enthalpy=                  0.121408
 Thermal correction to Gibbs Free Energy=         0.080951
 Sum of electronic and zero-point Energies=           -394.936212
 Sum of electronic and thermal Energies=              -394.928468
 Sum of electronic and thermal Enthalpies=            -394.927524
 Sum of electronic and thermal Free Energies=         -394.967981

                     E (Thermal)             CV                S
                      KCal/Mol        Cal/Mol-Kelvin    Cal/Mol-Kelvin
 Total                   75.592             28.089             85.149
 Electronic               0.000              0.000              0.000
 Translational            0.889              2.981             39.865
 Rotational               0.889              2.981             27.232
 Vibrational             73.815             22.127             18.052
 Vibration     1          0.595              1.979              4.922
 Vibration     2          0.653              1.791              1.860
 Vibration     3          0.667              1.750              1.679
 Vibration     4          0.671              1.736              1.625
 Vibration     5          0.684              1.698              1.491
 Vibration     6          0.729              1.569              1.152
 Vibration     7          0.735              1.552              1.117
 Vibration     8          0.754              1.502              1.020
 Vibration     9          0.823              1.327              0.751
 Vibration    10          0.893              1.167              0.571
 Vibration    11          0.920              1.108              0.515

 Normal termination of Gaussian 09 at Thu Sep  8 15:17:09 2022.
