 Gaussian 09, Revision E.01,
 Gaussian 09:  ES64L-G09RevE.01 30-Nov-2015

 ----------------------------
 #P OPT Freq B3LYP/6-31G(d,p)
 ----------------------------

 --------
 Frag_781
 --------
 Symbolic Z-matrix:
 Charge =  0 Multiplicity = 1

 SCF Done:  E(RB3LYP) =  -188.042212894     A.U. after   15 cycles
 SCF Done:  E(RB3LYP) =  -188.042279175     A.U. after   10 cycles
 SCF Done:  E(RB3LYP) =  -188.042282887     A.U. after   10 cycles
 SCF Done:  E(RB3LYP) =  -188.042283187     A.U. after    9 cycles
 Optimization completed.
    -- Stationary point found.
 Normal termination of Gaussian 09 at Thu Sep  8 15:24:03 2022.

 ----------------------------------------------------------------------
 #P Geom=AllCheck Guess=TCheck SCRF=Check GenChk RB3LYP/6-31G(d,p) Freq
 ----------------------------------------------------------------------

 Structure from the checkpoint file:  "B3LYP6-31Gdp.Frag_781.chk"
 --------
 Frag_781
 --------
 Charge =  0 Multiplicity = 1

                         Standard orientation:
 ---------------------------------------------------------------------
 Center     Atomic      Atomic             Coordinates (Angstroms)
 Number     Number       Type             X           Y           Z
 ---------------------------------------------------------------------
      1          6           0       -1.446793   -0.481903    0.039808
      2          6           0       -0.633238    0.570148   -0.081492
      3          7           0        0.765884    0.540363    0.186669
      4          7           0        1.338310   -0.518015   -0.161695
      5          1           0       -1.051687   -1.458749    0.297543
      6          1           0       -2.518089   -0.379670   -0.094176
      7          1           0       -1.000630    1.573396   -0.277873
      8          1           0        2.321232   -0.420890    0.149785
 ---------------------------------------------------------------------

 SCF Done:  E(RB3LYP) =  -188.042283187     A.U. after    1 cycles

 The electronic state is 1-A.
 Alpha  occ. eigenvalues --  -14.39252 -14.37969 -10.22092 -10.19958  -1.02992
 Alpha  occ. eigenvalues --   -0.79690  -0.69018  -0.56579  -0.48066  -0.47888
 Alpha  occ. eigenvalues --   -0.42461  -0.38814  -0.37843  -0.27495  -0.23236
 Alpha virt. eigenvalues --   -0.06718   0.03882   0.10400   0.12736   0.14412
 Alpha virt. eigenvalues --    0.18206   0.26896   0.32178   0.37815   0.50012
 Alpha virt. eigenvalues --    0.53538   0.59005   0.61159   0.62709   0.65501

 Mulliken charges:
               1
     1  C   -0.208935
     2  C    0.087707
     3  N   -0.216890
     4  N   -0.269339
     5  H    0.127105
     6  H    0.113272
     7  H    0.111898
     8  H    0.255182
 Sum of Mulliken charges =  -0.00000

 Dipole moment (field-independent basis, Debye):
    X=             -0.5296    Y=              0.0678    Z=              0.2220  Tot=              0.5782
 Quadrupole moment (field-independent basis, Debye-Ang):
   XX=            -18.6767   YY=            -24.0341   ZZ=            -25.1849
   XY=             -0.7629   XZ=              0.6862   YZ=             -1.8472

  Exact polarizability:  53.386   0.469  34.119   0.875  -1.038  15.676
 Approx polarizability:  78.316   2.121  57.133  -0.745  -0.110  23.112

                      1                      2                      3
                      A                      A                      A
 Frequencies --    204.5174               340.2427               542.0676
 Red. masses --      3.3430                 2.7498                 1.5516
 Frc consts  --      0.0824                 0.1876                 0.2686
 IR Inten    --      3.2393                 0.8331                16.2810

                      4                      5                      6
                      A                      A                      A
 Frequencies --    741.7581               888.1625               946.0851
 Red. masses --      1.8933                 2.4447                 1.2808
 Frc consts  --      0.6137                 1.1362                 0.6754
 IR Inten    --     13.9269                26.1741                 7.8769

                      7                      8                      9
                      A                      A                      A
 Frequencies --    966.4457              1011.8989              1124.1659
 Red. masses --      1.3901                 1.1858                 1.8115
 Frc consts  --      0.7650                 0.7154                 1.3488
 IR Inten    --     60.1460                 8.9137                 6.5191

                     10                     11                     12
                      A                      A                      A
 Frequencies --   1324.6493              1422.4071              1497.4445
 Red. masses --      1.2574                 1.2180                 1.2758
 Frc consts  --      1.2999                 1.4519                 1.6855
 IR Inten    --      0.1334                 9.4059                33.9434

                     13                     14                     15
                      A                      A                      A
 Frequencies --   1602.8209              1691.4714              3173.1142
 Red. masses --      7.0311                 4.3712                 1.0570
 Frc consts  --     10.6425                 7.3685                 6.2702
 IR Inten    --      9.4958                 5.6035                 2.0182

                     16                     17                     18
                      A                      A                      A
 Frequencies --   3200.5923              3269.4622              3270.2911
 Red. masses --      1.0942                 1.0882                 1.1031
 Frc consts  --      6.6040                 6.8536                 6.9509
 IR Inten    --      8.6086                24.6007                 1.3378

 - Thermochemistry -
 -------------------
 Temperature   298.150 Kelvin.  Pressure   1.00000 Atm.
 Atom     1 has atomic number  6 and mass  12.00000

 Molecular mass:    56.03745 amu.
 Principal axes and moments of inertia in atomic units:
                           1         2         3
     Eigenvalues --    73.69397 279.21363 345.02284
           X            0.99997  -0.00011   0.00716
           Y            0.00046   0.99882  -0.04852
           Z           -0.00714   0.04853   0.99880
 This molecule is an asymmetric top.
 Rotational symmetry number  1.
 Rotational temperatures (Kelvin)      1.17532     0.31021     0.25104
 Rotational constants (GHZ):          24.48967     6.46366     5.23079
 Zero-point vibrational energy     162797.4 (Joules/Mol)
                                   38.90951 (Kcal/Mol)
 Warning -- explicit consideration of   3 degrees of freedom as
           vibrations may cause significant error
 Vibrational temperatures:    294.25   489.53   779.91  1067.22  1277.87
          (Kelvin)           1361.20  1390.50  1455.89  1617.42  1905.87
                             2046.52  2154.49  2306.10  2433.65  4565.40
                             4604.93  4704.02  4705.21

 Zero-point correction=                           0.062006 (Hartree/Particle)
 Thermal correction to Energy=                    0.066285
 Thermal correction to Enthalpy=                  0.067229
 Thermal correction to Gibbs Free Energy=         0.035788
 Sum of electronic and zero-point Energies=           -187.980277
 Sum of electronic and thermal Energies=              -187.975998
 Sum of electronic and thermal Enthalpies=            -187.975054
 Sum of electronic and thermal Free Energies=         -188.006495

                     E (Thermal)             CV                S
                      KCal/Mol        Cal/Mol-Kelvin    Cal/Mol-Kelvin
 Total                   41.595             13.695             66.174
 Electronic               0.000              0.000              0.000
 Translational            0.889              2.981             37.992
 Rotational               0.889              2.981             23.478
 Vibrational             39.817              7.733              4.705
 Vibration     1          0.640              1.833              2.092
 Vibration     2          0.720              1.595              1.211
 Vibration     3          0.897              1.157              0.561

 Optimization completed.
    -- Stationary point found.
 Normal termination of Gaussian 09 at Thu Sep  8 15:24:09 2022.
