 Gaussian 09, Revision E.01,
 Gaussian 09:  ES64L-G09RevE.01 30-Nov-2015

 ----------------------------
 #P OPT Freq B3LYP/6-31G(d,p)
 ----------------------------

 --------
 Frag_580
 --------
 Symbolic Z-matrix:
 Charge =  0 Multiplicity = 1

 SCF Done:  E(RB3LYP) =  -387.539663921     A.U. after   13 cycles
 SCF Done:  E(RB3LYP) =  -387.539715314     A.U. after   10 cycles
 SCF Done:  E(RB3LYP) =  -387.539719560     A.U. after    9 cycles
 SCF Done:  E(RB3LYP) =  -387.539724309     A.U. after    8 cycles
 SCF Done:  E(RB3LYP) =  -387.539728621     A.U. after    8 cycles
 SCF Done:  E(RB3LYP) =  -387.539733666     A.U. after    9 cycles
 SCF Done:  E(RB3LYP) =  -387.539735063     A.U. after    7 cycles
 SCF Done:  E(RB3LYP) =  -387.539735548     A.U. after    7 cycles
 SCF Done:  E(RB3LYP) =  -387.539735755     A.U. after    6 cycles
 SCF Done:  E(RB3LYP) =  -387.539735786     A.U. after    6 cycles
 SCF Done:  E(RB3LYP) =  -387.539735881     A.U. after    6 cycles
 SCF Done:  E(RB3LYP) =  -387.539735941     A.U. after    6 cycles
 Optimization completed.
    -- Stationary point found.
 Normal termination of Gaussian 09 at Thu Sep  8 15:07:21 2022.

 ----------------------------------------------------------------------
 #P Geom=AllCheck Guess=TCheck SCRF=Check GenChk RB3LYP/6-31G(d,p) Freq
 ----------------------------------------------------------------------

 Structure from the checkpoint file:  "B3LYP6-31Gdp.Frag_580.chk"
 --------
 Frag_580
 --------
 Charge =  0 Multiplicity = 1

                         Standard orientation:
 ---------------------------------------------------------------------
 Center     Atomic      Atomic             Coordinates (Angstroms)
 Number     Number       Type             X           Y           Z
 ---------------------------------------------------------------------
      1          6           0       -1.365567   -1.370564   -0.113469
      2          6           0       -0.775792    0.051269   -0.007602
      3          6           0       -1.250088    0.880166   -1.216967
      4          6           0       -1.294636    0.701573    1.291883
      5          6           0        0.797014   -0.047698   -0.006079
      6          6           0        1.528135    1.296276   -0.030015
      7          8           0        1.251397   -0.748156   -1.141715
      8          8           0        1.241518   -0.822701    1.113449
      9          1           0       -1.137583   -1.824014   -1.083264
     10          1           0       -0.973957   -2.019235    0.675311
     11          1           0       -2.455631   -1.337401   -0.019193
     12          1           0       -2.339158    0.815960   -1.316217
     13          1           0       -0.994212    1.939523   -1.115692
     14          1           0       -0.799746    0.505502   -2.140195
     15          1           0       -2.385768    0.786902    1.258070
     16          1           0       -0.896735    1.710407    1.441329
     17          1           0       -1.054504    0.099869    2.176446
     18          1           0        2.599977    1.094387    0.020175
     19          1           0        1.248747    1.926241    0.819168
     20          1           0        1.321845    1.844944   -0.951027
     21          1           0        1.089610   -1.686016   -0.969025
     22          1           0        0.999402   -0.356340    1.923734
 ---------------------------------------------------------------------

 SCF Done:  E(RB3LYP) =  -387.539735941     A.U. after    1 cycles

 The electronic state is 1-A.
 Alpha  occ. eigenvalues --  -19.14625 -19.14180 -10.28342 -10.19671 -10.18065
 Alpha  occ. eigenvalues --  -10.17195 -10.17110 -10.16921  -1.05610  -0.98505
 Alpha  occ. eigenvalues --   -0.81080  -0.73267  -0.68736  -0.67928  -0.61921
 Alpha  occ. eigenvalues --   -0.55255  -0.52540  -0.48381  -0.45297  -0.43862
 Alpha  occ. eigenvalues --   -0.43169  -0.39761  -0.39481  -0.38622  -0.37767
 Alpha  occ. eigenvalues --   -0.36741  -0.36158  -0.35586  -0.33325  -0.32521
 Alpha  occ. eigenvalues --   -0.31962  -0.28980  -0.25644
 Alpha virt. eigenvalues --    0.05978   0.09744   0.11429   0.12440   0.13531
 Alpha virt. eigenvalues --    0.14385   0.15149   0.16153   0.16770   0.18440
 Alpha virt. eigenvalues --    0.19219   0.19945   0.20522   0.22223   0.22604

 Mulliken charges:
               1
     1  C   -0.329598
     2  C    0.044001
     3  C   -0.312137
     4  C   -0.328630
     5  C    0.501026
     6  C   -0.327778
     7  O   -0.547191
     8  O   -0.565961
     9  H    0.098760
    10  H    0.110037
    11  H    0.097579
    12  H    0.093159
    13  H    0.096095
    14  H    0.120738
    15  H    0.107108
    16  H    0.101884
    17  H    0.088154
    18  H    0.125699
    19  H    0.089600
    20  H    0.118477
    21  H    0.313538
    22  H    0.305439
 Sum of Mulliken charges =  -0.00000

 Dipole moment (field-independent basis, Debye):
    X=             -1.3142    Y=              0.5992    Z=              1.2534  Tot=              1.9123
 Quadrupole moment (field-independent basis, Debye-Ang):
   XX=            -53.9604   YY=            -49.5615   ZZ=            -50.4478
   XY=              1.5096   XZ=              1.1746   YZ=              1.8253

  Exact polarizability:  72.254   1.383  70.782  -0.235   0.680  69.733
 Approx polarizability:  96.098  -1.301  98.836  -1.091   0.885 100.684

                      1                      2                      3
                      A                      A                      A
 Frequencies --     80.5416               188.9484               204.2972
 Red. masses --      2.7768                 1.1268                 1.0394
 Frc consts  --      0.0106                 0.0237                 0.0256
 IR Inten    --      1.0973                69.2579                13.4708

                      4                      5                      6
                      A                      A                      A
 Frequencies --    242.5451               254.3268               266.0789
 Red. masses --      1.1411                 1.4688                 1.4575
 Frc consts  --      0.0396                 0.0560                 0.0608
 IR Inten    --     15.6066                 8.8166                 1.1682

                      7                      8                      9
                      A                      A                      A
 Frequencies --    282.5672               288.1050               297.7492
 Red. masses --      1.8196                 1.4486                 1.3550
 Frc consts  --      0.0856                 0.0708                 0.0708
 IR Inten    --     30.6124                62.8397                37.7212

                     10                     11                     12
                      A                      A                      A
 Frequencies --    352.0260               360.4911               369.4020
 Red. masses --      2.3338                 2.5148                 1.9534
 Frc consts  --      0.1704                 0.1925                 0.1570
 IR Inten    --      1.6134                 0.4645                 9.9533

                     13                     14                     15
                      A                      A                      A
 Frequencies --    402.0263               424.5306               511.1280
 Red. masses --      2.5929                 2.5516                 3.1095
 Frc consts  --      0.2469                 0.2709                 0.4786
 IR Inten    --     10.9330                 8.5940                 0.5284

                     16                     17                     18
                      A                      A                      A
 Frequencies --    533.9053               545.9039               681.7472
 Red. masses --      2.8852                 3.6422                 3.7785
 Frc consts  --      0.4846                 0.6395                 1.0347
 IR Inten    --      7.1602                 9.6733                 5.1029

                     19                     20                     21
                      A                      A                      A
 Frequencies --    828.5639               919.3229               939.0239
 Red. masses --      2.5759                 2.0850                 1.6397
 Frc consts  --      1.0419                 1.0382                 0.8519
 IR Inten    --      1.3058                21.6296                 1.6310

                     22                     23                     24
                      A                      A                      A
 Frequencies --    943.6988               964.0074               964.6268
 Red. masses --      1.6591                 1.2102                 2.0759
 Frc consts  --      0.8705                 0.6626                 1.1381
 IR Inten    --      1.4561                 0.4249                38.5916

                     25                     26                     27
                      A                      A                      A
 Frequencies --   1022.1384              1039.8788              1082.4340
 Red. masses --      1.7039                 1.3791                 1.8118
 Frc consts  --      1.0489                 0.8787                 1.2507
 IR Inten    --     21.4103                 1.3454                45.1539

                     28                     29                     30
                      A                      A                      A
 Frequencies --   1119.2641              1165.9373              1247.0433
 Red. masses --      1.5456                 2.2802                 2.4875
 Frc consts  --      1.1408                 1.8263                 2.2792
 IR Inten    --     91.8244                87.1464                18.3849

                     31                     32                     33
                      A                      A                      A
 Frequencies --   1250.2125              1274.3325              1322.1621
 Red. masses --      2.6371                 2.5859                 1.9345
 Frc consts  --      2.4285                 2.4741                 1.9924
 IR Inten    --      9.9002                 9.9681               105.3887

                     34                     35                     36
                      A                      A                      A
 Frequencies --   1379.2701              1404.0723              1410.8449
 Red. masses --      1.4226                 1.2696                 1.2500
 Frc consts  --      1.5945                 1.4747                 1.4660
 IR Inten    --     37.2654                 7.5518                10.3682

                     37                     38                     39
                      A                      A                      A
 Frequencies --   1431.2256              1442.1358              1494.4300
 Red. masses --      1.4206                 1.3180                 1.0490
 Frc consts  --      1.7145                 1.6150                 1.3803
 IR Inten    --     35.7335                14.3507                 0.8708

                     40                     41                     42
                      A                      A                      A
 Frequencies --   1500.0669              1504.3432              1513.0140
 Red. masses --      1.0520                 1.0495                 1.0500
 Frc consts  --      1.3947                 1.3993                 1.4163
 IR Inten    --      0.2254                 0.1445                 2.9013

                     43                     44                     45
                      A                      A                      A
 Frequencies --   1513.9133              1522.9501              1527.9185
 Red. masses --      1.0499                 1.0520                 1.0512
 Frc consts  --      1.4178                 1.4375                 1.4459
 IR Inten    --      2.8506                 1.9262                 4.5065

                     46                     47                     48
                      A                      A                      A
 Frequencies --   1541.3796              3035.8526              3043.2159
 Red. masses --      1.0590                 1.0371                 1.0355
 Frc consts  --      1.4824                 5.6314                 5.6501
 IR Inten    --     13.5961                28.6155                24.6800

                     49                     50                     51
                      A                      A                      A
 Frequencies --   3049.2015              3067.9727              3099.9161
 Red. masses --      1.0363                 1.0370                 1.0994
 Frc consts  --      5.6769                 5.7510                 6.2243
 IR Inten    --     15.6055                 8.0115                25.2282

                     52                     53                     54
                      A                      A                      A
 Frequencies --   3108.3004              3112.9181              3117.6693
 Red. masses --      1.1015                 1.1020                 1.1004
 Frc consts  --      6.2703                 6.2917                 6.3019
 IR Inten    --     13.9129                18.1568                60.4052

                     55                     56                     57
                      A                      A                      A
 Frequencies --   3128.7139              3132.4596              3143.5426
 Red. masses --      1.1025                 1.1021                 1.1011
 Frc consts  --      6.3584                 6.3716                 6.4109
 IR Inten    --     22.8361                22.2056                20.2059

                     58                     59                     60
                      A                      A                      A
 Frequencies --   3157.4258              3809.7807              3830.7058
 Red. masses --      1.1031                 1.0654                 1.0654
 Frc consts  --      6.4794                 9.1112                 9.2109
 IR Inten    --     15.5278                23.0859                15.2946

 - Thermochemistry -
 -------------------
 Temperature   298.150 Kelvin.  Pressure   1.00000 Atm.
 Atom     1 has atomic number  6 and mass  12.00000

 Molecular mass:   118.09938 amu.
 Principal axes and moments of inertia in atomic units:
                           1         2         3
     Eigenvalues --   746.073121041.952171056.34882
           X            0.99827   0.05581   0.01829
           Y           -0.05841   0.97590   0.21026
           Z           -0.00611  -0.21096   0.97748
 This molecule is an asymmetric top.
 Rotational symmetry number  1.
 Warning -- assumption of classical behavior for rotation
           may cause significant error
 Rotational temperatures (Kelvin)      0.11609     0.08313     0.08199
 Rotational constants (GHZ):           2.41899     1.73208     1.70847
 Zero-point vibrational energy     516740.1 (Joules/Mol)
                                  123.50386 (Kcal/Mol)
 Warning -- explicit consideration of  17 degrees of freedom as
           vibrations may cause significant error
 Vibrational temperatures:    115.88   271.85   293.94   348.97   365.92
          (Kelvin)            382.83   406.55   414.52   428.39   506.49
                              518.67   531.49   578.43   610.80   735.40
                              768.17   785.43   980.88  1192.12  1322.70
                             1351.04  1357.77  1386.99  1387.88  1470.63
                             1496.15  1557.38  1610.37  1677.52  1794.21
                             1798.77  1833.48  1902.29  1984.46  2020.14
                             2029.89  2059.21  2074.91  2150.15  2158.26
                             2164.41  2176.89  2178.18  2191.18  2198.33
                             2217.70  4367.91  4378.50  4387.12  4414.12
                             4460.08  4472.15  4478.79  4485.63  4501.52
                             4506.91  4522.85  4542.83  5481.42  5511.52

 Zero-point correction=                           0.196816 (Hartree/Particle)
 Thermal correction to Energy=                    0.207222
 Thermal correction to Enthalpy=                  0.208166
 Thermal correction to Gibbs Free Energy=         0.163103
 Sum of electronic and zero-point Energies=           -387.342920
 Sum of electronic and thermal Energies=              -387.332514
 Sum of electronic and thermal Enthalpies=            -387.331570
 Sum of electronic and thermal Free Energies=         -387.376633

                     E (Thermal)             CV                S
                      KCal/Mol        Cal/Mol-Kelvin    Cal/Mol-Kelvin
 Total                  130.034             39.925             94.844
 Electronic               0.000              0.000              0.000
 Translational            0.889              2.981             40.214
 Rotational               0.889              2.981             28.198
 Vibrational            128.256             33.963             26.432
 Vibration     1          0.600              1.962              3.878
 Vibration     2          0.633              1.855              2.238
 Vibration     3          0.640              1.834              2.094
 Vibration     4          0.659              1.775              1.784
 Vibration     5          0.665              1.755              1.700
 Vibration     6          0.672              1.735              1.622
 Vibration     7          0.682              1.706              1.518
 Vibration     8          0.685              1.696              1.485
 Vibration     9          0.691              1.678              1.430
 Vibration    10          0.729              1.571              1.157
 Vibration    11          0.735              1.554              1.120
 Vibration    12          0.742              1.535              1.082
 Vibration    13          0.768              1.466              0.955
 Vibration    14          0.787              1.417              0.877
 Vibration    15          0.866              1.225              0.631
 Vibration    16          0.889              1.175              0.579
 Vibration    17          0.901              1.149              0.553

 Optimization completed.
    -- Stationary point found.
 Normal termination of Gaussian 09 at Thu Sep  8 15:07:47 2022.
