 Gaussian 09, Revision E.01,
 Gaussian 09:  ES64L-G09RevE.01 30-Nov-2015

 --------------------------------
 #P OPT=calcfc Freq B3LYP/6-31G**
 --------------------------------

 --------
 Frag_320
 --------
 Symbolic Z-matrix:
 Charge =  0 Multiplicity = 1

 SCF Done:  E(RB3LYP) =  -205.301885145     A.U. after   14 cycles
 SCF Done:  E(RB3LYP) =  -205.316716533     A.U. after   13 cycles
 SCF Done:  E(RB3LYP) =  -205.315743045     A.U. after   13 cycles
 SCF Done:  E(RB3LYP) =  -205.316833700     A.U. after   11 cycles
 SCF Done:  E(RB3LYP) =  -205.317241164     A.U. after   13 cycles
 SCF Done:  E(RB3LYP) =  -205.318548486     A.U. after   13 cycles
 SCF Done:  E(RB3LYP) =  -205.321446811     A.U. after   13 cycles
 SCF Done:  E(RB3LYP) =  -205.321476505     A.U. after   13 cycles
 SCF Done:  E(RB3LYP) =  -205.326728649     A.U. after   12 cycles
 SCF Done:  E(RB3LYP) =  -205.329395431     A.U. after   13 cycles
 SCF Done:  E(RB3LYP) =  -205.331171348     A.U. after   12 cycles
 SCF Done:  E(RB3LYP) =  -205.331659681     A.U. after   11 cycles
 SCF Done:  E(RB3LYP) =  -205.331443627     A.U. after   11 cycles
 SCF Done:  E(RB3LYP) =  -205.331705135     A.U. after    7 cycles
 SCF Done:  E(RB3LYP) =  -205.331214296     A.U. after   12 cycles
 SCF Done:  E(RB3LYP) =  -205.331789180     A.U. after   10 cycles
 SCF Done:  E(RB3LYP) =  -205.331793870     A.U. after    9 cycles
 SCF Done:  E(RB3LYP) =  -205.331794702     A.U. after    8 cycles
 Optimization completed.
    -- Stationary point found.
 Normal termination of Gaussian 09 at Fri Sep 10 20:40:53 2021.

 ----------------------------------------------------------------------
 #P Geom=AllCheck Guess=TCheck SCRF=Check GenChk RB3LYP/6-31G(d,p) Freq
 ----------------------------------------------------------------------

 Structure from the checkpoint file:  "/public/home/users/caep010/.cache/gau_scr/Gau-170020.chk"
 --------
 Frag_320
 --------
 Charge =  0 Multiplicity = 1

                         Standard orientation:
 ---------------------------------------------------------------------
 Center     Atomic      Atomic             Coordinates (Angstroms)
 Number     Number       Type             X           Y           Z
 ---------------------------------------------------------------------
      1          7           0        1.326248   -0.649104   -0.011217
      2          6           0        0.771558    0.504568   -0.001384
      3          7           0       -0.592257    0.649976   -0.083386
      4          7           0       -1.429097   -0.481214    0.068552
      5          1           0        2.339665   -0.549653    0.018748
      6          1           0        1.287544    1.472293    0.050625
      7          1           0       -0.988876    1.491412    0.311082
      8          1           0       -0.920072   -1.147523    0.654949
      9          1           0       -1.481861   -0.931544   -0.844744
 ---------------------------------------------------------------------

 SCF Done:  E(RB3LYP) =  -205.331794702     A.U. after    1 cycles

 The electronic state is 1-A.
 Alpha  occ. eigenvalues --  -14.37426 -14.34702 -14.29856 -10.25398  -0.99134
 Alpha  occ. eigenvalues --   -0.87770  -0.78497  -0.60535  -0.53545  -0.49202
 Alpha  occ. eigenvalues --   -0.46606  -0.44813  -0.35055  -0.27275  -0.26381
 Alpha  occ. eigenvalues --   -0.23167
 Alpha virt. eigenvalues --    0.03287   0.08434   0.09662   0.12770   0.15586
 Alpha virt. eigenvalues --    0.18007   0.20864   0.32334   0.37811   0.55211
 Alpha virt. eigenvalues --    0.56082   0.61087   0.64475   0.67092   0.69129

 Mulliken charges:
               1
     1  N   -0.557229
     2  C    0.275119
     3  N   -0.376598
     4  N   -0.459110
     5  H    0.229414
     6  H    0.082330
     7  H    0.271138
     8  H    0.266687
     9  H    0.268248
 Sum of Mulliken charges =   0.00000

 Dipole moment (field-independent basis, Debye):
    X=              0.6952    Y=              1.7217    Z=              0.2016  Tot=              1.8677
 Quadrupole moment (field-independent basis, Debye-Ang):
   XX=            -24.1072   YY=            -21.8562   ZZ=            -24.5021
   XY=              1.7940   XZ=              1.0205   YZ=              1.2255

  Exact polarizability:  40.793  -2.088  35.613   0.999   0.789  18.343
 Approx polarizability:  56.290  -9.230  55.894   2.022   0.308  25.519

                      1                      2                      3
                      A                      A                      A
 Frequencies --    192.8065               303.2318               353.3679
 Red. masses --      1.1925                 3.0654                 2.4381
 Frc consts  --      0.0261                 0.1661                 0.1794
 IR Inten    --     16.9990                29.1054                56.9146

                      4                      5                      6
                      A                      A                      A
 Frequencies --    540.8858               767.5904               812.8401
 Red. masses --      1.2329                 2.6206                 1.4599
 Frc consts  --      0.2125                 0.9097                 0.5683
 IR Inten    --    167.3492                51.5391                66.0290

                      7                      8                      9
                      A                      A                      A
 Frequencies --    934.1172              1042.5295              1116.5467
 Red. masses --      2.5684                 1.3230                 1.8306
 Frc consts  --      1.3204                 0.8472                 1.3446
 IR Inten    --     74.8453                 5.4227                18.5367

                     10                     11                     12
                      A                      A                      A
 Frequencies --   1162.7774              1312.8903              1362.3503
 Red. masses --      1.2976                 1.6415                 1.1689
 Frc consts  --      1.0337                 1.6671                 1.2782
 IR Inten    --     84.1328                38.0918                 7.5932

                     13                     14                     15
                      A                      A                      A
 Frequencies --   1402.7147              1499.9638              1718.0393
 Red. masses --      1.4360                 1.5508                 1.1676
 Frc consts  --      1.6647                 2.0557                 2.0306
 IR Inten    --     41.2820                34.3613                86.0133

                     16                     17                     18
                      A                      A                      A
 Frequencies --   1728.1848              3055.7979              3434.3981
 Red. masses --      3.5794                 1.0889                 1.0508
 Frc consts  --      6.2985                 5.9911                 7.3028
 IR Inten    --    135.2912                60.2703                 4.5076

                     19                     20                     21
                      A                      A                      A
 Frequencies --   3511.5394              3524.3477              3616.9405
 Red. masses --      1.0898                 1.0763                 1.0782
 Frc consts  --      7.9179                 7.8767                 8.3106
 IR Inten    --      0.6859                 0.6125                25.1480

 - Thermochemistry -
 -------------------
 Temperature   298.150 Kelvin.  Pressure   1.00000 Atm.
 Atom     1 has atomic number  7 and mass  14.00307

 Molecular mass:    59.04835 amu.
 Principal axes and moments of inertia in atomic units:
                           1         2         3
     Eigenvalues --    94.31423 278.44594 362.76199
           X            0.99953   0.03008   0.00646
           Y           -0.03023   0.99925   0.02412
           Z           -0.00573  -0.02431   0.99969
 This molecule is an asymmetric top.
 Rotational symmetry number  1.
 Rotational temperatures (Kelvin)      0.91835     0.31106     0.23876
 Rotational constants (GHZ):          19.13541     6.48148     4.97500
 Zero-point vibrational energy     199739.6 (Joules/Mol)
                                   47.73892 (Kcal/Mol)
 Warning -- explicit consideration of   4 degrees of freedom as
           vibrations may cause significant error
 Vibrational temperatures:    277.41   436.28   508.42   778.21  1104.39
          (Kelvin)           1169.49  1343.98  1499.97  1606.46  1672.98
                             1888.95  1960.12  2018.19  2158.11  2471.87
                             2486.47  4396.61  4941.33  5052.32  5070.74
                             5203.96

 Zero-point correction=                           0.076077 (Hartree/Particle)
 Thermal correction to Energy=                    0.080771
 Thermal correction to Enthalpy=                  0.081715
 Thermal correction to Gibbs Free Energy=         0.049379
 Sum of electronic and zero-point Energies=           -205.255718
 Sum of electronic and thermal Energies=              -205.251024
 Sum of electronic and thermal Enthalpies=            -205.250080
 Sum of electronic and thermal Free Energies=         -205.282416

                     E (Thermal)             CV                S
                      KCal/Mol        Cal/Mol-Kelvin    Cal/Mol-Kelvin
 Total                   50.684             15.337             68.057
 Electronic               0.000              0.000              0.000
 Translational            0.889              2.981             38.148
 Rotational               0.889              2.981             23.770
 Vibrational             48.907              9.375              6.139
 Vibration     1          0.635              1.850              2.201
 Vibration     2          0.695              1.668              1.399
 Vibration     3          0.730              1.568              1.151
 Vibration     4          0.896              1.160              0.563

 Optimization completed.
    -- Stationary point found.
 Normal termination of Gaussian 09 at Fri Sep 10 20:40:59 2021.
