 Gaussian 09, Revision E.01,
 Gaussian 09:  ES64L-G09RevE.01 30-Nov-2015

 ----------------------------
 #P OPT Freq B3LYP/6-31G(d,p)
 ----------------------------

 --------
 Frag_770
 --------
 Symbolic Z-matrix:
 Charge =  0 Multiplicity = 1

 SCF Done:  E(RB3LYP) =  -343.183474592     A.U. after   14 cycles
 SCF Done:  E(RB3LYP) =  -343.183555057     A.U. after   11 cycles
 SCF Done:  E(RB3LYP) =  -343.183281984     A.U. after   12 cycles
 SCF Done:  E(RB3LYP) =  -343.183575129     A.U. after    8 cycles
 SCF Done:  E(RB3LYP) =  -343.183579525     A.U. after   11 cycles
 SCF Done:  E(RB3LYP) =  -343.183586048     A.U. after   11 cycles
 SCF Done:  E(RB3LYP) =  -343.183587736     A.U. after    7 cycles
 SCF Done:  E(RB3LYP) =  -343.183588682     A.U. after    8 cycles
 SCF Done:  E(RB3LYP) =  -343.183588845     A.U. after    7 cycles
 SCF Done:  E(RB3LYP) =  -343.183588965     A.U. after    7 cycles
 Optimization completed.
    -- Stationary point found.
 Normal termination of Gaussian 09 at Thu Sep  8 15:02:49 2022.

 ----------------------------------------------------------------------
 #P Geom=AllCheck Guess=TCheck SCRF=Check GenChk RB3LYP/6-31G(d,p) Freq
 ----------------------------------------------------------------------

 Structure from the checkpoint file:  "B3LYP6-31Gdp.Frag_770.chk"
 --------
 Frag_770
 --------
 Charge =  0 Multiplicity = 1

                         Standard orientation:
 ---------------------------------------------------------------------
 Center     Atomic      Atomic             Coordinates (Angstroms)
 Number     Number       Type             X           Y           Z
 ---------------------------------------------------------------------
      1          6           0       -1.894950   -0.883821    0.004399
      2          6           0       -0.916156    0.267291   -0.020344
      3          8           0       -1.282475    1.428032    0.021061
      4          6           0        0.603568   -0.059469   -0.053897
      5          6           0        1.050725   -0.215781    1.417966
      6          7           0        0.814633   -1.339100   -0.733959
      7          7           0        1.260089    1.051074   -0.745829
      8          1           0       -1.923649   -1.357815   -0.982358
      9          1           0       -2.886620   -0.507791    0.260004
     10          1           0       -1.578472   -1.663945    0.701137
     11          1           0        2.130365   -0.408398    1.451236
     12          1           0        0.849417    0.702712    1.975065
     13          1           0        0.546545   -1.050271    1.914269
     14          1           0        1.755172   -1.673678   -0.533245
     15          1           0        0.796324   -1.157655   -1.736493
     16          1           0        2.222695    1.147560   -0.431654
     17          1           0        0.765855    1.911898   -0.516670
 ---------------------------------------------------------------------

 SCF Done:  E(RB3LYP) =  -343.183588965     A.U. after    1 cycles

 The electronic state is 1-A.
 Alpha  occ. eigenvalues --  -19.14201 -14.31674 -14.30839 -10.27390 -10.25134
 Alpha  occ. eigenvalues --  -10.18951 -10.18398  -1.04275  -0.92061  -0.83783
 Alpha  occ. eigenvalues --   -0.74808  -0.72293  -0.63031  -0.52279  -0.49946
 Alpha  occ. eigenvalues --   -0.48238  -0.47010  -0.44780  -0.42505  -0.41630
 Alpha  occ. eigenvalues --   -0.40543  -0.39669  -0.37729  -0.36381  -0.34677
 Alpha  occ. eigenvalues --   -0.26961  -0.25222  -0.22657
 Alpha virt. eigenvalues --   -0.01604   0.06854   0.11399   0.11919   0.13939
 Alpha virt. eigenvalues --    0.14709   0.15872   0.17213   0.17426   0.18696
 Alpha virt. eigenvalues --    0.20088   0.21978   0.22952   0.25582   0.28714

 Mulliken charges:
               1
     1  C   -0.361876
     2  C    0.437177
     3  O   -0.454491
     4  C    0.179722
     5  C   -0.319317
     6  N   -0.585682
     7  N   -0.598934
     8  H    0.141883
     9  H    0.126357
    10  H    0.133020
    11  H    0.099980
    12  H    0.122377
    13  H    0.118223
    14  H    0.232905
    15  H    0.245620
    16  H    0.226019
    17  H    0.257017
 Sum of Mulliken charges =   0.00000

 Dipole moment (field-independent basis, Debye):
    X=              1.8616    Y=             -1.5247    Z=              0.8076  Tot=              2.5382
 Quadrupole moment (field-independent basis, Debye-Ang):
   XX=            -39.4578   YY=            -46.3608   ZZ=            -42.7620
   XY=              2.8563   XZ=              1.1488   YZ=              1.4391

  Exact polarizability:  63.188  -0.191  61.306   0.505   0.306  50.344
 Approx polarizability:  82.078  -5.369  94.607   0.473   0.112  69.929

                      1                      2                      3
                      A                      A                      A
 Frequencies --     64.1327               134.7695               228.8244
 Red. masses --      3.9854                 1.0308                 2.3602
 Frc consts  --      0.0097                 0.0110                 0.0728
 IR Inten    --      4.8896                 0.3253                 3.6640

                      4                      5                      6
                      A                      A                      A
 Frequencies --    243.4382               287.3519               291.6935
 Red. masses --      1.2109                 1.7263                 1.5341
 Frc consts  --      0.0423                 0.0840                 0.0769
 IR Inten    --      2.2362                10.9408                58.1993

                      7                      8                      9
                      A                      A                      A
 Frequencies --    294.8181               356.7658               391.7504
 Red. masses --      1.0582                 2.5847                 3.9512
 Frc consts  --      0.0542                 0.1938                 0.3573
 IR Inten    --     13.9805                 1.6287                 2.0547

                     10                     11                     12
                      A                      A                      A
 Frequencies --    452.4604               495.0873               573.7500
 Red. masses --      2.5377                 2.9476                 3.6555
 Frc consts  --      0.3061                 0.4257                 0.7090
 IR Inten    --     22.7117                 8.9225                13.9801

                     13                     14                     15
                      A                      A                      A
 Frequencies --    612.3831               691.7360               848.9608
 Red. masses --      2.4138                 3.1278                 2.6371
 Frc consts  --      0.5333                 0.8818                 1.1198
 IR Inten    --      3.0833                10.1510                36.1291

                     16                     17                     18
                      A                      A                      A
 Frequencies --    890.8225               915.9254               975.6083
 Red. masses --      1.6370                 1.4437                 1.8494
 Frc consts  --      0.7654                 0.7136                 1.0371
 IR Inten    --    190.9955                72.7655                 5.3205

                     19                     20                     21
                      A                      A                      A
 Frequencies --    988.8601              1025.6967              1031.1947
 Red. masses --      1.5684                 1.4782                 1.7205
 Frc consts  --      0.9036                 0.9163                 1.0779
 IR Inten    --      9.5502                 3.2220                21.3632

                     22                     23                     24
                      A                      A                      A
 Frequencies --   1116.3759              1197.4290              1250.2187
 Red. masses --      1.8016                 2.1929                 3.4808
 Frc consts  --      1.3229                 1.8526                 3.2055
 IR Inten    --     24.3161                67.6758                39.6805

                     25                     26                     27
                      A                      A                      A
 Frequencies --   1268.7096              1384.1279              1400.3212
 Red. masses --      1.6919                 1.7905                 1.3870
 Frc consts  --      1.6045                 2.0210                 1.6024
 IR Inten    --     19.5439                 1.5053                29.7334

                     28                     29                     30
                      A                      A                      A
 Frequencies --   1409.9944              1463.9747              1478.1536
 Red. masses --      1.2356                 1.0570                 1.0555
 Frc consts  --      1.4473                 1.3347                 1.3587
 IR Inten    --      5.7049                17.7432                 8.3986

                     31                     32                     33
                      A                      A                      A
 Frequencies --   1500.7923              1512.9992              1636.9665
 Red. masses --      1.0505                 1.0738                 1.1183
 Frc consts  --      1.3940                 1.4482                 1.7656
 IR Inten    --      2.6655                 4.0284                68.0122

                     34                     35                     36
                      A                      A                      A
 Frequencies --   1679.3864              1806.7117              3035.8199
 Red. masses --      1.0928                 9.4893                 1.0396
 Frc consts  --      1.8159                18.2501                 5.6449
 IR Inten    --     31.4264               116.7700                19.1613

                     37                     38                     39
                      A                      A                      A
 Frequencies --   3062.5219              3109.3703              3128.0202
 Red. masses --      1.0361                 1.0968                 1.0965
 Frc consts  --      5.7257                 6.2477                 6.3212
 IR Inten    --      0.9763                23.9057                 7.3007

                     40                     41                     42
                      A                      A                      A
 Frequencies --   3140.6633              3168.6389              3479.2112
 Red. masses --      1.1034                 1.1065                 1.0496
 Frc consts  --      6.4124                 6.5457                 7.4857
 IR Inten    --     16.5309                13.2053                 5.9044

                     43                     44                     45
                      A                      A                      A
 Frequencies --   3481.1846              3559.6106              3573.5292
 Red. masses --      1.0487                 1.0918                 1.0932
 Frc consts  --      7.4878                 8.1506                 8.2253
 IR Inten    --      5.9934                 1.4326                 4.7988

 - Thermochemistry -
 -------------------
 Temperature   298.150 Kelvin.  Pressure   1.00000 Atm.
 Atom     1 has atomic number  6 and mass  12.00000

 Molecular mass:   102.07931 amu.
 Principal axes and moments of inertia in atomic units:
                           1         2         3
     Eigenvalues --   548.68108 761.38906 920.95848
           X            0.99490   0.09848   0.02173
           Y           -0.09864   0.99510   0.00623
           Z           -0.02101  -0.00834   0.99974
 This molecule is an asymmetric top.
 Rotational symmetry number  1.
 Warning -- assumption of classical behavior for rotation
           may cause significant error
 Rotational temperatures (Kelvin)      0.15786     0.11376     0.09405
 Rotational constants (GHZ):           3.28924     2.37033     1.95963
 Zero-point vibrational energy     386637.6 (Joules/Mol)
                                   92.40861 (Kcal/Mol)
 Warning -- explicit consideration of  13 degrees of freedom as
           vibrations may cause significant error
 Vibrational temperatures:     92.27   193.90   329.23   350.25   413.43
          (Kelvin)            419.68   424.18   513.31   563.64   650.99
                              712.32   825.50   881.08   995.25  1221.46
                             1281.69  1317.81  1403.68  1422.75  1475.75
                             1483.66  1606.21  1722.83  1798.78  1825.39
                             1991.45  2014.75  2028.66  2106.33  2126.73
                             2159.30  2176.87  2355.23  2416.26  2599.45
                             4367.86  4406.28  4473.68  4500.52  4518.71
                             4558.96  5005.80  5008.64  5121.48  5141.50

 Zero-point correction=                           0.147262 (Hartree/Particle)
 Thermal correction to Energy=                    0.155916
 Thermal correction to Enthalpy=                  0.156860
 Thermal correction to Gibbs Free Energy=         0.114848
 Sum of electronic and zero-point Energies=           -343.036326
 Sum of electronic and thermal Energies=              -343.027673
 Sum of electronic and thermal Enthalpies=            -343.026729
 Sum of electronic and thermal Free Energies=         -343.068741

                     E (Thermal)             CV                S
                      KCal/Mol        Cal/Mol-Kelvin    Cal/Mol-Kelvin
 Total                   97.838             31.704             88.421
 Electronic               0.000              0.000              0.000
 Translational            0.889              2.981             39.779
 Rotational               0.889              2.981             27.445
 Vibrational             96.061             25.742             21.197
 Vibration     1          0.597              1.971              4.326
 Vibration     2          0.613              1.919              2.877
 Vibration     3          0.651              1.797              1.888
 Vibration     4          0.659              1.774              1.778
 Vibration     5          0.685              1.697              1.490
 Vibration     6          0.687              1.689              1.464
 Vibration     7          0.689              1.683              1.446
 Vibration     8          0.732              1.561              1.136
 Vibration     9          0.759              1.488              0.993
 Vibration    10          0.811              1.355              0.788
 Vibration    11          0.851              1.261              0.671
 Vibration    12          0.930              1.088              0.497
 Vibration    13          0.972              1.006              0.429

 Normal termination of Gaussian 09 at Thu Sep  8 15:03:06 2022.
