 Gaussian 09, Revision E.01,
 Gaussian 09:  ES64L-G09RevE.01 30-Nov-2015

 ----------------------------
 #P OPT Freq B3LYP/6-31G(d,p)
 ----------------------------

 --------
 Frag_454
 --------
 Symbolic Z-matrix:
 Charge =  0 Multiplicity = 1

 SCF Done:  E(RB3LYP) =  -328.334982711     A.U. after   12 cycles
 SCF Done:  E(RB3LYP) =  -328.335027969     A.U. after   10 cycles
 SCF Done:  E(RB3LYP) =  -328.335035030     A.U. after    8 cycles
 SCF Done:  E(RB3LYP) =  -328.335037552     A.U. after    7 cycles
 SCF Done:  E(RB3LYP) =  -328.335038663     A.U. after    7 cycles
 SCF Done:  E(RB3LYP) =  -328.335039187     A.U. after    7 cycles
 SCF Done:  E(RB3LYP) =  -328.335039599     A.U. after    7 cycles
 SCF Done:  E(RB3LYP) =  -328.335039771     A.U. after    7 cycles
 Optimization completed.
    -- Stationary point found.
 Normal termination of Gaussian 09 at Thu Sep  8 15:15:57 2022.

 ----------------------------------------------------------------------
 #P Geom=AllCheck Guess=TCheck SCRF=Check GenChk RB3LYP/6-31G(d,p) Freq
 ----------------------------------------------------------------------

 Structure from the checkpoint file:  "B3LYP6-31Gdp.Frag_454.chk"
 --------
 Frag_454
 --------
 Charge =  0 Multiplicity = 1

                         Standard orientation:
 ---------------------------------------------------------------------
 Center     Atomic      Atomic             Coordinates (Angstroms)
 Number     Number       Type             X           Y           Z
 ---------------------------------------------------------------------
      1          6           0        1.598520   -1.128242   -0.121601
      2          7           0        0.818936    0.077949   -0.386824
      3          6           0        1.506004    1.264694    0.099229
      4          6           0       -0.602656   -0.029264   -0.034749
      5          6           0       -0.857895   -0.342099    1.455947
      6          6           0       -1.359665    1.239199   -0.459232
      7          8           0       -1.075754   -1.122362   -0.835009
      8          1           0        2.545174   -1.062919   -0.668495
      9          1           0        1.843114   -1.278014    0.946529
     10          1           0        1.052071   -1.999040   -0.482282
     11          1           0        1.012647    2.176041   -0.243799
     12          1           0        1.600129    1.316351    1.201278
     13          1           0        2.520815    1.269974   -0.311136
     14          1           0       -0.434156    0.432519    2.102748
     15          1           0       -1.932860   -0.388469    1.667006
     16          1           0       -0.414994   -1.302633    1.730575
     17          1           0       -1.149048    2.099040    0.182673
     18          1           0       -2.435464    1.045659   -0.403394
     19          1           0       -1.106611    1.486879   -1.492867
     20          1           0       -1.933194   -1.387870   -0.478562
 ---------------------------------------------------------------------

 SCF Done:  E(RB3LYP) =  -328.335039771     A.U. after    1 cycles

 The electronic state is 1-A.
 Alpha  occ. eigenvalues --  -19.13696 -14.31637 -10.26427 -10.19796 -10.18835
 Alpha  occ. eigenvalues --  -10.17579 -10.17140  -1.01991  -0.90154  -0.75657
 Alpha  occ. eigenvalues --   -0.70173  -0.68428  -0.64473  -0.55310  -0.48702
 Alpha  occ. eigenvalues --   -0.48220  -0.45423  -0.42980  -0.42114  -0.40394
 Alpha  occ. eigenvalues --   -0.39628  -0.38093  -0.37384  -0.36180  -0.35313
 Alpha  occ. eigenvalues --   -0.34801  -0.32640  -0.26465  -0.20258
 Alpha virt. eigenvalues --    0.06638   0.10650   0.12611   0.13373   0.13994
 Alpha virt. eigenvalues --    0.14936   0.15714   0.17620   0.17846   0.19012
 Alpha virt. eigenvalues --    0.19791   0.20312   0.21138   0.21907   0.22880

 Mulliken charges:
               1
     1  C   -0.165561
     2  N   -0.403157
     3  C   -0.159472
     4  C    0.412725
     5  C   -0.336189
     6  C   -0.319729
     7  O   -0.550105
     8  H    0.101097
     9  H    0.071760
    10  H    0.133051
    11  H    0.109174
    12  H    0.075713
    13  H    0.106737
    14  H    0.106951
    15  H    0.089780
    16  H    0.114732
    17  H    0.098508
    18  H    0.088749
    19  H    0.126514
    20  H    0.298724
 Sum of Mulliken charges =  -0.00000

 Dipole moment (field-independent basis, Debye):
    X=             -0.8080    Y=              0.4477    Z=              1.6702  Tot=              1.9087
 Quadrupole moment (field-independent basis, Debye-Ang):
   XX=            -40.7793   YY=            -44.3451   ZZ=            -48.6886
   XY=              1.3996   XZ=             -0.6406   YZ=             -1.2497

  Exact polarizability:  72.470   0.403  65.425  -0.691  -0.177  58.437
 Approx polarizability:  94.050   2.426  89.059  -0.617   2.407  83.944

                      1                      2                      3
                      A                      A                      A
 Frequencies --     88.2941               227.4996               235.2714
 Red. masses --      2.5477                 1.0641                 1.1159
 Frc consts  --      0.0117                 0.0324                 0.0364
 IR Inten    --      0.5065                 3.6913                20.2023

                      4                      5                      6
                      A                      A                      A
 Frequencies --    246.6229               256.9442               266.8390
 Red. masses --      1.0854                 1.6965                 1.2006
 Frc consts  --      0.0389                 0.0660                 0.0504
 IR Inten    --     65.2510                10.4756                 0.7615

                      7                      8                      9
                      A                      A                      A
 Frequencies --    285.3300               323.1051               360.9256
 Red. masses --      1.3333                 2.0966                 2.2269
 Frc consts  --      0.0640                 0.1290                 0.1709
 IR Inten    --      1.3772                 3.1676                 1.1809

                     10                     11                     12
                      A                      A                      A
 Frequencies --    388.2779               416.8566               483.8150
 Red. masses --      3.0892                 2.2617                 2.2373
 Frc consts  --      0.2744                 0.2316                 0.3086
 IR Inten    --      2.3356                 2.0018                 0.6389

                     13                     14                     15
                      A                      A                      A
 Frequencies --    509.8050               525.7349               707.1541
 Red. masses --      3.4869                 3.2846                 3.5892
 Frc consts  --      0.5339                 0.5349                 1.0575
 IR Inten    --     11.4341                 8.5318                 4.3133

                     16                     17                     18
                      A                      A                      A
 Frequencies --    853.4669               911.2092               957.8641
 Red. masses --      2.7579                 1.5510                 2.1123
 Frc consts  --      1.1836                 0.7587                 1.1418
 IR Inten    --     20.3776                 1.2061                21.6998

                     19                     20                     21
                      A                      A                      A
 Frequencies --   1007.5875              1011.6333              1076.0186
 Red. masses --      1.7506                 1.5062                 1.4745
 Frc consts  --      1.0471                 0.9082                 1.0059
 IR Inten    --     24.0661                26.2939                 6.9914

                     22                     23                     24
                      A                      A                      A
 Frequencies --   1117.8164              1128.2337              1184.1619
 Red. masses --      1.5206                 1.2646                 1.5175
 Frc consts  --      1.1194                 0.9484                 1.2537
 IR Inten    --     85.8893                 5.5313                 8.1443

                     25                     26                     27
                      A                      A                      A
 Frequencies --   1196.6338              1220.4301              1291.4315
 Red. masses --      2.7011                 2.7775                 3.4975
 Frc consts  --      2.2789                 2.4374                 3.4368
 IR Inten    --      5.5382                78.6098                43.3521

                     28                     29                     30
                      A                      A                      A
 Frequencies --   1294.8776              1366.0678              1407.1698
 Red. masses --      1.9265                 1.9071                 1.3026
 Frc consts  --      1.9031                 2.0969                 1.5197
 IR Inten    --     47.6330                62.9847                17.3332

                     31                     32                     33
                      A                      A                      A
 Frequencies --   1423.5215              1448.9011              1481.5229
 Red. masses --      1.2601                 1.1532                 1.1576
 Frc consts  --      1.5044                 1.4263                 1.4970
 IR Inten    --     17.5676                 1.2102                 2.9171

                     34                     35                     36
                      A                      A                      A
 Frequencies --   1492.5628              1497.8213              1507.8085
 Red. masses --      1.0498                 1.0559                 1.0476
 Frc consts  --      1.3779                 1.3958                 1.4033
 IR Inten    --      3.7428                 3.1650                 0.3192

                     37                     38                     39
                      A                      A                      A
 Frequencies --   1508.2951              1522.6228              1524.5780
 Red. masses --      1.0508                 1.0478                 1.0566
 Frc consts  --      1.4085                 1.4313                 1.4469
 IR Inten    --     13.1121                10.0792                 1.1292

                     40                     41                     42
                      A                      A                      A
 Frequencies --   1527.3552              1535.0513              2928.9228
 Red. masses --      1.0642                 1.0715                 1.0622
 Frc consts  --      1.4626                 1.4876                 5.3686
 IR Inten    --      6.2852                 2.3669                54.9295

                     43                     44                     45
                      A                      A                      A
 Frequencies --   2944.4152              3042.0840              3054.5079
 Red. masses --      1.0622                 1.0392                 1.0363
 Frc consts  --      5.4256                 5.6661                 5.6967
 IR Inten    --    114.6525                16.0122                17.6781

                     46                     47                     48
                      A                      A                      A
 Frequencies --   3075.0627              3079.9567              3106.7657
 Red. masses --      1.0783                 1.0729                 1.0985
 Frc consts  --      6.0074                 5.9962                 6.2467
 IR Inten    --     31.2845                50.9819                12.6395

                     49                     50                     51
                      A                      A                      A
 Frequencies --   3121.2715              3137.3088              3139.1101
 Red. masses --      1.1015                 1.0988                 1.1013
 Frc consts  --      6.3225                 6.3721                 6.3938
 IR Inten    --     46.8161                10.2049                32.9670

                     52                     53                     54
                      A                      A                      A
 Frequencies --   3147.5621              3166.0406              3824.1190
 Red. masses --      1.1031                 1.0958                 1.0660
 Frc consts  --      6.4391                 6.4718                 9.1848
 IR Inten    --     20.8469                 9.1606                11.1753

 - Thermochemistry -
 -------------------
 Temperature   298.150 Kelvin.  Pressure   1.00000 Atm.
 Atom     1 has atomic number  6 and mass  12.00000

 Molecular mass:   103.09971 amu.
 Principal axes and moments of inertia in atomic units:
                           1         2         3
     Eigenvalues --   566.49603 772.01737 928.50922
           X            0.99904  -0.04294  -0.00880
           Y            0.04241   0.99768  -0.05321
           Z            0.01106   0.05279   0.99854
 This molecule is an asymmetric top.
 Rotational symmetry number  1.
 Warning -- assumption of classical behavior for rotation
           may cause significant error
 Rotational temperatures (Kelvin)      0.15289     0.11219     0.09328
 Rotational constants (GHZ):           3.18580     2.33770     1.94370
 Zero-point vibrational energy     476019.5 (Joules/Mol)
                                  113.77139 (Kcal/Mol)
 Warning -- explicit consideration of  14 degrees of freedom as
           vibrations may cause significant error
 Vibrational temperatures:    127.04   327.32   338.50   354.83   369.68
          (Kelvin)            383.92   410.53   464.88   519.29   558.64
                              599.76   696.10   733.49   756.41  1017.44
                             1227.95  1311.03  1378.15  1449.69  1455.51
                             1548.15  1608.29  1623.27  1703.74  1721.69
                             1755.92  1858.08  1863.04  1965.46  2024.60
                             2048.13  2084.64  2131.58  2147.46  2155.03
                             2169.40  2170.10  2190.71  2193.52  2197.52
                             2208.59  4214.06  4236.35  4376.87  4394.75
                             4424.32  4431.37  4469.94  4490.81  4513.88
                             4516.47  4528.63  4555.22  5502.05

 Zero-point correction=                           0.181306 (Hartree/Particle)
 Thermal correction to Energy=                    0.190365
 Thermal correction to Enthalpy=                  0.191309
 Thermal correction to Gibbs Free Energy=         0.149035
 Sum of electronic and zero-point Energies=           -328.153734
 Sum of electronic and thermal Energies=              -328.144675
 Sum of electronic and thermal Enthalpies=            -328.143731
 Sum of electronic and thermal Free Energies=         -328.186005

                     E (Thermal)             CV                S
                      KCal/Mol        Cal/Mol-Kelvin    Cal/Mol-Kelvin
 Total                  119.456             34.105             88.973
 Electronic               0.000              0.000              0.000
 Translational            0.889              2.981             39.809
 Rotational               0.889              2.981             27.498
 Vibrational            117.678             28.143             21.665
 Vibration     1          0.601              1.957              3.698
 Vibration     2          0.651              1.799              1.899
 Vibration     3          0.655              1.787              1.838
 Vibration     4          0.661              1.768              1.755
 Vibration     5          0.667              1.751              1.682
 Vibration     6          0.672              1.734              1.617
 Vibration     7          0.683              1.701              1.502
 Vibration     8          0.708              1.629              1.294
 Vibration     9          0.735              1.553              1.118
 Vibration    10          0.756              1.495              1.007
 Vibration    11          0.780              1.434              0.903
 Vibration    12          0.840              1.286              0.700
 Vibration    13          0.865              1.228              0.634
 Vibration    14          0.881              1.193              0.597

 Optimization completed.
    -- Stationary point found.
 Normal termination of Gaussian 09 at Thu Sep  8 15:16:16 2022.
