 Gaussian 09, Revision E.01,
 Gaussian 09:  ES64L-G09RevE.01 30-Nov-2015

 ----------------------------
 #P OPT Freq B3LYP/6-31G(d,p)
 ----------------------------

 --------
 Frag_707
 --------
 Symbolic Z-matrix:
 Charge =  0 Multiplicity = 1

 SCF Done:  E(RB3LYP) =  -210.097602131     A.U. after   14 cycles
 SCF Done:  E(RB3LYP) =  -210.097736566     A.U. after   11 cycles
 SCF Done:  E(RB3LYP) =  -210.097637955     A.U. after   11 cycles
 SCF Done:  E(RB3LYP) =  -210.097739469     A.U. after   11 cycles
 SCF Done:  E(RB3LYP) =  -210.097741504     A.U. after    9 cycles
 SCF Done:  E(RB3LYP) =  -210.097742496     A.U. after    8 cycles
 SCF Done:  E(RB3LYP) =  -210.097742745     A.U. after    8 cycles
 Optimization completed.
    -- Stationary point found.
 Normal termination of Gaussian 09 at Thu Sep  8 15:14:42 2022.

 ----------------------------------------------------------------------
 #P Geom=AllCheck Guess=TCheck SCRF=Check GenChk RB3LYP/6-31G(d,p) Freq
 ----------------------------------------------------------------------

 Structure from the checkpoint file:  "B3LYP6-31Gdp.Frag_707.chk"
 --------
 Frag_707
 --------
 Charge =  0 Multiplicity = 1

                         Standard orientation:
 ---------------------------------------------------------------------
 Center     Atomic      Atomic             Coordinates (Angstroms)
 Number     Number       Type             X           Y           Z
 ---------------------------------------------------------------------
      1          6           0        2.190101    0.008200    0.007084
      2          6           0        0.981512    0.057449   -0.011385
      3          6           0       -0.454035    0.067299   -0.005683
      4          6           0       -1.140185    1.227962    0.018512
      5          7           0       -1.046606   -1.202770   -0.090708
      6          1           0        3.255388   -0.011460    0.009857
      7          1           0       -0.620737    2.175933   -0.001269
      8          1           0       -2.225471    1.240031    0.030668
      9          1           0       -0.523449   -1.934509    0.371904
     10          1           0       -2.023841   -1.216062    0.172633
 ---------------------------------------------------------------------

 SCF Done:  E(RB3LYP) =  -210.097742745     A.U. after    1 cycles

 The electronic state is 1-A.
 Alpha  occ. eigenvalues --  -14.34167 -10.24235 -10.19174 -10.18746 -10.17008
 Alpha  occ. eigenvalues --   -0.91621  -0.76877  -0.72114  -0.61600  -0.53349
 Alpha  occ. eigenvalues --   -0.51232  -0.48164  -0.42258  -0.39107  -0.36252
 Alpha  occ. eigenvalues --   -0.27797  -0.27394  -0.20751
 Alpha virt. eigenvalues --   -0.00661   0.04368   0.08886   0.11980   0.13156
 Alpha virt. eigenvalues --    0.14263   0.16765   0.18654   0.25230   0.35156
 Alpha virt. eigenvalues --    0.36814   0.44479   0.49283   0.52382   0.53414

 Mulliken charges:
               1
     1  C   -0.456233
     2  C    0.306080
     3  C    0.177957
     4  C   -0.277775
     5  N   -0.620770
     6  H    0.163452
     7  H    0.106463
     8  H    0.084894
     9  H    0.259834
    10  H    0.256100
 Sum of Mulliken charges =   0.00000

 Dipole moment (field-independent basis, Debye):
    X=             -0.3107    Y=             -0.9457    Z=              1.0980  Tot=              1.4820
 Quadrupole moment (field-independent basis, Debye-Ang):
   XX=            -21.9235   YY=            -27.4641   ZZ=            -32.5261
   XY=              0.9973   XZ=             -1.2213   YZ=             -2.1882

  Exact polarizability:  71.532  -8.010  48.353  -0.147  -0.433  18.675
 Approx polarizability: 117.069 -20.310  75.490   0.130   0.833  25.975

                      1                      2                      3
                      A                      A                      A
 Frequencies --    190.6740               280.5521               319.4933
 Red. masses --      3.4353                 2.1209                 1.3140
 Frc consts  --      0.0736                 0.0984                 0.0790
 IR Inten    --      2.4207                12.7689                24.7994

                      4                      5                      6
                      A                      A                      A
 Frequencies --    427.3843               571.4476               587.3501
 Red. masses --      2.4288                 3.4396                 1.5011
 Frc consts  --      0.2614                 0.6618                 0.3051
 IR Inten    --      7.2051                57.3646                53.4509

                      7                      8                      9
                      A                      A                      A
 Frequencies --    613.6949               654.9190               680.5021
 Red. masses --      1.5731                 1.2245                 1.8990
 Frc consts  --      0.3491                 0.3094                 0.5181
 IR Inten    --    106.8724                42.6351                74.0982

                     10                     11                     12
                      A                      A                      A
 Frequencies --    724.5069               807.5572               816.4239
 Red. masses --      1.3230                 1.9392                 2.2743
 Frc consts  --      0.4092                 0.7451                 0.8932
 IR Inten    --     48.0391                40.3500                33.9822

                     13                     14                     15
                      A                      A                      A
 Frequencies --    995.4559              1138.3442              1368.7740
 Red. masses --      1.5710                 1.4287                 3.3794
 Frc consts  --      0.9172                 1.0908                 3.7303
 IR Inten    --      5.6208                 2.6349                72.8900

                     16                     17                     18
                      A                      A                      A
 Frequencies --   1448.9704              1653.4233              1689.1230
 Red. masses --      1.1872                 1.1781                 4.2319
 Frc consts  --      1.4686                 1.8976                 7.1139
 IR Inten    --      0.4190                38.4634               103.4835

                     19                     20                     21
                      A                      A                      A
 Frequencies --   2228.4046              3175.4755              3280.7808
 Red. masses --      6.1018                 1.0618                 1.1146
 Frc consts  --     17.8523                 6.3083                 7.0686
 IR Inten    --      3.3406                 5.4267                 5.4825

                     22                     23                     24
                      A                      A                      A
 Frequencies --   3489.1719              3556.0674              3666.9599
 Red. masses --      1.1580                 1.0475                 1.0984
 Frc consts  --      8.3062                 7.8045                 8.7021
 IR Inten    --     69.4247                10.2877                 9.7262

 - Thermochemistry -
 -------------------
 Temperature   298.150 Kelvin.  Pressure   1.00000 Atm.
 Atom     1 has atomic number  6 and mass  12.00000

 Molecular mass:    67.04220 amu.
 Principal axes and moments of inertia in atomic units:
                           1         2         3
     Eigenvalues --   179.65210 439.98117 617.71322
           X            0.99994  -0.00948  -0.00474
           Y            0.00939   0.99980  -0.01772
           Z            0.00491   0.01768   0.99983
 This molecule is an asymmetric top.
 Rotational symmetry number  1.
 Rotational temperatures (Kelvin)      0.48212     0.19686     0.14022
 Rotational constants (GHZ):          10.04576     4.10186     2.92165
 Zero-point vibrational energy     205551.1 (Joules/Mol)
                                   49.12789 (Kcal/Mol)
 Warning -- explicit consideration of   7 degrees of freedom as
           vibrations may cause significant error
 Vibrational temperatures:    274.34   403.65   459.68   614.91   822.18
          (Kelvin)            845.06   882.97   942.28   979.09  1042.40
                             1161.89  1174.65  1432.24  1637.82  1969.36
                             2084.74  2378.90  2430.27  3206.17  4568.80
                             4720.31  5020.13  5116.38  5275.93

 Zero-point correction=                           0.078290 (Hartree/Particle)
 Thermal correction to Energy=                    0.083904
 Thermal correction to Enthalpy=                  0.084848
 Thermal correction to Gibbs Free Energy=         0.050251
 Sum of electronic and zero-point Energies=           -210.019452
 Sum of electronic and thermal Energies=              -210.013839
 Sum of electronic and thermal Enthalpies=            -210.012895
 Sum of electronic and thermal Free Energies=         -210.047491

                     E (Thermal)             CV                S
                      KCal/Mol        Cal/Mol-Kelvin    Cal/Mol-Kelvin
 Total                   52.651             20.481             72.815
 Electronic               0.000              0.000              0.000
 Translational            0.889              2.981             38.526
 Rotational               0.889              2.981             25.393
 Vibrational             50.873             14.519              8.895
 Vibration     1          0.634              1.853              2.221
 Vibration     2          0.680              1.710              1.530
 Vibration     3          0.705              1.636              1.313
 Vibration     4          0.789              1.411              0.867
 Vibration     5          0.928              1.093              0.501
 Vibration     6          0.944              1.059              0.472
 Vibration     7          0.973              1.003              0.427

 Optimization completed.
    -- Stationary point found.
 Normal termination of Gaussian 09 at Thu Sep  8 15:14:49 2022.
