 Gaussian 09, Revision E.01,
 Gaussian 09:  ES64L-G09RevE.01 30-Nov-2015

 ----------------------------
 #P OPT Freq B3LYP/6-31G(d,p)
 ----------------------------

 --------
 Frag_495
 --------
 Symbolic Z-matrix:
 Charge =  0 Multiplicity = 1

 SCF Done:  E(RB3LYP) =  -173.260631436     A.U. after   13 cycles
 SCF Done:  E(RB3LYP) =  -173.260657047     A.U. after    9 cycles
 SCF Done:  E(RB3LYP) =  -173.260657661     A.U. after    7 cycles
 Optimization completed.
    -- Stationary point found.
 Normal termination of Gaussian 09 at Thu Sep  8 15:24:38 2022.

 ----------------------------------------------------------------------
 #P Geom=AllCheck Guess=TCheck SCRF=Check GenChk RB3LYP/6-31G(d,p) Freq
 ----------------------------------------------------------------------

 Structure from the checkpoint file:  "B3LYP6-31Gdp.Frag_495.chk"
 --------
 Frag_495
 --------
 Charge =  0 Multiplicity = 1

                         Standard orientation:
 ---------------------------------------------------------------------
 Center     Atomic      Atomic             Coordinates (Angstroms)
 Number     Number       Type             X           Y           Z
 ---------------------------------------------------------------------
      1          6           0        1.844665    0.025344   -0.252575
      2          6           0        0.693862   -0.295153    0.337953
      3          6           0       -0.572217    0.510476    0.241579
      4          7           0       -1.684338   -0.344048   -0.197163
      5          1           0        2.734703   -0.587458   -0.144991
      6          1           0        1.941673    0.920811   -0.862698
      7          1           0        0.616819   -1.204454    0.932963
      8          1           0       -0.391905    1.396120   -0.392704
      9          1           0       -0.832003    0.888394    1.240580
     10          1           0       -1.525404   -0.636972   -1.158664
     11          1           0       -2.551376    0.187891   -0.196081
 ---------------------------------------------------------------------

 SCF Done:  E(RB3LYP) =  -173.260657661     A.U. after    1 cycles

 The electronic state is 1-A.
 Alpha  occ. eigenvalues --  -14.31117 -10.20946 -10.18372 -10.17704  -0.87760
 Alpha  occ. eigenvalues --   -0.76483  -0.65551  -0.55108  -0.48851  -0.46303
 Alpha  occ. eigenvalues --   -0.42223  -0.40892  -0.37045  -0.33904  -0.25743
 Alpha  occ. eigenvalues --   -0.23407
 Alpha virt. eigenvalues --    0.01879   0.09704   0.12738   0.13654   0.14883
 Alpha virt. eigenvalues --    0.17273   0.18923   0.19885   0.24383   0.29255
 Alpha virt. eigenvalues --    0.37332   0.51144   0.53856   0.54113   0.58071

 Mulliken charges:
               1
     1  C   -0.243290
     2  C   -0.013943
     3  C   -0.092121
     4  N   -0.598612
     5  H    0.098015
     6  H    0.090747
     7  H    0.095526
     8  H    0.076861
     9  H    0.112139
    10  H    0.238205
    11  H    0.236471
 Sum of Mulliken charges =   0.00000

 Dipole moment (field-independent basis, Debye):
    X=             -0.2898    Y=              0.9993    Z=             -0.7959  Tot=              1.3100
 Quadrupole moment (field-independent basis, Debye-Ang):
   XX=            -23.8029   YY=            -26.3658   ZZ=            -24.9297
   XY=             -2.6524   XZ=              1.2398   YZ=              0.0618

  Exact polarizability:  53.428  -0.233  33.228  -5.583  -3.227  30.821
 Approx polarizability:  71.187   2.587  45.458 -11.948  -5.475  44.096

                      1                      2                      3
                      A                      A                      A
 Frequencies --    116.8109               289.1304               336.7009
 Red. masses --      2.5122                 1.0779                 2.0119
 Frc consts  --      0.0202                 0.0531                 0.1344
 IR Inten    --      0.6535                51.3638                 7.8587

                      4                      5                      6
                      A                      A                      A
 Frequencies --    457.0402               655.5393               851.6798
 Red. masses --      2.1219                 1.5616                 1.2536
 Frc consts  --      0.2611                 0.3954                 0.5357
 IR Inten    --      6.8017                 8.0906               140.4556

                      7                      8                      9
                      A                      A                      A
 Frequencies --    901.9385               945.8933               950.4317
 Red. masses --      1.9640                 1.3145                 1.3547
 Frc consts  --      0.9413                 0.6929                 0.7210
 IR Inten    --      5.3786                18.9089                27.6779

                     10                     11                     12
                      A                      A                      A
 Frequencies --   1039.4733              1071.5095              1163.1370
 Red. masses --      1.0945                 2.7003                 1.3403
 Frc consts  --      0.6968                 1.8267                 1.0683
 IR Inten    --     14.1891                 8.5065                 6.3776

                     13                     14                     15
                      A                      A                      A
 Frequencies --   1194.8953              1309.8024              1323.6979
 Red. masses --      1.6514                 1.3114                 1.1679
 Frc consts  --      1.3892                 1.3256                 1.2057
 IR Inten    --      2.9316                 3.1460                 3.0519

                     16                     17                     18
                      A                      A                      A
 Frequencies --   1411.3576              1470.4612              1514.9355
 Red. masses --      1.3125                 1.2363                 1.0937
 Frc consts  --      1.5404                 1.5750                 1.4789
 IR Inten    --     12.4253                11.8436                 0.5185

                     19                     20                     21
                      A                      A                      A
 Frequencies --   1665.2261              1731.0237              2958.2531
 Red. masses --      1.0931                 4.5422                 1.0705
 Frc consts  --      1.7859                 8.0190                 5.5196
 IR Inten    --     23.1619                 3.4112                74.2023

                     22                     23                     24
                      A                      A                      A
 Frequencies --   3033.0252              3146.2331              3161.9830
 Red. masses --      1.0902                 1.0590                 1.0926
 Frc consts  --      5.9088                 6.1763                 6.4362
 IR Inten    --     35.3185                13.5981                 7.8873

                     25                     26                     27
                      A                      A                      A
 Frequencies --   3233.3588              3487.0355              3575.2817
 Red. masses --      1.1152                 1.0493                 1.0930
 Frc consts  --      6.8691                 7.5175                 8.2321
 IR Inten    --     20.3877                 3.2354                 0.2488

 - Thermochemistry -
 -------------------
 Temperature   298.150 Kelvin.  Pressure   1.00000 Atm.
 Atom     1 has atomic number  6 and mass  12.00000

 Molecular mass:    57.05785 amu.
 Principal axes and moments of inertia in atomic units:
                           1         2         3
     Eigenvalues --    70.68457 427.78390 441.12672
           X            0.99991  -0.01347   0.00103
           Y            0.01346   0.98740  -0.15767
           Z            0.00111   0.15767   0.98749
 This molecule is an asymmetric top.
 Rotational symmetry number  1.
 Rotational temperatures (Kelvin)      1.22536     0.20247     0.19635
 Rotational constants (GHZ):          25.53232     4.21882     4.09121
 Zero-point vibrational energy     257172.3 (Joules/Mol)
                                   61.46566 (Kcal/Mol)
 Warning -- explicit consideration of   4 degrees of freedom as
           vibrations may cause significant error
 Vibrational temperatures:    168.06   415.99   484.44   657.58   943.17
          (Kelvin)           1225.38  1297.69  1360.93  1367.46  1495.57
                             1541.66  1673.49  1719.19  1884.51  1904.50
                             2030.63  2115.66  2179.65  2395.89  2490.55
                             4256.26  4363.84  4526.72  4549.38  4652.08
                             5017.06  5144.03

 Zero-point correction=                           0.097952 (Hartree/Particle)
 Thermal correction to Energy=                    0.103034
 Thermal correction to Enthalpy=                  0.103978
 Thermal correction to Gibbs Free Energy=         0.070706
 Sum of electronic and zero-point Energies=           -173.162706
 Sum of electronic and thermal Energies=              -173.157624
 Sum of electronic and thermal Enthalpies=            -173.156679
 Sum of electronic and thermal Free Energies=         -173.189952

                     E (Thermal)             CV                S
                      KCal/Mol        Cal/Mol-Kelvin    Cal/Mol-Kelvin
 Total                   64.655             17.088             70.028
 Electronic               0.000              0.000              0.000
 Translational            0.889              2.981             38.046
 Rotational               0.889              2.981             24.104
 Vibrational             62.877             11.126              7.878
 Vibration     1          0.608              1.935              3.152
 Vibration     2          0.686              1.694              1.479
 Vibration     3          0.717              1.602              1.228
 Vibration     4          0.815              1.345              0.775

 Optimization completed.
    -- Stationary point found.
 Normal termination of Gaussian 09 at Thu Sep  8 15:24:46 2022.
