 Gaussian 09, Revision E.01,
 Gaussian 09:  ES64L-G09RevE.01 30-Nov-2015

 ----------------------------
 #P OPT Freq B3LYP/6-31G(d,p)
 ----------------------------

 --------
 Frag_525
 --------
 Symbolic Z-matrix:
 Charge =  0 Multiplicity = 1

 SCF Done:  E(RB3LYP) =  -194.062011633     A.U. after   13 cycles
 SCF Done:  E(RB3LYP) =  -194.062134106     A.U. after   11 cycles
 SCF Done:  E(RB3LYP) =  -194.061920500     A.U. after   12 cycles
 SCF Done:  E(RB3LYP) =  -194.062139265     A.U. after    8 cycles
 SCF Done:  E(RB3LYP) =  -194.062133742     A.U. after    9 cycles
 SCF Done:  E(RB3LYP) =  -194.062143053     A.U. after    9 cycles
 Optimization completed.
    -- Stationary point found.
 Normal termination of Gaussian 09 at Thu Sep  8 15:01:48 2022.

 ----------------------------------------------------------------------
 #P Geom=AllCheck Guess=TCheck SCRF=Check GenChk RB3LYP/6-31G(d,p) Freq
 ----------------------------------------------------------------------

 Structure from the checkpoint file:  "B3LYP6-31Gdp.Frag_525.chk"
 --------
 Frag_525
 --------
 Charge =  0 Multiplicity = 1

                         Standard orientation:
 ---------------------------------------------------------------------
 Center     Atomic      Atomic             Coordinates (Angstroms)
 Number     Number       Type             X           Y           Z
 ---------------------------------------------------------------------
      1          6           0        2.209623   -0.079805    0.000172
      2          6           0        1.004915    0.041550   -0.000145
      3          6           0       -0.425502    0.121286   -0.000050
      4          6           0       -1.051089    1.309921    0.000023
      5          6           0       -1.168337   -1.197210    0.000016
      6          1           0        3.271509   -0.165199   -0.000295
      7          1           0       -0.498927    2.243135    0.000001
      8          1           0       -2.135028    1.369211    0.000099
      9          1           0       -0.903027   -1.792525   -0.880479
     10          1           0       -2.249279   -1.036552    0.000094
     11          1           0       -0.902902   -1.792515    0.880482
 ---------------------------------------------------------------------

 SCF Done:  E(RB3LYP) =  -194.062143053     A.U. after    1 cycles

 The electronic state is 1-A.
 Alpha  occ. eigenvalues --  -10.21777 -10.18863 -10.18800 -10.18755 -10.18267
 Alpha  occ. eigenvalues --   -0.81774  -0.73028  -0.69218  -0.60127  -0.51547
 Alpha  occ. eigenvalues --   -0.47667  -0.43884  -0.42036  -0.38655  -0.36786
 Alpha  occ. eigenvalues --   -0.31382  -0.26965  -0.23534
 Alpha virt. eigenvalues --   -0.01808   0.05420   0.11216   0.11280   0.12479
 Alpha virt. eigenvalues --    0.14160   0.16124   0.19677   0.19964   0.22852
 Alpha virt. eigenvalues --    0.32482   0.35549   0.44093   0.49421   0.50979

 Mulliken charges:
               1
     1  C   -0.471283
     2  C    0.296405
     3  C    0.034134
     4  C   -0.243280
     5  C   -0.352664
     6  H    0.160198
     7  H    0.109703
     8  H    0.099534
     9  H    0.128250
    10  H    0.110745
    11  H    0.128256
 Sum of Mulliken charges =  -0.00000

 Dipole moment (field-independent basis, Debye):
    X=             -0.3599    Y=             -0.2701    Z=             -0.0005  Tot=              0.4500
 Quadrupole moment (field-independent basis, Debye-Ang):
   XX=            -24.7669   YY=            -29.1488   ZZ=            -32.0342
   XY=             -0.2871   XZ=             -0.0017   YZ=              0.0001

  Exact polarizability:  74.764  -9.670  50.045   0.004  -0.000  25.002
 Approx polarizability: 122.821 -25.356  73.596   0.015  -0.002  34.686

                      1                      2                      3
                      A                      A                      A
 Frequencies --    179.0440               186.7858               280.8932
 Red. masses --      1.0391                 3.2625                 3.4541
 Frc consts  --      0.0196                 0.0671                 0.1606
 IR Inten    --      0.1548                 0.8714                 4.0949

                      4                      5                      6
                      A                      A                      A
 Frequencies --    395.0287               551.9919               567.4855
 Red. masses --      2.3247                 2.5214                 5.0176
 Frc consts  --      0.2137                 0.4526                 0.9520
 IR Inten    --      0.1968                 7.0228                 4.0111

                      7                      8                      9
                      A                      A                      A
 Frequencies --    603.0326               631.5681               748.4313
 Red. masses --      1.2144                 1.2067                 1.2255
 Frc consts  --      0.2602                 0.2836                 0.4045
 IR Inten    --     39.3792                45.3618                 0.1613

                     10                     11                     12
                      A                      A                      A
 Frequencies --    779.8749               928.2984               970.2563
 Red. masses --      4.1236                 1.3462                 1.7717
 Frc consts  --      1.4777                 0.6835                 0.9827
 IR Inten    --      1.3453                38.9297                 0.3307

                     13                     14                     15
                      A                      A                      A
 Frequencies --   1034.7051              1076.2834              1292.9309
 Red. masses --      1.3759                 1.4580                 3.1571
 Frc consts  --      0.8679                 0.9951                 3.1095
 IR Inten    --      3.3617                 0.9056                13.9105

                     16                     17                     18
                      A                      A                      A
 Frequencies --   1421.1073              1447.3664              1489.8836
 Red. masses --      1.2322                 1.2326                 1.0440
 Frc consts  --      1.4662                 1.5213                 1.3654
 IR Inten    --      1.8049                 0.0419                 6.1380

                     19                     20                     21
                      A                      A                      A
 Frequencies --   1507.6995              1693.8223              2218.4192
 Red. masses --      1.0529                 4.6754                 6.1282
 Frc consts  --      1.4102                 7.9032                17.7692
 IR Inten    --      9.2297                11.7494                 0.2115

                     22                     23                     24
                      A                      A                      A
 Frequencies --   3044.4657              3104.3917              3135.7929
 Red. masses --      1.0357                 1.1010                 1.1030
 Frc consts  --      5.6559                 6.2519                 6.3901
 IR Inten    --     18.6961                16.5624                16.8087

                     25                     26                     27
                      A                      A                      A
 Frequencies --   3166.1864              3258.8406              3489.5635
 Red. masses --      1.0599                 1.1171                 1.1568
 Frc consts  --      6.2602                 6.9901                 8.2992
 IR Inten    --      3.5394                 8.8536                67.8401

 - Thermochemistry -
 -------------------
 Temperature   298.150 Kelvin.  Pressure   1.00000 Atm.
 Atom     1 has atomic number  6 and mass  12.00000

 Molecular mass:    66.04695 amu.
 Principal axes and moments of inertia in atomic units:
                           1         2         3
     Eigenvalues --   193.33237 451.00705 633.17895
           X            0.99990   0.01438  -0.00001
           Y           -0.01438   0.99990   0.00000
           Z            0.00001  -0.00000   1.00000
 This molecule is an asymmetric top.
 Rotational symmetry number  1.
 Rotational temperatures (Kelvin)      0.44800     0.19205     0.13679
 Rotational constants (GHZ):           9.33492     4.00158     2.85029
 Zero-point vibrational energy     234492.9 (Joules/Mol)
                                   56.04514 (Kcal/Mol)
 Warning -- explicit consideration of   7 degrees of freedom as
           vibrations may cause significant error
 Vibrational temperatures:    257.60   268.74   404.14   568.36   794.19
          (Kelvin)            816.48   867.63   908.68  1076.82  1122.06
                             1335.61  1395.98  1488.71  1548.53  1860.24
                             2044.65  2082.43  2143.61  2169.24  2437.03
                             3191.81  4380.30  4466.52  4511.70  4555.43
                             4688.74  5020.70

 Zero-point correction=                           0.089314 (Hartree/Particle)
 Thermal correction to Energy=                    0.095115
 Thermal correction to Enthalpy=                  0.096059
 Thermal correction to Gibbs Free Energy=         0.060927
 Sum of electronic and zero-point Energies=           -193.972829
 Sum of electronic and thermal Energies=              -193.967028
 Sum of electronic and thermal Enthalpies=            -193.966084
 Sum of electronic and thermal Free Energies=         -194.001217

                     E (Thermal)             CV                S
                      KCal/Mol        Cal/Mol-Kelvin    Cal/Mol-Kelvin
 Total                   59.686             20.578             73.943
 Electronic               0.000              0.000              0.000
 Translational            0.889              2.981             38.482
 Rotational               0.889              2.981             25.516
 Vibrational             57.908             14.616              9.946
 Vibration     1          0.629              1.868              2.338
 Vibration     2          0.632              1.858              2.259
 Vibration     3          0.681              1.709              1.528
 Vibration     4          0.762              1.481              0.981
 Vibration     5          0.907              1.135              0.540
 Vibration     6          0.923              1.102              0.509
 Vibration     7          0.961              1.025              0.444

 Normal termination of Gaussian 09 at Thu Sep  8 15:01:56 2022.
