 Gaussian 09, Revision E.01,
 Gaussian 09:  ES64L-G09RevE.01 30-Nov-2015

 ----------------------------
 #P OPT Freq B3LYP/6-31G(d,p)
 ----------------------------

 ---------
 Frag_1115
 ---------
 Symbolic Z-matrix:
 Charge =  0 Multiplicity = 1

 SCF Done:  E(RB3LYP) =  -205.303254694     A.U. after   13 cycles
 SCF Done:  E(RB3LYP) =  -205.303294361     A.U. after    9 cycles
 SCF Done:  E(RB3LYP) =  -205.303296967     A.U. after   10 cycles
 SCF Done:  E(RB3LYP) =  -205.303299066     A.U. after    9 cycles
 SCF Done:  E(RB3LYP) =  -205.303299629     A.U. after    8 cycles
 Optimization completed.
    -- Stationary point found.
 Normal termination of Gaussian 09 at Thu Sep  8 14:53:37 2022.

 ----------------------------------------------------------------------
 #P Geom=AllCheck Guess=TCheck SCRF=Check GenChk RB3LYP/6-31G(d,p) Freq
 ----------------------------------------------------------------------

 Structure from the checkpoint file:  "B3LYP6-31Gdp.Frag_1115.chk"
 ---------
 Frag_1115
 ---------
 Charge =  0 Multiplicity = 1

                         Standard orientation:
 ---------------------------------------------------------------------
 Center     Atomic      Atomic             Coordinates (Angstroms)
 Number     Number       Type             X           Y           Z
 ---------------------------------------------------------------------
      1          7           0        1.763793   -0.138771    0.190111
      2          7           0        0.723133   -0.290142   -0.459446
      3          6           0       -0.463383    0.516243   -0.065166
      4          7           0       -1.616847   -0.336602    0.064061
      5          1           0        1.633486    0.563638    0.968776
      6          1           0       -0.634170    1.212807   -0.894563
      7          1           0       -0.194664    1.113277    0.835915
      8          1           0       -2.479900    0.183315   -0.042440
      9          1           0       -1.635008   -0.811893    0.960228
 ---------------------------------------------------------------------

 SCF Done:  E(RB3LYP) =  -205.303299629     A.U. after    1 cycles

 The electronic state is 1-A.
 Alpha  occ. eigenvalues --  -14.38818 -14.38209 -14.33473 -10.25281  -1.03319
 Alpha  occ. eigenvalues --   -0.90244  -0.72532  -0.62119  -0.53198  -0.49188
 Alpha  occ. eigenvalues --   -0.48248  -0.43006  -0.36685  -0.34556  -0.26237
 Alpha  occ. eigenvalues --   -0.23236
 Alpha virt. eigenvalues --   -0.04265   0.06888   0.08808   0.11979   0.15580
 Alpha virt. eigenvalues --    0.17344   0.21338   0.23659   0.41084   0.52478
 Alpha virt. eigenvalues --    0.52828   0.57599   0.64146   0.68362   0.68533

 Mulliken charges:
               1
     1  N   -0.229404
     2  N   -0.133735
     3  C    0.043362
     4  N   -0.576724
     5  H    0.193728
     6  H    0.136124
     7  H    0.061812
     8  H    0.253062
     9  H    0.251776
 Sum of Mulliken charges =  -0.00000

 Dipole moment (field-independent basis, Debye):
    X=             -2.5044    Y=              2.4602    Z=              2.1628  Tot=              4.1234
 Quadrupole moment (field-independent basis, Debye-Ang):
   XX=            -25.1682   YY=            -24.9249   ZZ=            -23.8433
   XY=              0.6668   XZ=             -0.1554   YZ=             -2.3246

  Exact polarizability:  42.376  -0.024  26.473   4.526   1.671  28.166
 Approx polarizability:  59.586   0.535  37.903  10.473   4.079  43.196

                      1                      2                      3
                      A                      A                      A
 Frequencies --    109.1622               209.5423               429.8134
 Red. masses --      3.5575                 1.0926                 3.3101
 Frc consts  --      0.0250                 0.0283                 0.3603
 IR Inten    --      1.3975                46.6945                10.4615

                      4                      5                      6
                      A                      A                      A
 Frequencies --    576.7331               720.3776               829.9304
 Red. masses --      2.9653                 1.4821                 1.7005
 Frc consts  --      0.5811                 0.4532                 0.6901
 IR Inten    --     17.8249               158.7775                59.3249

                      7                      8                      9
                      A                      A                      A
 Frequencies --    983.7317              1046.8026              1129.6448
 Red. masses --      1.3413                 2.0387                 2.8733
 Frc consts  --      0.7648                 1.3162                 2.1603
 IR Inten    --     31.8435                21.4946                16.3112

                     10                     11                     12
                      A                      A                      A
 Frequencies --   1220.5452              1338.5389              1409.9149
 Red. masses --      1.2974                 1.1836                 1.3051
 Frc consts  --      1.1388                 1.2494                 1.5285
 IR Inten    --      1.2496                14.9281                19.1103

                     13                     14                     15
                      A                      A                      A
 Frequencies --   1480.8344              1495.7794              1672.6252
 Red. masses --      1.1692                 1.1709                 1.1519
 Frc consts  --      1.5106                 1.5435                 1.8987
 IR Inten    --     42.0738                54.9503                15.8218

                     16                     17                     18
                      A                      A                      A
 Frequencies --   1686.5568              2846.0970              2962.9393
 Red. masses --      7.8603                 1.0719                 1.0687
 Frc consts  --     13.1732                 5.1155                 5.5278
 IR Inten    --     32.9117               101.5737               120.0086

                     19                     20                     21
                      A                      A                      A
 Frequencies --   3075.6833              3534.4634              3629.4911
 Red. masses --      1.0878                 1.0493                 1.0949
 Frc consts  --      6.0628                 7.7232                 8.4978
 IR Inten    --     14.9553                 0.8528                 3.8052

 - Thermochemistry -
 -------------------
 Temperature   298.150 Kelvin.  Pressure   1.00000 Atm.
 Atom     1 has atomic number  7 and mass  14.00307

 Molecular mass:    59.04835 amu.
 Principal axes and moments of inertia in atomic units:
                           1         2         3
     Eigenvalues --    59.96929 388.47556 399.40333
           X            0.99996   0.00779   0.00362
           Y           -0.00736   0.99440  -0.10544
           Z           -0.00442   0.10541   0.99442
 This molecule is an asymmetric top.
 Rotational symmetry number  1.
 Rotational temperatures (Kelvin)      1.44430     0.22296     0.21686
 Rotational constants (GHZ):          30.09442     4.64570     4.51859
 Zero-point vibrational energy     193730.5 (Joules/Mol)
                                   46.30270 (Kcal/Mol)
 Warning -- explicit consideration of   4 degrees of freedom as
           vibrations may cause significant error
 Vibrational temperatures:    157.06   301.48   618.40   829.79  1036.46
          (Kelvin)           1194.08  1415.37  1506.11  1625.30  1756.09
                             1925.86  2028.55  2130.59  2152.09  2406.53
                             2426.58  4094.89  4263.00  4425.22  5085.30
                             5222.02

 Zero-point correction=                           0.073788 (Hartree/Particle)
 Thermal correction to Energy=                    0.078653
 Thermal correction to Enthalpy=                  0.079597
 Thermal correction to Gibbs Free Energy=         0.046627
 Sum of electronic and zero-point Energies=           -205.229512
 Sum of electronic and thermal Energies=              -205.224647
 Sum of electronic and thermal Enthalpies=            -205.223703
 Sum of electronic and thermal Free Energies=         -205.256672

                     E (Thermal)             CV                S
                      KCal/Mol        Cal/Mol-Kelvin    Cal/Mol-Kelvin
 Total                   49.355             15.250             69.390
 Electronic               0.000              0.000              0.000
 Translational            0.889              2.981             38.148
 Rotational               0.889              2.981             23.746
 Vibrational             47.578              9.288              7.496
 Vibration     1          0.606              1.942              3.284
 Vibration     2          0.642              1.826              2.048
 Vibration     3          0.791              1.405              0.859
 Vibration     4          0.933              1.082              0.491

 Normal termination of Gaussian 09 at Thu Sep  8 14:53:43 2022.
