 Gaussian 09, Revision E.01,
 Gaussian 09:  ES64L-G09RevE.01 30-Nov-2015

 -------------------------
 #P OPT Freq B3LYP/6-31G**
 -------------------------

 --------
 Frag_273
 --------
 Symbolic Z-matrix:
 Charge =  0 Multiplicity = 1

 SCF Done:  E(RB3LYP) =  -196.535703605     A.U. after   12 cycles
 SCF Done:  E(RB3LYP) =  -196.542404134     A.U. after   10 cycles
 SCF Done:  E(RB3LYP) =  -196.543091172     A.U. after   10 cycles
 SCF Done:  E(RB3LYP) =  -196.543193342     A.U. after    9 cycles
 SCF Done:  E(RB3LYP) =  -196.543197639     A.U. after    7 cycles
 Optimization completed.
    -- Stationary point found.
 Normal termination of Gaussian 09 at Sat Aug 21 01:33:08 2021.

 ----------------------------------------------------------------------
 #P Geom=AllCheck Guess=TCheck SCRF=Check GenChk RB3LYP/6-31G(d,p) Freq
 ----------------------------------------------------------------------

 Structure from the checkpoint file:  "/public/home/users/caep010/.cache/gau_scr/Gau-182324.chk"
 --------
 Frag_273
 --------
 Charge =  0 Multiplicity = 1

                         Standard orientation:
 ---------------------------------------------------------------------
 Center     Atomic      Atomic             Coordinates (Angstroms)
 Number     Number       Type             X           Y           Z
 ---------------------------------------------------------------------
      1          6           0        0.973740   -1.276042   -0.000001
      2          6           0        0.150418   -0.000000   -0.000004
      3          6           0        0.973732    1.276048   -0.000001
      4          6           0       -1.158428   -0.000002   -0.756706
      5          6           0       -1.158421   -0.000003    0.756710
      6          1           0        1.619362   -1.329504   -0.885119
      7          1           0        0.335355   -2.165498   -0.000006
      8          1           0        1.619354   -1.329507    0.885121
      9          1           0        0.335341    2.165499   -0.000003
     10          1           0        1.619353    1.329514   -0.885119
     11          1           0        1.619347    1.329515    0.885121
     12          1           0       -1.458597   -0.910973   -1.267222
     13          1           0       -1.458597    0.910968   -1.267223
     14          1           0       -1.458582   -0.910976    1.267227
     15          1           0       -1.458585    0.910967    1.267231
 ---------------------------------------------------------------------

 SCF Done:  E(RB3LYP) =  -196.543197639     A.U. after    1 cycles

 The electronic state is 1-A.
 Alpha  occ. eigenvalues --  -10.19351 -10.17708 -10.17684 -10.17289 -10.17288
 Alpha  occ. eigenvalues --   -0.85566  -0.71663  -0.68411  -0.59250  -0.53302
 Alpha  occ. eigenvalues --   -0.47291  -0.44987  -0.42041  -0.39427  -0.38307
 Alpha  occ. eigenvalues --   -0.37137  -0.35156  -0.33422  -0.27809  -0.26237
 Alpha virt. eigenvalues --    0.09128   0.12012   0.13596   0.13613   0.15375
 Alpha virt. eigenvalues --    0.16005   0.16518   0.19486   0.20455   0.20534
 Alpha virt. eigenvalues --    0.21130   0.23223   0.26610   0.30011   0.30579

 Mulliken charges:
               1
     1  C   -0.315717
     2  C    0.080682
     3  C   -0.315717
     4  C   -0.226170
     5  C   -0.226170
     6  H    0.101449
     7  H    0.094864
     8  H    0.101449
     9  H    0.094864
    10  H    0.101449
    11  H    0.101449
    12  H    0.101892
    13  H    0.101892
    14  H    0.101892
    15  H    0.101892
 Sum of Mulliken charges =  -0.00000

 Dipole moment (field-independent basis, Debye):
    X=              0.1095    Y=             -0.0000    Z=              0.0000  Tot=              0.1095
 Quadrupole moment (field-independent basis, Debye-Ang):
   XX=            -33.7316   YY=            -32.0227   ZZ=            -33.2538
   XY=             -0.0000   XZ=              0.0000   YZ=              0.0000

  Exact polarizability:  54.286   0.000  51.800   0.000  -0.000  49.178
 Approx polarizability:  71.944   0.000  68.131   0.000  -0.000  70.494

                      1                      2                      3
                      A                      A                      A
 Frequencies --    217.1787               244.1392               328.5943
 Red. masses --      1.0508                 1.0491                 1.7758
 Frc consts  --      0.0292                 0.0368                 0.1130
 IR Inten    --      0.0000                 0.0071                 0.0000

                      4                      5                      6
                      A                      A                      A
 Frequencies --    350.8088               359.2902               393.4735
 Red. masses --      2.2004                 2.2639                 2.1507
 Frc consts  --      0.1595                 0.1722                 0.1962
 IR Inten    --      0.0062                 0.7218                 1.0487

                      7                      8                      9
                      A                      A                      A
 Frequencies --    689.6269               792.2382               855.9437
 Red. masses --      3.4831                 1.0226                 2.9983
 Frc consts  --      0.9760                 0.3781                 1.2942
 IR Inten    --      1.3206                 0.0467                 5.5870

                     10                     11                     12
                      A                      A                      A
 Frequencies --    900.5183               952.2085               952.9504
 Red. masses --      1.1393                 1.6356                 2.4147
 Frc consts  --      0.5443                 0.8737                 1.2920
 IR Inten    --      0.0000                 0.5728                10.6222

                     13                     14                     15
                      A                      A                      A
 Frequencies --    976.5469              1049.8646              1070.2424
 Red. masses --      1.2329                 1.2316                 1.2652
 Frc consts  --      0.6927                 0.7998                 0.8538
 IR Inten    --      0.3937                 6.3544                 0.0000

                     16                     17                     18
                      A                      A                      A
 Frequencies --   1077.5247              1095.3442              1163.6369
 Red. masses --      1.4152                 2.0253                 1.9311
 Frc consts  --      0.9681                 1.4317                 1.5406
 IR Inten    --      0.8382                 0.8798                 6.0628

                     19                     20                     21
                      A                      A                      A
 Frequencies --   1192.9665              1324.4846              1361.4305
 Red. masses --      1.3145                 2.4189                 2.3421
 Frc consts  --      1.1022                 2.5002                 2.5577
 IR Inten    --      0.0000                 2.1099                 1.9829

                     22                     23                     24
                      A                      A                      A
 Frequencies --   1425.7387              1437.5372              1482.5936
 Red. masses --      1.3631                 1.2915                 1.0852
 Frc consts  --      1.6326                 1.5725                 1.4055
 IR Inten    --      4.3027                 0.1899                 2.3938

                     25                     26                     27
                      A                      A                      A
 Frequencies --   1494.9387              1508.4591              1514.2079
 Red. masses --      1.0435                 1.0552                 1.0476
 Frc consts  --      1.3740                 1.4146                 1.4152
 IR Inten    --      0.0000                 3.8536                 4.4261

                     28                     29                     30
                      A                      A                      A
 Frequencies --   1517.4482              1533.1300              3025.3890
 Red. masses --      1.1030                 1.3268                 1.0356
 Frc consts  --      1.4965                 1.8374                 5.5847
 IR Inten    --      4.2713                 0.0651                33.5227

                     31                     32                     33
                      A                      A                      A
 Frequencies --   3030.5024              3087.0525              3090.4341
 Red. masses --      1.0362                 1.1022                 1.1015
 Frc consts  --      5.6069                 6.1887                 6.1983
 IR Inten    --     41.8732                 0.0000                66.4605

                     34                     35                     36
                      A                      A                      A
 Frequencies --   3105.8359              3108.0115              3130.5223
 Red. masses --      1.1018                 1.1009                 1.0505
 Frc consts  --      6.2618                 6.2659                 6.0654
 IR Inten    --     19.1742                39.5251                25.0090

                     37                     38                     39
                      A                      A                      A
 Frequencies --   3135.2342              3207.8000              3220.9801
 Red. masses --      1.0591                 1.1191                 1.1161
 Frc consts  --      6.1338                 6.7850                 6.8221
 IR Inten    --     13.4667                 0.0000                27.9794

 - Thermochemistry -
 -------------------
 Temperature   298.150 Kelvin.  Pressure   1.00000 Atm.
 Atom     1 has atomic number  6 and mass  12.00000

 Molecular mass:    70.07825 amu.
 Principal axes and moments of inertia in atomic units:
                           1         2         3
     Eigenvalues --   294.17309 349.81776 477.04671
           X            1.00000  -0.00000   0.00000
           Y            0.00000   1.00000   0.00000
           Z           -0.00000  -0.00000   1.00000
 This molecule is an asymmetric top.
 Rotational symmetry number  1.
 Rotational temperatures (Kelvin)      0.29443     0.24760     0.18156
 Rotational constants (GHZ):           6.13496     5.15909     3.78315
 Zero-point vibrational energy     361301.1 (Joules/Mol)
                                   86.35304 (Kcal/Mol)
 Warning -- explicit consideration of   6 degrees of freedom as
           vibrations may cause significant error
 Vibrational temperatures:    312.47   351.26   472.77   504.74   516.94
          (Kelvin)            566.12   992.22  1139.85  1231.51  1295.64
                             1370.01  1371.08  1405.03  1510.52  1539.84
                             1550.32  1575.95  1674.21  1716.41  1905.64
                             1958.79  2051.32  2068.29  2133.12  2150.88
                             2170.33  2178.60  2183.27  2205.83  4352.85
                             4360.21  4441.57  4446.44  4468.60  4471.73
                             4504.12  4510.90  4615.30  4634.27

 Zero-point correction=                           0.137612 (Hartree/Particle)
 Thermal correction to Energy=                    0.143539
 Thermal correction to Enthalpy=                  0.144483
 Thermal correction to Gibbs Free Energy=         0.109306
 Sum of electronic and zero-point Energies=           -196.405585
 Sum of electronic and thermal Energies=              -196.399659
 Sum of electronic and thermal Enthalpies=            -196.398715
 Sum of electronic and thermal Free Energies=         -196.433891

                     E (Thermal)             CV                S
                      KCal/Mol        Cal/Mol-Kelvin    Cal/Mol-Kelvin
 Total                   90.072             22.165             74.036
 Electronic               0.000              0.000              0.000
 Translational            0.889              2.981             38.658
 Rotational               0.889              2.981             25.399
 Vibrational             88.295             16.203              9.979
 Vibration     1          0.646              1.815              1.982
 Vibration     2          0.659              1.772              1.773
 Vibration     3          0.712              1.618              1.267
 Vibration     4          0.728              1.574              1.163
 Vibration     5          0.734              1.556              1.125
 Vibration     6          0.761              1.484              0.987

 Optimization completed.
    -- Stationary point found.
 Normal termination of Gaussian 09 at Sat Aug 21 01:33:20 2021.
