 Gaussian 09, Revision E.01,
 Gaussian 09:  ES64L-G09RevE.01 30-Nov-2015

 ----------------------------
 #P OPT Freq B3LYP/6-31G(d,p)
 ----------------------------

 --------
 Frag_501
 --------
 Symbolic Z-matrix:
 Charge =  0 Multiplicity = 1

 SCF Done:  E(RB3LYP) =  -327.124608965     A.U. after   13 cycles
 SCF Done:  E(RB3LYP) =  -327.124661814     A.U. after   10 cycles
 SCF Done:  E(RB3LYP) =  -327.124664729     A.U. after    9 cycles
 SCF Done:  E(RB3LYP) =  -327.124667969     A.U. after    9 cycles
 SCF Done:  E(RB3LYP) =  -327.124668278     A.U. after    7 cycles
 SCF Done:  E(RB3LYP) =  -327.124668269     A.U. after    7 cycles
 Optimization completed.
    -- Stationary point found.
 Normal termination of Gaussian 09 at Thu Sep  8 15:11:46 2022.

 ----------------------------------------------------------------------
 #P Geom=AllCheck Guess=TCheck SCRF=Check GenChk RB3LYP/6-31G(d,p) Freq
 ----------------------------------------------------------------------

 Structure from the checkpoint file:  "B3LYP6-31Gdp.Frag_501.chk"
 --------
 Frag_501
 --------
 Charge =  0 Multiplicity = 1

                         Standard orientation:
 ---------------------------------------------------------------------
 Center     Atomic      Atomic             Coordinates (Angstroms)
 Number     Number       Type             X           Y           Z
 ---------------------------------------------------------------------
      1          6           0        1.668915    1.187267   -0.008935
      2          6           0        0.954412    0.051592    0.000274
      3          7           0        1.540994   -1.222766   -0.057549
      4          6           0       -0.581855    0.052121   -0.004298
      5          6           0       -1.121264   -0.361344    1.373679
      6          6           0       -1.131364   -0.867300   -1.111985
      7          8           0       -1.086721    1.373016   -0.204341
      8          1           0        2.754894    1.172269   -0.005092
      9          1           0        1.178937    2.150373   -0.003800
     10          1           0        1.049257   -1.938214    0.463125
     11          1           0        2.525073   -1.224973    0.180954
     12          1           0       -0.765424    0.337583    2.134341
     13          1           0       -0.801736   -1.371593    1.648649
     14          1           0       -2.214610   -0.340772    1.362442
     15          1           0       -0.757887   -0.549598   -2.091464
     16          1           0       -0.836677   -1.910879   -0.975599
     17          1           0       -2.223297   -0.807132   -1.117965
     18          1           0       -0.734779    1.684155   -1.050423
 ---------------------------------------------------------------------

 SCF Done:  E(RB3LYP) =  -327.124668269     A.U. after    1 cycles

 The electronic state is 1-A.
 Alpha  occ. eigenvalues --  -19.13895 -14.33591 -10.24618 -10.21447 -10.17634
 Alpha  occ. eigenvalues --  -10.17445 -10.15241  -1.01725  -0.90710  -0.77315
 Alpha  occ. eigenvalues --   -0.72091  -0.69033  -0.60453  -0.55245  -0.52004
 Alpha  occ. eigenvalues --   -0.47211  -0.46201  -0.43208  -0.42224  -0.39771
 Alpha  occ. eigenvalues --   -0.39330  -0.37914  -0.36075  -0.34664  -0.32432
 Alpha  occ. eigenvalues --   -0.31256  -0.26770  -0.20287
 Alpha virt. eigenvalues --    0.04339   0.06609   0.09781   0.11906   0.12858
 Alpha virt. eigenvalues --    0.15006   0.16126   0.16432   0.18014   0.19335
 Alpha virt. eigenvalues --    0.20351   0.21549   0.23310   0.25417   0.26070

 Mulliken charges:
               1
     1  C   -0.335110
     2  C    0.304074
     3  N   -0.637851
     4  C    0.213440
     5  C   -0.296565
     6  C   -0.299981
     7  O   -0.550383
     8  H    0.071296
     9  H    0.093128
    10  H    0.251650
    11  H    0.254217
    12  H    0.123645
    13  H    0.083125
    14  H    0.115931
    15  H    0.102444
    16  H    0.097233
    17  H    0.110472
    18  H    0.299234
 Sum of Mulliken charges =  -0.00000

 Dipole moment (field-independent basis, Debye):
    X=              0.7338    Y=             -1.6902    Z=              0.1581  Tot=              1.8494
 Quadrupole moment (field-independent basis, Debye-Ang):
   XX=            -42.8471   YY=            -42.7763   ZZ=            -43.8528
   XY=             -0.0499   XZ=              2.2236   YZ=             -4.3496

  Exact polarizability:  69.374   6.314  71.414  -0.261  -1.855  49.939
 Approx polarizability:  91.866   9.749 111.425  -1.169  -2.802  67.308

                      1                      2                      3
                      A                      A                      A
 Frequencies --     76.6664               215.5117               241.4382
 Red. masses --      3.2343                 1.1337                 1.5790
 Frc consts  --      0.0112                 0.0310                 0.0542
 IR Inten    --      1.1274                 0.6732                 5.9386

                      4                      5                      6
                      A                      A                      A
 Frequencies --    263.6371               289.9208               308.5775
 Red. masses --      1.2356                 2.7838                 1.1062
 Frc consts  --      0.0506                 0.1379                 0.0621
 IR Inten    --      2.6378                 0.4918                15.0124

                      7                      8                      9
                      A                      A                      A
 Frequencies --    343.3843               375.4550               401.0607
 Red. masses --      2.2745                 1.2868                 2.5531
 Frc consts  --      0.1580                 0.1069                 0.2420
 IR Inten    --      2.8844               104.0597                34.5580

                     10                     11                     12
                      A                      A                      A
 Frequencies --    427.9553               492.3025               522.7514
 Red. masses --      2.8517                 2.7741                 2.7524
 Frc consts  --      0.3077                 0.3961                 0.4431
 IR Inten    --      8.2389                 1.6280                26.6037

                     13                     14                     15
                      A                      A                      A
 Frequencies --    621.4341               695.2170               698.5186
 Red. masses --      1.7113                 2.5075                 1.7229
 Frc consts  --      0.3894                 0.7140                 0.4953
 IR Inten    --    148.9381                 9.2584                51.0410

                     16                     17                     18
                      A                      A                      A
 Frequencies --    769.3072               825.9103               893.5058
 Red. masses --      1.3365                 1.4382                 2.2458
 Frc consts  --      0.4660                 0.5780                 1.0563
 IR Inten    --     39.9839                63.9492                 2.8169

                     19                     20                     21
                      A                      A                      A
 Frequencies --    933.4344               972.9164               995.6706
 Red. masses --      1.5154                 2.0030                 1.6738
 Frc consts  --      0.7779                 1.1171                 0.9777
 IR Inten    --      0.1701                17.4196                22.7068

                     22                     23                     24
                      A                      A                      A
 Frequencies --   1023.3112              1113.9469              1128.0624
 Red. masses --      1.3103                 1.5821                 1.6680
 Frc consts  --      0.8084                 1.1566                 1.2506
 IR Inten    --      0.5232                 2.4751                39.9423

                     25                     26                     27
                      A                      A                      A
 Frequencies --   1216.7575              1228.8851              1353.0824
 Red. masses --      2.3569                 2.7265                 1.9893
 Frc consts  --      2.0559                 2.4260                 2.1458
 IR Inten    --     29.5794                63.4440                59.9907

                     28                     29                     30
                      A                      A                      A
 Frequencies --   1372.9250              1409.2348              1430.2257
 Red. masses --      2.0371                 1.3035                 1.2667
 Frc consts  --      2.2624                 1.5252                 1.5266
 IR Inten    --     12.2733                11.1135                 3.3127

                     31                     32                     33
                      A                      A                      A
 Frequencies --   1446.7534              1489.8165              1499.3694
 Red. masses --      1.1822                 1.0510                 1.0531
 Frc consts  --      1.4579                 1.3745                 1.3949
 IR Inten    --      2.9323                 0.7891                 0.5051

                     34                     35                     36
                      A                      A                      A
 Frequencies --   1507.4998              1520.1106              1662.6365
 Red. masses --      1.0653                 1.0627                 1.1608
 Frc consts  --      1.4264                 1.4469                 1.8905
 IR Inten    --      1.9471                 3.9390                44.7385

                     37                     38                     39
                      A                      A                      A
 Frequencies --   1718.5282              3048.3181              3054.6875
 Red. masses --      4.7808                 1.0356                 1.0359
 Frc consts  --      8.3188                 5.6697                 5.6950
 IR Inten    --     94.7378                20.3934                13.8266

                     40                     41                     42
                      A                      A                      A
 Frequencies --   3121.6492              3124.7397              3138.6766
 Red. masses --      1.1011                 1.1018                 1.1030
 Frc consts  --      6.3220                 6.3384                 6.4020
 IR Inten    --     26.4654                14.8139                33.5959

                     43                     44                     45
                      A                      A                      A
 Frequencies --   3144.3063              3169.6759              3278.1932
 Red. masses --      1.1035                 1.0643                 1.1105
 Frc consts  --      6.4282                 6.3002                 7.0311
 IR Inten    --     19.3906                12.1808                 5.0906

                     46                     47                     48
                      A                      A                      A
 Frequencies --   3548.9464              3649.7227              3791.8325
 Red. masses --      1.0477                 1.0970                 1.0657
 Frc consts  --      7.7745                 8.6096                 9.0278
 IR Inten    --      3.1167                 4.1883                 9.3908

 - Thermochemistry -
 -------------------
 Temperature   298.150 Kelvin.  Pressure   1.00000 Atm.
 Atom     1 has atomic number  6 and mass  12.00000

 Molecular mass:   101.08406 amu.
 Principal axes and moments of inertia in atomic units:
                           1         2         3
     Eigenvalues --   551.96083 772.46541 929.04273
           X            0.99694   0.07800   0.00472
           Y           -0.07788   0.99672  -0.02211
           Z           -0.00643   0.02168   0.99974
 This molecule is an asymmetric top.
 Rotational symmetry number  1.
 Warning -- assumption of classical behavior for rotation
           may cause significant error
 Rotational temperatures (Kelvin)      0.15692     0.11213     0.09323
 Rotational constants (GHZ):           3.26969     2.33634     1.94258
 Zero-point vibrational energy     416040.1 (Joules/Mol)
                                   99.43596 (Kcal/Mol)
 Warning -- explicit consideration of  12 degrees of freedom as
           vibrations may cause significant error
 Vibrational temperatures:    110.31   310.07   347.38   379.31   417.13
          (Kelvin)            443.97   494.05   540.20   577.04   615.73
                              708.31   752.12   894.10  1000.26  1005.01
                             1106.86  1188.30  1285.55  1343.00  1399.81
                             1432.55  1472.31  1602.72  1623.03  1750.64
                             1768.09  1946.78  1975.33  2027.57  2057.77
                             2081.55  2143.51  2157.26  2168.95  2187.10
                             2392.16  2472.58  4385.84  4395.01  4491.35
                             4495.80  4515.85  4523.95  4560.45  4716.58
                             5106.14  5251.13  5455.59

 Zero-point correction=                           0.158461 (Hartree/Particle)
 Thermal correction to Energy=                    0.167039
 Thermal correction to Enthalpy=                  0.167983
 Thermal correction to Gibbs Free Energy=         0.126566
 Sum of electronic and zero-point Energies=           -326.966207
 Sum of electronic and thermal Energies=              -326.957629
 Sum of electronic and thermal Enthalpies=            -326.956685
 Sum of electronic and thermal Free Energies=         -326.998102

                     E (Thermal)             CV                S
                      KCal/Mol        Cal/Mol-Kelvin    Cal/Mol-Kelvin
 Total                  104.819             32.948             87.170
 Electronic               0.000              0.000              0.000
 Translational            0.889              2.981             39.750
 Rotational               0.889              2.981             27.473
 Vibrational            103.041             26.986             19.946
 Vibration     1          0.599              1.965              3.974
 Vibration     2          0.645              1.817              1.996
 Vibration     3          0.658              1.777              1.792
 Vibration     4          0.670              1.740              1.638
 Vibration     5          0.686              1.692              1.474
 Vibration     6          0.698              1.657              1.370
 Vibration     7          0.722              1.589              1.196
 Vibration     8          0.746              1.522              1.057
 Vibration     9          0.767              1.468              0.959
 Vibration    10          0.789              1.409              0.865
 Vibration    11          0.848              1.267              0.678
 Vibration    12          0.878              1.200              0.604

 Optimization completed.
    -- Stationary point found.
 Normal termination of Gaussian 09 at Thu Sep  8 15:12:03 2022.
