 Gaussian 09, Revision E.01,
 Gaussian 09:  ES64L-G09RevE.01 30-Nov-2015

 ----------------------------
 #P OPT Freq B3LYP/6-31G(d,p)
 ----------------------------

 --------
 Frag_656
 --------
 Symbolic Z-matrix:
 Charge =  0 Multiplicity = 1

 SCF Done:  E(RB3LYP) =  -229.749626194     A.U. after   14 cycles
 SCF Done:  E(RB3LYP) =  -229.749667497     A.U. after    9 cycles
 SCF Done:  E(RB3LYP) =  -229.749671740     A.U. after    9 cycles
 SCF Done:  E(RB3LYP) =  -229.749673473     A.U. after    8 cycles
 Optimization completed.
    -- Stationary point found.
 Normal termination of Gaussian 09 at Thu Sep  8 15:06:38 2022.

 ----------------------------------------------------------------------
 #P Geom=AllCheck Guess=TCheck SCRF=Check GenChk RB3LYP/6-31G(d,p) Freq
 ----------------------------------------------------------------------

 Structure from the checkpoint file:  "B3LYP6-31Gdp.Frag_656.chk"
 --------
 Frag_656
 --------
 Charge =  0 Multiplicity = 1

                         Standard orientation:
 ---------------------------------------------------------------------
 Center     Atomic      Atomic             Coordinates (Angstroms)
 Number     Number       Type             X           Y           Z
 ---------------------------------------------------------------------
      1          6           0       -1.694111   -0.823332    0.006806
      2          6           0       -0.413082   -0.034808    0.290823
      3          6           0       -0.600118    1.450762   -0.112614
      4          7           0        0.656382   -0.722467   -0.398109
      5          7           0        1.880670   -0.132362    0.077305
      6          1           0       -1.890190   -0.835711   -1.070798
      7          1           0       -1.580118   -1.859096    0.338234
      8          1           0       -2.559739   -0.381429    0.511356
      9          1           0       -0.256379   -0.039317    1.404162
     10          1           0       -0.841853    1.519601   -1.178687
     11          1           0       -1.400393    1.933722    0.460799
     12          1           0        0.305075    2.052400    0.059616
     13          1           0        2.014580   -0.168093    1.116922
     14          1           0        2.048838    0.869508   -0.165181
     15          1           0        2.644678   -0.663523   -0.340881
 ---------------------------------------------------------------------

 SCF Done:  E(RB3LYP) =  -229.749673473     A.U. after    1 cycles

 The electronic state is 1-A.
 Alpha  occ. eigenvalues --  -14.45401 -14.25055 -10.17993 -10.15459 -10.14426
 Alpha  occ. eigenvalues --   -0.99370  -0.79577  -0.69284  -0.65883  -0.57399
 Alpha  occ. eigenvalues --   -0.54822  -0.52339  -0.45666  -0.41333  -0.38154
 Alpha  occ. eigenvalues --   -0.36036  -0.34432  -0.31431  -0.31074  -0.22691
 Alpha  occ. eigenvalues --   -0.14248
 Alpha virt. eigenvalues --    0.02745   0.09158   0.09700   0.12234   0.16589
 Alpha virt. eigenvalues --    0.17285   0.18394   0.19417   0.20098   0.22507
 Alpha virt. eigenvalues --    0.23331   0.25527   0.27906   0.31547   0.52026

 Mulliken charges:
               1
     1  C   -0.298905
     2  C    0.106136
     3  C   -0.308517
     4  N   -0.500332
     5  N   -0.371962
     6  H    0.103560
     7  H    0.100993
     8  H    0.079376
     9  H    0.009018
    10  H    0.105639
    11  H    0.088212
    12  H    0.048188
    13  H    0.254470
    14  H    0.264448
    15  H    0.319677
 Sum of Mulliken charges =  -0.00000

 Dipole moment (field-independent basis, Debye):
    X=              3.9824    Y=              1.6857    Z=              1.4397  Tot=              4.5579
 Quadrupole moment (field-independent basis, Debye-Ang):
   XX=            -21.5292   YY=            -36.1377   ZZ=            -34.4296
   XY=              0.7541   XZ=              1.4097   YZ=             -1.1664

  Exact polarizability:  62.792   1.889  49.494   1.964   1.015  46.498
 Approx polarizability:  80.787   3.822  68.334   3.529   5.254  69.680

                      1                      2                      3
                      A                      A                      A
 Frequencies --    143.7588               214.1144               239.5140
 Red. masses --      2.1182                 1.0993                 1.1089
 Frc consts  --      0.0258                 0.0297                 0.0375
 IR Inten    --     27.6924                 3.1104                 3.8606

                      4                      5                      6
                      A                      A                      A
 Frequencies --    259.7516               294.3103               359.5088
 Red. masses --      1.1386                 2.2839                 2.2257
 Frc consts  --      0.0453                 0.1166                 0.1695
 IR Inten    --      4.5995                19.5164                 1.6816

                      7                      8                      9
                      A                      A                      A
 Frequencies --    465.2000               502.1626               756.1936
 Red. masses --      2.4453                 2.4913                 4.1684
 Frc consts  --      0.3118                 0.3701                 1.4044
 IR Inten    --     22.5240                 1.0934                32.4671

                     10                     11                     12
                      A                      A                      A
 Frequencies --    821.3691               918.9288               935.5656
 Red. masses --      3.1380                 1.2183                 1.5257
 Frc consts  --      1.2473                 0.6061                 0.7868
 IR Inten    --      8.9712                 0.8240                 7.7114

                     13                     14                     15
                      A                      A                      A
 Frequencies --    964.4877              1083.1201              1103.0664
 Red. masses --      2.0102                 1.2879                 1.5023
 Frc consts  --      1.1018                 0.8902                 1.0770
 IR Inten    --     16.8465                12.4369                25.3351

                     16                     17                     18
                      A                      A                      A
 Frequencies --   1121.5900              1188.1261              1228.6523
 Red. masses --      1.6936                 1.8814                 2.3212
 Frc consts  --      1.2553                 1.5648                 2.0645
 IR Inten    --     12.8253                13.1378                14.1864

                     19                     20                     21
                      A                      A                      A
 Frequencies --   1349.9025              1365.0428              1397.1118
 Red. masses --      1.5055                 1.2329                 1.2758
 Frc consts  --      1.6163                 1.3535                 1.4673
 IR Inten    --     22.7559                43.9406                 8.0526

                     22                     23                     24
                      A                      A                      A
 Frequencies --   1418.3133              1487.1695              1495.5972
 Red. masses --      1.2694                 1.0904                 1.0532
 Frc consts  --      1.5045                 1.4208                 1.3880
 IR Inten    --      7.7632                 6.2252                 0.2944

                     25                     26                     27
                      A                      A                      A
 Frequencies --   1498.6155              1513.7189              1525.8807
 Red. masses --      1.0801                 1.0530                 1.0668
 Frc consts  --      1.4292                 1.4216                 1.4635
 IR Inten    --      5.9122                 4.7735                 8.8247

                     28                     29                     30
                      A                      A                      A
 Frequencies --   1609.7946              1678.1516              2721.2411
 Red. masses --      1.0601                 1.0506                 1.0773
 Frc consts  --      1.6186                 1.7432                 4.7003
 IR Inten    --     17.5622                49.9937               198.9248

                     31                     32                     33
                      A                      A                      A
 Frequencies --   2985.3096              3003.1869              3043.5005
 Red. masses --      1.0876                 1.0451                 1.0356
 Frc consts  --      5.7106                 5.5535                 5.6519
 IR Inten    --    105.2429                36.6882                20.5099

                     34                     35                     36
                      A                      A                      A
 Frequencies --   3065.0702              3075.6430              3108.2161
 Red. masses --      1.0864                 1.0434                 1.1020
 Frc consts  --      6.0136                 5.8151                 6.2725
 IR Inten    --    127.0865               149.4827                10.3596

                     37                     38                     39
                      A                      A                      A
 Frequencies --   3114.9740              3127.5820              3512.0517
 Red. masses --      1.1019                 1.1021                 1.0773
 Frc consts  --      6.2993                 6.3517                 7.8291
 IR Inten    --     61.7510                32.5190                34.8251

 - Thermochemistry -
 -------------------
 Temperature   298.150 Kelvin.  Pressure   1.00000 Atm.
 Atom     1 has atomic number  6 and mass  12.00000

 Molecular mass:    74.08440 amu.
 Principal axes and moments of inertia in atomic units:
                           1         2         3
     Eigenvalues --   238.29850 490.32973 657.42664
           X            0.99963   0.02536   0.00966
           Y           -0.02519   0.99953  -0.01724
           Z           -0.01009   0.01699   0.99980
 This molecule is an asymmetric top.
 Rotational symmetry number  1.
 Rotational temperatures (Kelvin)      0.36347     0.17664     0.13175
 Rotational constants (GHZ):           7.57345     3.68067     2.74516
 Zero-point vibrational energy     357058.3 (Joules/Mol)
                                   85.33899 (Kcal/Mol)
 Warning -- explicit consideration of   8 degrees of freedom as
           vibrations may cause significant error
 Vibrational temperatures:    206.84   308.06   344.61   373.72   423.45
          (Kelvin)            517.25   669.32   722.50  1087.99  1181.77
                             1322.13  1346.07  1387.68  1558.37  1587.06
                             1613.72  1709.45  1767.75  1942.21  1963.99
                             2010.13  2040.63  2139.70  2151.83  2156.17
                             2177.90  2195.40  2316.13  2414.48  3915.25
                             4295.19  4320.91  4378.91  4409.95  4425.16
                             4472.02  4481.75  4499.89  5053.05

 Zero-point correction=                           0.135996 (Hartree/Particle)
 Thermal correction to Energy=                    0.142721
 Thermal correction to Enthalpy=                  0.143665
 Thermal correction to Gibbs Free Energy=         0.106564
 Sum of electronic and zero-point Energies=           -229.613677
 Sum of electronic and thermal Energies=              -229.606953
 Sum of electronic and thermal Enthalpies=            -229.606008
 Sum of electronic and thermal Free Energies=         -229.643109

                     E (Thermal)             CV                S
                      KCal/Mol        Cal/Mol-Kelvin    Cal/Mol-Kelvin
 Total                   89.559             23.863             78.086
 Electronic               0.000              0.000              0.000
 Translational            0.889              2.981             38.824
 Rotational               0.889              2.981             25.844
 Vibrational             87.781             17.902             13.418
 Vibration     1          0.616              1.909              2.753
 Vibration     2          0.644              1.819              2.008
 Vibration     3          0.657              1.780              1.806
 Vibration     4          0.668              1.746              1.663
 Vibration     5          0.689              1.684              1.449
 Vibration     6          0.734              1.556              1.124
 Vibration     7          0.823              1.327              0.751
 Vibration     8          0.858              1.245              0.653

 Normal termination of Gaussian 09 at Thu Sep  8 15:06:49 2022.
