 Gaussian 09, Revision E.01,
 Gaussian 09:  ES64L-G09RevE.01 30-Nov-2015

 ----------------------------
 #P OPT Freq B3LYP/6-31G(d,p)
 ----------------------------

 --------
 Frag_505
 --------
 Symbolic Z-matrix:
 Charge =  0 Multiplicity = 1

 SCF Done:  E(RB3LYP) =  -287.808903409     A.U. after   13 cycles
 SCF Done:  E(RB3LYP) =  -287.808964246     A.U. after    9 cycles
 SCF Done:  E(RB3LYP) =  -287.808969121     A.U. after    8 cycles
 SCF Done:  E(RB3LYP) =  -287.808971769     A.U. after    8 cycles
 SCF Done:  E(RB3LYP) =  -287.808972990     A.U. after    8 cycles
 SCF Done:  E(RB3LYP) =  -287.808973223     A.U. after    7 cycles
 Optimization completed.
    -- Stationary point found.
 Normal termination of Gaussian 09 at Thu Sep  8 15:10:10 2022.

 ----------------------------------------------------------------------
 #P Geom=AllCheck Guess=TCheck SCRF=Check GenChk RB3LYP/6-31G(d,p) Freq
 ----------------------------------------------------------------------

 Structure from the checkpoint file:  "B3LYP6-31Gdp.Frag_505.chk"
 --------
 Frag_505
 --------
 Charge =  0 Multiplicity = 1

                         Standard orientation:
 ---------------------------------------------------------------------
 Center     Atomic      Atomic             Coordinates (Angstroms)
 Number     Number       Type             X           Y           Z
 ---------------------------------------------------------------------
      1          6           0       -1.722194   -0.929426   -0.047151
      2          6           0       -0.653716    0.133281   -0.008461
      3          7           0       -1.188329    1.442202    0.150854
      4          6           0        0.667537   -0.132914   -0.016570
      5          6           0        1.779689    0.872098   -0.057726
      6          8           0        1.192164   -1.415814    0.036057
      7          1           0       -1.348013   -1.895725   -0.399322
      8          1           0       -2.520014   -0.637657   -0.742750
      9          1           0       -2.195571   -1.071294    0.932112
     10          1           0       -0.477666    2.162301    0.199016
     11          1           0       -1.845760    1.679480   -0.588746
     12          1           0        1.447281    1.842304   -0.436216
     13          1           0        2.568279    0.504102   -0.722688
     14          1           0        2.235519    1.024983    0.928646
     15          1           0        0.489043   -2.035622    0.264962
 ---------------------------------------------------------------------

 SCF Done:  E(RB3LYP) =  -287.808973223     A.U. after    1 cycles

 The electronic state is 1-A.
 Alpha  occ. eigenvalues --  -19.15477 -14.32336 -10.22014 -10.19995 -10.18556
 Alpha  occ. eigenvalues --  -10.17902  -1.03104  -0.89221  -0.75179  -0.73159
 Alpha  occ. eigenvalues --   -0.64124  -0.56214  -0.51806  -0.47578  -0.43607
 Alpha  occ. eigenvalues --   -0.42513  -0.40443  -0.39596  -0.37723  -0.37018
 Alpha  occ. eigenvalues --   -0.35369  -0.33210  -0.28740  -0.17461
 Alpha virt. eigenvalues --    0.05472   0.07054   0.09546   0.11830   0.14814
 Alpha virt. eigenvalues --    0.15379   0.16933   0.18225   0.20173   0.22282
 Alpha virt. eigenvalues --    0.22951   0.25471   0.26663   0.37454   0.46783

 Mulliken charges:
               1
     1  C   -0.366181
     2  C    0.179291
     3  N   -0.639483
     4  C    0.278669
     5  C   -0.363072
     6  O   -0.557874
     7  H    0.091869
     8  H    0.107524
     9  H    0.130433
    10  H    0.243424
    11  H    0.241601
    12  H    0.093268
    13  H    0.127592
    14  H    0.123811
    15  H    0.309129
 Sum of Mulliken charges =  -0.00000

 Dipole moment (field-independent basis, Debye):
    X=             -0.9924    Y=              0.4762    Z=             -0.6921  Tot=              1.3003
 Quadrupole moment (field-independent basis, Debye-Ang):
   XX=            -38.3201   YY=            -32.5354   ZZ=            -38.6449
   XY=              3.1945   XZ=              2.4342   YZ=             -2.6542

  Exact polarizability:  73.534  -1.374  56.097   1.337  -0.666  35.924
 Approx polarizability: 108.219 -10.939  76.905   1.162  -0.166  51.166

                      1                      2                      3
                      A                      A                      A
 Frequencies --    141.7180               150.7252               155.4780
 Red. masses --      1.1742                 1.3682                 1.4880
 Frc consts  --      0.0139                 0.0183                 0.0212
 IR Inten    --      0.8801                 1.6504                 3.0668

                      4                      5                      6
                      A                      A                      A
 Frequencies --    233.1620               305.9089               321.2373
 Red. masses --      1.2666                 1.3273                 1.6448
 Frc consts  --      0.0406                 0.0732                 0.1000
 IR Inten    --     27.1924                68.5292                45.1410

                      7                      8                      9
                      A                      A                      A
 Frequencies --    351.9666               400.2498               453.2039
 Red. masses --      3.5142                 2.3234                 2.7101
 Frc consts  --      0.2565                 0.2193                 0.3280
 IR Inten    --      8.6136                16.4369                24.1422

                     10                     11                     12
                      A                      A                      A
 Frequencies --    534.0007               540.7660               726.9810
 Red. masses --      3.4636                 3.4755                 4.2090
 Frc consts  --      0.5819                 0.5988                 1.3106
 IR Inten    --      2.6060                 1.5407                 4.4426

                     13                     14                     15
                      A                      A                      A
 Frequencies --    782.4448               941.4245              1011.7603
 Red. masses --      1.3550                 2.2013                 1.4494
 Frc consts  --      0.4888                 1.1495                 0.8742
 IR Inten    --    247.7042                 8.7617                14.9623

                     16                     17                     18
                      A                      A                      A
 Frequencies --   1034.7670              1066.4711              1073.8703
 Red. masses --      1.4568                 1.4890                 1.4842
 Frc consts  --      0.9190                 0.9978                 1.0084
 IR Inten    --     13.7059                 7.3181                 7.1827

                     19                     20                     21
                      A                      A                      A
 Frequencies --   1173.6934              1243.0346              1306.2719
 Red. masses --      1.5194                 3.7719                 1.7755
 Frc consts  --      1.2332                 3.4338                 1.7850
 IR Inten    --    102.0540               115.9758                51.2049

                     22                     23                     24
                      A                      A                      A
 Frequencies --   1356.1098              1422.7574              1445.0659
 Red. masses --      1.9931                 1.2632                 1.5435
 Frc consts  --      2.1596                 1.5065                 1.8990
 IR Inten    --     12.2186                 5.6568                 0.7462

                     25                     26                     27
                      A                      A                      A
 Frequencies --   1490.1548              1493.3593              1504.7311
 Red. masses --      1.0551                 1.0597                 1.0620
 Frc consts  --      1.3804                 1.3924                 1.4168
 IR Inten    --      5.0605                 1.2489                 4.3264

                     28                     29                     30
                      A                      A                      A
 Frequencies --   1510.8807              1655.4214              1775.5205
 Red. masses --      1.0516                 1.1163                 6.7203
 Frc consts  --      1.4143                 1.8023                12.4821
 IR Inten    --      6.6834                40.0935                 8.0446

                     31                     32                     33
                      A                      A                      A
 Frequencies --   3024.0775              3034.3374              3073.9219
 Red. masses --      1.0378                 1.0400                 1.0996
 Frc consts  --      5.5920                 5.6415                 6.1218
 IR Inten    --     47.5727                29.8073                26.5021

                     34                     35                     36
                      A                      A                      A
 Frequencies --   3091.7734              3106.7773              3125.8244
 Red. masses --      1.0972                 1.1005                 1.1008
 Frc consts  --      6.1795                 6.2584                 6.3370
 IR Inten    --     19.2532                29.3289                24.8578

                     37                     38                     39
                      A                      A                      A
 Frequencies --   3489.5534              3620.4858              3838.4328
 Red. masses --      1.0531                 1.0891                 1.0652
 Frc consts  --      7.5557                 8.4110                 9.2465
 IR Inten    --      3.6001                 0.6787                15.8011

 - Thermochemistry -
 -------------------
 Temperature   298.150 Kelvin.  Pressure   1.00000 Atm.
 Atom     1 has atomic number  6 and mass  12.00000

 Molecular mass:    87.06841 amu.
 Principal axes and moments of inertia in atomic units:
                           1         2         3
     Eigenvalues --   377.62631 579.94708 928.80556
           X            0.99088   0.13462   0.00650
           Y           -0.13455   0.99085  -0.01049
           Z           -0.00785   0.00952   0.99992
 This molecule is an asymmetric top.
 Rotational symmetry number  1.
 Rotational temperatures (Kelvin)      0.22936     0.14935     0.09325
 Rotational constants (GHZ):           4.77917     3.11191     1.94308
 Zero-point vibrational energy     340985.5 (Joules/Mol)
                                   81.49748 (Kcal/Mol)
 Warning -- explicit consideration of  11 degrees of freedom as
           vibrations may cause significant error
 Vibrational temperatures:    203.90   216.86   223.70   335.47   440.13
          (Kelvin)            462.19   506.40   575.87   652.06   768.31
                              778.04  1045.96  1125.76  1354.50  1455.70
                             1488.80  1534.41  1545.06  1688.68  1788.45
                             1879.43  1951.14  2047.03  2079.12  2144.00
                             2148.61  2164.97  2173.82  2381.78  2554.57
                             4350.97  4365.73  4422.68  4448.37  4469.95
                             4497.36  5020.68  5209.07  5522.64

 Zero-point correction=                           0.129875 (Hartree/Particle)
 Thermal correction to Energy=                    0.137728
 Thermal correction to Enthalpy=                  0.138673
 Thermal correction to Gibbs Free Energy=         0.098810
 Sum of electronic and zero-point Energies=           -287.679099
 Sum of electronic and thermal Energies=              -287.671245
 Sum of electronic and thermal Enthalpies=            -287.670301
 Sum of electronic and thermal Free Energies=         -287.710164

                     E (Thermal)             CV                S
                      KCal/Mol        Cal/Mol-Kelvin    Cal/Mol-Kelvin
 Total                   86.426             27.938             83.899
 Electronic               0.000              0.000              0.000
 Translational            0.889              2.981             39.305
 Rotational               0.889              2.981             26.811
 Vibrational             84.648             21.977             17.782
 Vibration     1          0.615              1.912              2.781
 Vibration     2          0.618              1.902              2.663
 Vibration     3          0.620              1.897              2.604
 Vibration     4          0.654              1.790              1.854
 Vibration     5          0.696              1.662              1.384
 Vibration     6          0.707              1.633              1.304
 Vibration     7          0.729              1.571              1.157
 Vibration     8          0.766              1.470              0.962
 Vibration     9          0.812              1.354              0.786
 Vibration    10          0.889              1.175              0.578
 Vibration    11          0.896              1.160              0.564

 Normal termination of Gaussian 09 at Thu Sep  8 15:10:22 2022.
