 Gaussian 09, Revision E.01,
 Gaussian 09:  ES64L-G09RevE.01 30-Nov-2015

 ----------------------------
 #P OPT Freq B3LYP/6-31G(d,p)
 ----------------------------

 ---------
 Frag_1091
 ---------
 Symbolic Z-matrix:
 Charge =  0 Multiplicity = 1

 SCF Done:  E(RB3LYP) =  -263.319427125     A.U. after   15 cycles
 SCF Done:  E(RB3LYP) =  -263.319546513     A.U. after   11 cycles
 SCF Done:  E(RB3LYP) =  -263.319372171     A.U. after   13 cycles
 SCF Done:  E(RB3LYP) =  -263.319548407     A.U. after    8 cycles
 SCF Done:  E(RB3LYP) =  -263.319553684     A.U. after    9 cycles
 SCF Done:  E(RB3LYP) =  -263.319554037     A.U. after    9 cycles
 Optimization completed.
    -- Stationary point found.
 Normal termination of Gaussian 09 at Thu Sep  8 14:48:27 2022.

 ----------------------------------------------------------------------
 #P Geom=AllCheck Guess=TCheck SCRF=Check GenChk RB3LYP/6-31G(d,p) Freq
 ----------------------------------------------------------------------

 Structure from the checkpoint file:  "B3LYP6-31Gdp.Frag_1091.chk"
 ---------
 Frag_1091
 ---------
 Charge =  0 Multiplicity = 1

                         Standard orientation:
 ---------------------------------------------------------------------
 Center     Atomic      Atomic             Coordinates (Angstroms)
 Number     Number       Type             X           Y           Z
 ---------------------------------------------------------------------
      1          7           0       -0.507850    1.402045   -0.004254
      2          6           0       -0.455665    0.124622   -0.003901
      3          7           0       -1.495045   -0.787361   -0.045413
      4          6           0        0.908008   -0.546771   -0.028537
      5          8           0        1.956274    0.043812    0.029556
      6          1           0       -1.477810    1.733400    0.007572
      7          1           0       -2.426442   -0.456023    0.159083
      8          1           0       -1.313676   -1.738276    0.243459
      9          1           0        0.873943   -1.659494   -0.104257
 ---------------------------------------------------------------------

 SCF Done:  E(RB3LYP) =  -263.319554037     A.U. after    1 cycles

 The electronic state is 1-A.
 Alpha  occ. eigenvalues --  -19.16404 -14.37257 -14.31463 -10.28992 -10.27342
 Alpha  occ. eigenvalues --   -1.05998  -0.96024  -0.86507  -0.69220  -0.57160
 Alpha  occ. eigenvalues --   -0.54027  -0.53090  -0.45256  -0.43613  -0.42362
 Alpha  occ. eigenvalues --   -0.36431  -0.28290  -0.26390  -0.25680
 Alpha virt. eigenvalues --   -0.06534   0.04915   0.08025   0.10339   0.12029
 Alpha virt. eigenvalues --    0.15683   0.24808   0.27268   0.32952   0.44035
 Alpha virt. eigenvalues --    0.51590   0.54622   0.58568   0.61120   0.61545

 Mulliken charges:
               1
     1  N   -0.521214
     2  C    0.392406
     3  N   -0.622548
     4  C    0.293755
     5  O   -0.354856
     6  H    0.214059
     7  H    0.269123
     8  H    0.269115
     9  H    0.060161
 Sum of Mulliken charges =   0.00000

 Dipole moment (field-independent basis, Debye):
    X=             -4.1876    Y=             -3.1879    Z=              0.7135  Tot=              5.3111
 Quadrupole moment (field-independent basis, Debye-Ang):
   XX=            -27.2936   YY=            -28.0965   ZZ=            -29.4483
   XY=             -1.7458   XZ=             -1.6927   YZ=             -1.0288

  Exact polarizability:  44.236   0.626  47.124  -0.221   0.182  16.701
 Approx polarizability:  64.636   7.799  79.206   0.625   1.103  24.247

                      1                      2                      3
                      A                      A                      A
 Frequencies --    104.1929               294.6101               353.6838
 Red. masses --      2.6684                 5.6194                 1.1762
 Frc consts  --      0.0171                 0.2874                 0.0867
 IR Inten    --      1.0766                 1.7695                98.2601

                      4                      5                      6
                      A                      A                      A
 Frequencies --    425.3433               458.5990               542.5619
 Red. masses --      1.2807                 2.7431                 2.3045
 Frc consts  --      0.1365                 0.3399                 0.3997
 IR Inten    --    151.5884                35.2930                 2.7187

                      7                      8                      9
                      A                      A                      A
 Frequencies --    652.4878               866.5099               881.7104
 Red. masses --      3.9779                 1.4579                 3.2665
 Frc consts  --      0.9978                 0.6450                 1.4962
 IR Inten    --     42.5011                73.3044                47.8409

                     10                     11                     12
                      A                      A                      A
 Frequencies --   1019.3231              1086.2773              1126.3762
 Red. masses --      1.7813                 1.7410                 1.5050
 Frc consts  --      1.0905                 1.2104                 1.1250
 IR Inten    --      6.8670                 4.4548                26.1068

                     13                     14                     15
                      A                      A                      A
 Frequencies --   1370.3809              1456.0093              1645.9334
 Red. masses --      1.8145                 1.4406                 1.2154
 Frc consts  --      2.0077                 1.7994                 1.9399
 IR Inten    --     95.8426                37.8213                46.9351

                     16                     17                     18
                      A                      A                      A
 Frequencies --   1726.7807              1854.0449              2867.5466
 Red. masses --      6.1640                10.8652                 1.0834
 Frc consts  --     10.8289                22.0053                 5.2487
 IR Inten    --    180.3073                84.2215               138.9801

                     19                     20                     21
                      A                      A                      A
 Frequencies --   3441.5662              3580.8293              3698.6214
 Red. masses --      1.0751                 1.0469                 1.1013
 Frc consts  --      7.5025                 7.9087                 8.8760
 IR Inten    --      8.0692                23.5220                23.1795

 - Thermochemistry -
 -------------------
 Temperature   298.150 Kelvin.  Pressure   1.00000 Atm.
 Atom     1 has atomic number  7 and mass  14.00307

 Molecular mass:    72.03236 amu.
 Principal axes and moments of inertia in atomic units:
                           1         2         3
     Eigenvalues --   175.50951 425.12060 599.62755
           X            0.99995  -0.00712  -0.00688
           Y            0.00708   0.99995  -0.00640
           Z            0.00692   0.00635   0.99996
 This molecule is an asymmetric top.
 Rotational symmetry number  1.
 Rotational temperatures (Kelvin)      0.49350     0.20374     0.14445
 Rotational constants (GHZ):          10.28287     4.24525     3.00977
 Zero-point vibrational energy     176170.4 (Joules/Mol)
                                   42.10573 (Kcal/Mol)
 Warning -- explicit consideration of   6 degrees of freedom as
           vibrations may cause significant error
 Vibrational temperatures:    149.91   423.88   508.87   611.97   659.82
          (Kelvin)            780.62   938.78  1246.71  1268.58  1466.58
                             1562.91  1620.60  1971.67  2094.87  2368.13
                             2484.45  2667.55  4125.75  4951.64  5152.01
                             5321.48

 Zero-point correction=                           0.067100 (Hartree/Particle)
 Thermal correction to Energy=                    0.072535
 Thermal correction to Enthalpy=                  0.073479
 Thermal correction to Gibbs Free Energy=         0.038720
 Sum of electronic and zero-point Energies=           -263.252454
 Sum of electronic and thermal Energies=              -263.247019
 Sum of electronic and thermal Enthalpies=            -263.246075
 Sum of electronic and thermal Free Energies=         -263.280834

                     E (Thermal)             CV                S
                      KCal/Mol        Cal/Mol-Kelvin    Cal/Mol-Kelvin
 Total                   45.516             18.277             73.156
 Electronic               0.000              0.000              0.000
 Translational            0.889              2.981             38.740
 Rotational               0.889              2.981             25.307
 Vibrational             43.739             12.316              9.109
 Vibration     1          0.605              1.946              3.374
 Vibration     2          0.689              1.684              1.447
 Vibration     3          0.730              1.568              1.150
 Vibration     4          0.787              1.415              0.874
 Vibration     5          0.817              1.342              0.770
 Vibration     6          0.898              1.156              0.560

 Optimization completed.
    -- Stationary point found.
 Normal termination of Gaussian 09 at Thu Sep  8 14:48:34 2022.
