 Gaussian 09, Revision E.01,
 Gaussian 09:  ES64L-G09RevE.01 30-Nov-2015

 ----------------------------
 #P OPT Freq B3LYP/6-31G(d,p)
 ----------------------------

 ---------
 Frag_1161
 ---------
 Symbolic Z-matrix:
 Charge =  0 Multiplicity = 1

 SCF Done:  E(RB3LYP) =  -281.742621804     A.U. after   12 cycles
 SCF Done:  E(RB3LYP) =  -281.742661720     A.U. after   10 cycles
 SCF Done:  E(RB3LYP) =  -281.742675772     A.U. after   10 cycles
 SCF Done:  E(RB3LYP) =  -281.742680860     A.U. after    8 cycles
 SCF Done:  E(RB3LYP) =  -281.742681461     A.U. after    7 cycles
 SCF Done:  E(RB3LYP) =  -281.742681597     A.U. after    7 cycles
 SCF Done:  E(RB3LYP) =  -281.742681637     A.U. after    7 cycles
 Optimization completed.
    -- Stationary point found.
 Normal termination of Gaussian 09 at Thu Sep  8 14:45:55 2022.

 ----------------------------------------------------------------------
 #P Geom=AllCheck Guess=TCheck SCRF=Check GenChk RB3LYP/6-31G(d,p) Freq
 ----------------------------------------------------------------------

 Structure from the checkpoint file:  "B3LYP6-31Gdp.Frag_1161.chk"
 ---------
 Frag_1161
 ---------
 Charge =  0 Multiplicity = 1

                         Standard orientation:
 ---------------------------------------------------------------------
 Center     Atomic      Atomic             Coordinates (Angstroms)
 Number     Number       Type             X           Y           Z
 ---------------------------------------------------------------------
      1          7           0        1.931666   -0.156992   -0.017178
      2          8           0        0.633247   -0.687350   -0.330022
      3          6           0       -0.431676    0.003084    0.331328
      4          7           0       -0.399150    1.395066   -0.071394
      5          7           0       -1.669458   -0.669062    0.026287
      6          1           0        2.074858   -0.361773    0.978126
      7          1           0        1.809457    0.859448   -0.069833
      8          1           0       -0.276205   -0.034857    1.421981
      9          1           0       -1.095370    1.921031    0.450056
     10          1           0       -0.638701    1.465326   -1.059476
     11          1           0       -1.772622   -0.719723   -0.987058
     12          1           0       -1.618744   -1.632239    0.354416
 ---------------------------------------------------------------------

 SCF Done:  E(RB3LYP) =  -281.742681637     A.U. after    1 cycles

 The electronic state is 1-A.
 Alpha  occ. eigenvalues --  -19.16513 -14.35542 -14.32905 -14.32529 -10.28758
 Alpha  occ. eigenvalues --   -1.06086  -0.92023  -0.85494  -0.78590  -0.63014
 Alpha  occ. eigenvalues --   -0.53872  -0.50286  -0.49086  -0.47224  -0.45979
 Alpha  occ. eigenvalues --   -0.40729  -0.35395  -0.28152  -0.27612  -0.26661
 Alpha  occ. eigenvalues --   -0.23731
 Alpha virt. eigenvalues --    0.07364   0.08924   0.10412   0.11554   0.14125
 Alpha virt. eigenvalues --    0.16458   0.17327   0.18865   0.22713   0.26714
 Alpha virt. eigenvalues --    0.28999   0.54001   0.57098   0.61636   0.62750

 Mulliken charges:
               1
     1  N   -0.343909
     2  O   -0.413824
     3  C    0.361501
     4  N   -0.587860
     5  N   -0.581463
     6  H    0.236773
     7  H    0.259934
     8  H    0.081730
     9  H    0.253005
    10  H    0.244863
    11  H    0.239901
    12  H    0.249349
 Sum of Mulliken charges =   0.00000

 Dipole moment (field-independent basis, Debye):
    X=             -1.6213    Y=              0.9287    Z=              0.9819  Tot=              2.1107
 Quadrupole moment (field-independent basis, Debye-Ang):
   XX=            -34.5830   YY=            -28.7535   ZZ=            -27.8511
   XY=              1.6180   XZ=              5.1299   YZ=             -1.6389

  Exact polarizability:  43.439   1.913  36.864   2.650  -1.408  34.475
 Approx polarizability:  55.995   2.662  49.920   2.734  -0.859  49.580

                      1                      2                      3
                      A                      A                      A
 Frequencies --    170.9399               270.9182               292.9564
 Red. masses --      3.3744                 1.2064                 1.3158
 Frc consts  --      0.0581                 0.0522                 0.0665
 IR Inten    --      5.3133                34.1165                52.2623

                      4                      5                      6
                      A                      A                      A
 Frequencies --    310.9730               350.1956               427.9264
 Red. masses --      1.8663                 1.1441                 2.7025
 Frc consts  --      0.1063                 0.0827                 0.2916
 IR Inten    --     44.7136                24.5501                36.1715

                      7                      8                      9
                      A                      A                      A
 Frequencies --    551.8975               575.3207               860.4032
 Red. masses --      3.2057                 2.7717                 2.2055
 Frc consts  --      0.5753                 0.5405                 0.9619
 IR Inten    --     15.2896                13.7438                54.4607

                     10                     11                     12
                      A                      A                      A
 Frequencies --    877.5856               933.0490               954.3170
 Red. masses --      1.8489                 2.0695                 5.5038
 Frc consts  --      0.8390                 1.0615                 2.9533
 IR Inten    --     98.6951               197.0627                 1.0191

                     13                     14                     15
                      A                      A                      A
 Frequencies --   1026.1100              1164.5432              1185.9286
 Red. masses --      1.8943                 1.3621                 2.7822
 Frc consts  --      1.1751                 1.0883                 2.3055
 IR Inten    --    137.4179                48.0574                60.3031

                     16                     17                     18
                      A                      A                      A
 Frequencies --   1234.5516              1328.8917              1351.9577
 Red. masses --      1.3442                 1.5867                 1.1259
 Frc consts  --      1.2070                 1.6509                 1.2125
 IR Inten    --     89.9859                35.3466                23.2970

                     19                     20                     21
                      A                      A                      A
 Frequencies --   1393.9025              1442.6772              1650.4816
 Red. masses --      1.2663                 1.3149                 1.1054
 Frc consts  --      1.4496                 1.6124                 1.7742
 IR Inten    --     30.8028                33.3515                34.4778

                     22                     23                     24
                      A                      A                      A
 Frequencies --   1665.3935              1672.7011              2994.3111
 Red. masses --      1.0679                 1.1019                 1.0854
 Frc consts  --      1.7451                 1.8165                 5.7336
 IR Inten    --     12.9808                41.6240                65.1054

                     25                     26                     27
                      A                      A                      A
 Frequencies --   3364.2590              3464.6724              3474.4244
 Red. masses --      1.0468                 1.0942                 1.0495
 Frc consts  --      6.9806                 7.7388                 7.4646
 IR Inten    --     18.6697                 4.7938                 0.0172

                     28                     29                     30
                      A                      A                      A
 Frequencies --   3487.9868              3560.3097              3586.5773
 Red. masses --      1.0507                 1.0915                 1.0913
 Frc consts  --      7.5315                 8.1516                 8.2711
 IR Inten    --      0.7148                 0.2998                 2.5216

 - Thermochemistry -
 -------------------
 Temperature   298.150 Kelvin.  Pressure   1.00000 Atm.
 Atom     1 has atomic number  7 and mass  14.00307

 Molecular mass:    77.05891 amu.
 Principal axes and moments of inertia in atomic units:
                           1         2         3
     Eigenvalues --   213.64770 449.50780 602.54657
           X            0.99934   0.02588   0.02563
           Y           -0.02532   0.99944  -0.02207
           Z           -0.02618   0.02141   0.99943
 This molecule is an asymmetric top.
 Rotational symmetry number  1.
 Rotational temperatures (Kelvin)      0.40540     0.19269     0.14375
 Rotational constants (GHZ):           8.44728     4.01493     2.99519
 Zero-point vibrational energy     272905.1 (Joules/Mol)
                                   65.22587 (Kcal/Mol)
 Warning -- explicit consideration of   8 degrees of freedom as
           vibrations may cause significant error
 Vibrational temperatures:    245.94   389.79   421.50   447.42   503.85
          (Kelvin)            615.69   794.06   827.76  1237.93  1262.65
                             1342.45  1373.05  1476.34  1675.52  1706.28
                             1776.24  1911.98  1945.16  2005.51  2075.69
                             2374.67  2396.13  2406.64  4308.14  4840.41
                             4984.88  4998.92  5018.43  5122.49  5160.28

 Zero-point correction=                           0.103944 (Hartree/Particle)
 Thermal correction to Energy=                    0.110023
 Thermal correction to Enthalpy=                  0.110967
 Thermal correction to Gibbs Free Energy=         0.075209
 Sum of electronic and zero-point Energies=           -281.638738
 Sum of electronic and thermal Energies=              -281.632659
 Sum of electronic and thermal Enthalpies=            -281.631715
 Sum of electronic and thermal Free Energies=         -281.667472

                     E (Thermal)             CV                S
                      KCal/Mol        Cal/Mol-Kelvin    Cal/Mol-Kelvin
 Total                   69.040             21.646             75.258
 Electronic               0.000              0.000              0.000
 Translational            0.889              2.981             38.941
 Rotational               0.889              2.981             25.562
 Vibrational             67.263             15.684             10.754
 Vibration     1          0.626              1.878              2.425
 Vibration     2          0.675              1.727              1.590
 Vibration     3          0.688              1.687              1.457
 Vibration     4          0.700              1.653              1.357
 Vibration     5          0.727              1.575              1.165
 Vibration     6          0.789              1.409              0.865
 Vibration     7          0.907              1.136              0.540
 Vibration     8          0.932              1.085              0.494

 Optimization completed.
    -- Stationary point found.
 Normal termination of Gaussian 09 at Thu Sep  8 14:46:03 2022.
