 Gaussian 09, Revision E.01,
 Gaussian 09:  ES64L-G09RevE.01 30-Nov-2015

 ----------------------------
 #P OPT Freq B3LYP/6-31G(d,p)
 ----------------------------

 --------
 Frag_819
 --------
 Symbolic Z-matrix:
 Charge =  0 Multiplicity = 1

 SCF Done:  E(RB3LYP) =  -265.004820122     A.U. after   12 cycles
 SCF Done:  E(RB3LYP) =  -265.004930367     A.U. after    9 cycles
 SCF Done:  E(RB3LYP) =  -265.004932467     A.U. after    8 cycles
 SCF Done:  E(RB3LYP) =  -265.004929400     A.U. after    8 cycles
 SCF Done:  E(RB3LYP) =  -265.004936535     A.U. after    8 cycles
 Optimization completed.
    -- Stationary point found.
 Normal termination of Gaussian 09 at Thu Sep  8 14:57:47 2022.

 ----------------------------------------------------------------------
 #P Geom=AllCheck Guess=TCheck SCRF=Check GenChk RB3LYP/6-31G(d,p) Freq
 ----------------------------------------------------------------------

 Structure from the checkpoint file:  "B3LYP6-31Gdp.Frag_819.chk"
 --------
 Frag_819
 --------
 Charge =  0 Multiplicity = 1

                         Standard orientation:
 ---------------------------------------------------------------------
 Center     Atomic      Atomic             Coordinates (Angstroms)
 Number     Number       Type             X           Y           Z
 ---------------------------------------------------------------------
      1          8           0        0.000000    1.310041    0.000002
      2          6           0        0.000000    0.099516   -0.000010
      3          8           0       -1.090871   -0.682527    0.000002
      4          8           0        1.090871   -0.682527    0.000002
      5          1           0       -1.848615   -0.078494    0.000007
      6          1           0        1.848615   -0.078494    0.000007
 ---------------------------------------------------------------------

 SCF Done:  E(RB3LYP) =  -265.004936535     A.U. after    1 cycles

 The electronic state is 1-A.
 Alpha  occ. eigenvalues --  -19.21069 -19.21068 -19.14445 -10.37489  -1.15306
 Alpha  occ. eigenvalues --   -1.06569  -1.02544  -0.67871  -0.54660  -0.49958
 Alpha  occ. eigenvalues --   -0.48537  -0.46024  -0.40738  -0.35513  -0.32178
 Alpha  occ. eigenvalues --   -0.29568
 Alpha virt. eigenvalues --    0.03517   0.05064   0.09144   0.20778   0.32196
 Alpha virt. eigenvalues --    0.35869   0.51865   0.53204   0.56943   0.66074
 Alpha virt. eigenvalues --    0.72769   0.75199   0.83814   0.88705   0.88994

 Mulliken charges:
               1
     1  O   -0.471361
     2  C    0.710223
     3  O   -0.459032
     4  O   -0.459032
     5  H    0.339601
     6  H    0.339601
 Sum of Mulliken charges =  -0.00000

 Dipole moment (field-independent basis, Debye):
    X=              0.0000    Y=             -0.1041    Z=             -0.0000  Tot=              0.1041
 Quadrupole moment (field-independent basis, Debye-Ang):
   XX=            -13.7512   YY=            -28.1287   ZZ=            -21.6279
   XY=             -0.0000   XZ=             -0.0000   YZ=              0.0000

  Exact polarizability:  24.690  -0.000  21.921  -0.000   0.000  10.572
 Approx polarizability:  32.104   0.000  37.857  -0.000   0.000  14.330

                      1                      2                      3
                      A                      A                      A
 Frequencies --    529.9001               544.2920               599.1443
 Red. masses --      1.1768                 4.7926                 4.8350
 Frc consts  --      0.1947                 0.8365                 1.0226
 IR Inten    --      0.0000                 6.7721                52.7256

                      4                      5                      6
                      A                      A                      A
 Frequencies --    606.6429               787.8277               988.5292
 Red. masses --      1.0637                 9.9135                 6.0287
 Frc consts  --      0.2306                 3.6253                 3.4710
 IR Inten    --    217.8775                69.3856                11.9650

                      7                      8                      9
                      A                      A                      A
 Frequencies --   1166.8554              1301.1697              1491.6502
 Red. masses --      1.8184                 1.3585                 3.0658
 Frc consts  --      1.4587                 1.3551                 4.0191
 IR Inten    --    442.3174                37.9019               136.5380

                     10                     11                     12
                      A                      A                      A
 Frequencies --   1866.6058              3809.4262              3812.4251
 Red. masses --      9.1232                 1.0642                 1.0657
 Frc consts  --     18.7286                 9.0986                 9.1263
 IR Inten    --    467.0558               148.0028                15.1895

 - Thermochemistry -
 -------------------
 Temperature   298.150 Kelvin.  Pressure   1.00000 Atm.
 Atom     1 has atomic number  8 and mass  15.99491

 Molecular mass:    62.00039 amu.
 Principal axes and moments of inertia in atomic units:
                           1         2         3
     Eigenvalues --   151.71214 160.54117 312.25332
           X            1.00000  -0.00000  -0.00000
           Y            0.00000   1.00000  -0.00000
           Z            0.00000   0.00000   1.00000
 This molecule is an asymmetric top.
 Rotational symmetry number  1.
 Rotational temperatures (Kelvin)      0.57091     0.53951     0.27738
 Rotational constants (GHZ):          11.89583    11.24161     5.77973
 Zero-point vibrational energy     104700.0 (Joules/Mol)
                                   25.02389 (Kcal/Mol)
 Warning -- explicit consideration of   4 degrees of freedom as
           vibrations may cause significant error
 Vibrational temperatures:    762.41   783.11   862.03   872.82  1133.51
          (Kelvin)           1422.27  1678.84  1872.09  2146.15  2685.63
                             5480.91  5485.22

 Zero-point correction=                           0.039878 (Hartree/Particle)
 Thermal correction to Energy=                    0.043581
 Thermal correction to Enthalpy=                  0.044525
 Thermal correction to Gibbs Free Energy=         0.013985
 Sum of electronic and zero-point Energies=           -264.965058
 Sum of electronic and thermal Energies=              -264.961356
 Sum of electronic and thermal Enthalpies=            -264.960412
 Sum of electronic and thermal Free Energies=         -264.990952

                     E (Thermal)             CV                S
                      KCal/Mol        Cal/Mol-Kelvin    Cal/Mol-Kelvin
 Total                   27.347             11.882             64.277
 Electronic               0.000              0.000              0.000
 Translational            0.889              2.981             38.293
 Rotational               0.889              2.981             23.546
 Vibrational             25.570              5.920              2.438
 Vibration     1          0.885              1.184              0.587
 Vibration     2          0.899              1.152              0.556
 Vibration     3          0.957              1.034              0.451
 Vibration     4          0.965              1.018              0.438

 Optimization completed.
    -- Stationary point found.
 Normal termination of Gaussian 09 at Thu Sep  8 14:57:53 2022.
