 Gaussian 09, Revision E.01,
 Gaussian 09:  ES64L-G09RevE.01 30-Nov-2015

 ----------------------------
 #P OPT Freq B3LYP/6-31G(d,p)
 ----------------------------

 --------
 Frag_500
 --------
 Symbolic Z-matrix:
 Charge =  0 Multiplicity = 1

 SCF Done:  E(RB3LYP) =  -382.939149904     A.U. after   14 cycles
 SCF Done:  E(RB3LYP) =  -382.939212584     A.U. after   12 cycles
 SCF Done:  E(RB3LYP) =  -382.939103335     A.U. after   12 cycles
 SCF Done:  E(RB3LYP) =  -382.939263952     A.U. after    8 cycles
 SCF Done:  E(RB3LYP) =  -382.939258934     A.U. after   11 cycles
 SCF Done:  E(RB3LYP) =  -382.939279894     A.U. after   11 cycles
 SCF Done:  E(RB3LYP) =  -382.939284041     A.U. after    8 cycles
 SCF Done:  E(RB3LYP) =  -382.939284963     A.U. after    8 cycles
 SCF Done:  E(RB3LYP) =  -382.939286000     A.U. after    8 cycles
 SCF Done:  E(RB3LYP) =  -382.939286240     A.U. after    7 cycles
 Optimization completed.
    -- Stationary point found.
 Normal termination of Gaussian 09 at Thu Sep  8 15:16:02 2022.

 ----------------------------------------------------------------------
 #P Geom=AllCheck Guess=TCheck SCRF=Check GenChk RB3LYP/6-31G(d,p) Freq
 ----------------------------------------------------------------------

 Structure from the checkpoint file:  "B3LYP6-31Gdp.Frag_500.chk"
 --------
 Frag_500
 --------
 Charge =  0 Multiplicity = 1

                         Standard orientation:
 ---------------------------------------------------------------------
 Center     Atomic      Atomic             Coordinates (Angstroms)
 Number     Number       Type             X           Y           Z
 ---------------------------------------------------------------------
      1          6           0       -1.058813   -0.204207    1.427308
      2          6           0       -0.555263    0.035894    0.000600
      3          6           0       -1.233424   -0.885670   -1.012181
      4          8           0       -0.818457    1.427165   -0.297196
      5          6           0        0.976720   -0.198361   -0.018422
      6          8           0        1.472867   -1.298830    0.028774
      7          8           0        1.703880    0.931717   -0.053246
      8          1           0       -0.600210    0.509466    2.117687
      9          1           0       -0.802549   -1.215652    1.750060
     10          1           0       -2.143620   -0.073042    1.464677
     11          1           0       -0.962439   -1.922944   -0.808649
     12          1           0       -2.320460   -0.777544   -0.956815
     13          1           0       -0.906351   -0.656274   -2.033765
     14          1           0       -0.958074    1.508475   -1.251002
     15          1           0        1.052074    1.661167   -0.092680
 ---------------------------------------------------------------------

 SCF Done:  E(RB3LYP) =  -382.939286240     A.U. after    1 cycles

 The electronic state is 1-A.
 Alpha  occ. eigenvalues --  -19.18770 -19.18367 -19.13005 -10.31124 -10.27180
 Alpha  occ. eigenvalues --  -10.19942 -10.19306  -1.10027  -1.04878  -1.01353
 Alpha  occ. eigenvalues --   -0.80131  -0.71388  -0.64529  -0.59448  -0.55389
 Alpha  occ. eigenvalues --   -0.49967  -0.46978  -0.43947  -0.43708  -0.42881
 Alpha  occ. eigenvalues --   -0.40260  -0.39792  -0.38178  -0.36011  -0.35252
 Alpha  occ. eigenvalues --   -0.33670  -0.30872  -0.25739
 Alpha virt. eigenvalues --    0.01199   0.04553   0.10141   0.12149   0.12840
 Alpha virt. eigenvalues --    0.13971   0.15783   0.17999   0.18344   0.19330
 Alpha virt. eigenvalues --    0.20360   0.24317   0.24492   0.34216   0.39190

 Mulliken charges:
               1
     1  C   -0.297212
     2  C    0.166766
     3  C   -0.333230
     4  O   -0.569138
     5  C    0.593877
     6  O   -0.463662
     7  O   -0.491076
     8  H    0.120523
     9  H    0.134610
    10  H    0.117357
    11  H    0.151142
    12  H    0.116622
    13  H    0.104038
    14  H    0.317438
    15  H    0.331945
 Sum of Mulliken charges =  -0.00000

 Dipole moment (field-independent basis, Debye):
    X=             -3.4099    Y=              1.6035    Z=             -1.1934  Tot=              3.9526
 Quadrupole moment (field-independent basis, Debye-Ang):
   XX=            -47.5266   YY=            -42.9800   ZZ=            -37.4211
   XY=              3.9875   XZ=              1.2057   YZ=             -2.1023

  Exact polarizability:  50.873   0.078  53.704   0.506  -0.760  46.216
 Approx polarizability:  68.740  -3.361  85.992   0.838  -2.043  61.410

                      1                      2                      3
                      A                      A                      A
 Frequencies --     63.9908               221.0416               242.5777
 Red. masses --      5.5661                 1.5716                 1.5570
 Frc consts  --      0.0134                 0.0452                 0.0540
 IR Inten    --      4.4676                 3.7350                 2.4502

                      4                      5                      6
                      A                      A                      A
 Frequencies --    257.8941               293.3493               339.9384
 Red. masses --      1.2693                 2.2370                 2.6182
 Frc consts  --      0.0497                 0.1134                 0.1783
 IR Inten    --      4.5022                 8.6067                 3.1435

                      7                      8                      9
                      A                      A                      A
 Frequencies --    349.6339               387.5317               424.7047
 Red. masses --      1.3252                 2.8556                 2.9991
 Frc consts  --      0.0954                 0.2527                 0.3187
 IR Inten    --     99.8993                 3.2521                11.6280

                     10                     11                     12
                      A                      A                      A
 Frequencies --    538.2492               584.7095               749.5292
 Red. masses --      5.4616                 3.5612                 5.8161
 Frc consts  --      0.9323                 0.7173                 1.9251
 IR Inten    --      0.4848                 4.3497                18.4082

                     13                     14                     15
                      A                      A                      A
 Frequencies --    755.3118               805.5984               875.2594
 Red. masses --      6.1249                 1.1036                 2.6932
 Frc consts  --      2.0587                 0.4220                 1.2156
 IR Inten    --     10.3893                65.5173                 4.6871

                     16                     17                     18
                      A                      A                      A
 Frequencies --    952.5873               981.9622              1025.2383
 Red. masses --      1.4975                 2.1706                 1.3091
 Frc consts  --      0.8006                 1.2331                 0.8107
 IR Inten    --      2.7640                35.1430                 7.1125

                     19                     20                     21
                      A                      A                      A
 Frequencies --   1117.2902              1177.9510              1226.1144
 Red. masses --      1.6597                 2.8704                 2.7364
 Frc consts  --      1.2207                 2.3467                 2.4238
 IR Inten    --     48.2086                27.8848                71.3341

                     22                     23                     24
                      A                      A                      A
 Frequencies --   1262.0904              1350.4821              1407.1280
 Red. masses --      2.1958                 1.6900                 1.7008
 Frc consts  --      2.0607                 1.8160                 1.9842
 IR Inten    --     18.7257                36.6333               363.5617

                     25                     26                     27
                      A                      A                      A
 Frequencies --   1410.9947              1428.1870              1493.8225
 Red. masses --      1.3365                 1.2590                 1.0477
 Frc consts  --      1.5677                 1.5130                 1.3774
 IR Inten    --     16.5532                55.2382                 0.3483

                     28                     29                     30
                      A                      A                      A
 Frequencies --   1498.8765              1512.6129              1521.2617
 Red. masses --      1.0500                 1.0600                 1.0609
 Frc consts  --      1.3898                 1.4290                 1.4465
 IR Inten    --      2.7689                 9.7422                11.2133

                     31                     32                     33
                      A                      A                      A
 Frequencies --   1870.8335              3042.2340              3060.0720
 Red. masses --      9.9204                 1.0413                 1.0348
 Frc consts  --     20.4574                 5.6783                 5.7094
 IR Inten    --    221.9613                19.2202                 9.0989

                     34                     35                     36
                      A                      A                      A
 Frequencies --   3115.5450              3135.6837              3152.9467
 Red. masses --      1.0982                 1.1036                 1.1034
 Frc consts  --      6.2803                 6.3931                 6.4626
 IR Inten    --     20.9678                17.9306                 4.7570

                     37                     38                     39
                      A                      A                      A
 Frequencies --   3160.5260              3612.3820              3805.1355
 Red. masses --      1.1010                 1.0641                 1.0664
 Frc consts  --      6.4798                 8.1810                 9.0974
 IR Inten    --      8.8757               138.6989                24.4506

 - Thermochemistry -
 -------------------
 Temperature   298.150 Kelvin.  Pressure   1.00000 Atm.
 Atom     1 has atomic number  6 and mass  12.00000

 Molecular mass:   104.04734 amu.
 Principal axes and moments of inertia in atomic units:
                           1         2         3
     Eigenvalues --   536.58069 745.79710 887.30787
           X            0.99571   0.09251   0.00177
           Y           -0.09253   0.99565   0.01094
           Z           -0.00075  -0.01105   0.99994
 This molecule is an asymmetric top.
 Rotational symmetry number  1.
 Warning -- assumption of classical behavior for rotation
           may cause significant error
 Rotational temperatures (Kelvin)      0.16142     0.11614     0.09761
 Rotational constants (GHZ):           3.36341     2.41988     2.03395
 Zero-point vibrational energy     324255.4 (Joules/Mol)
                                   77.49891 (Kcal/Mol)
 Warning -- explicit consideration of  11 degrees of freedom as
           vibrations may cause significant error
 Vibrational temperatures:     92.07   318.03   349.01   371.05   422.06
          (Kelvin)            489.09   503.04   557.57   611.05   774.42
                              841.27  1078.40  1086.72  1159.07  1259.30
                             1370.56  1412.82  1475.09  1607.53  1694.81
                             1764.10  1815.86  1943.04  2024.54  2030.10
                             2054.84  2149.27  2156.55  2176.31  2188.75
                             2691.71  4377.09  4402.76  4482.57  4511.54
                             4536.38  4547.29  5197.41  5474.73

 Zero-point correction=                           0.123502 (Hartree/Particle)
 Thermal correction to Energy=                    0.131338
 Thermal correction to Enthalpy=                  0.132282
 Thermal correction to Gibbs Free Energy=         0.091822
 Sum of electronic and zero-point Energies=           -382.815784
 Sum of electronic and thermal Energies=              -382.807948
 Sum of electronic and thermal Enthalpies=            -382.807004
 Sum of electronic and thermal Free Energies=         -382.847464

                     E (Thermal)             CV                S
                      KCal/Mol        Cal/Mol-Kelvin    Cal/Mol-Kelvin
 Total                   82.416             28.669             85.156
 Electronic               0.000              0.000              0.000
 Translational            0.889              2.981             39.836
 Rotational               0.889              2.981             27.365
 Vibrational             80.638             22.708             17.955
 Vibration     1          0.597              1.971              4.330
 Vibration     2          0.648              1.809              1.951
 Vibration     3          0.659              1.775              1.784
 Vibration     4          0.667              1.749              1.676
 Vibration     5          0.688              1.686              1.455
 Vibration     6          0.720              1.596              1.212
 Vibration     7          0.727              1.576              1.168
 Vibration     8          0.756              1.497              1.010
 Vibration     9          0.787              1.417              0.876
 Vibration    10          0.893              1.165              0.569
 Vibration    11          0.942              1.064              0.477

 Optimization completed.
    -- Stationary point found.
 Normal termination of Gaussian 09 at Thu Sep  8 15:16:16 2022.
