 Gaussian 09, Revision E.01,
 Gaussian 09:  ES64L-G09RevE.01 30-Nov-2015

 ----------------------------
 #P OPT Freq B3LYP/6-31G(d,p)
 ----------------------------

 --------
 Frag_871
 --------
 Symbolic Z-matrix:
 Charge =  0 Multiplicity = 1

 SCF Done:  E(RB3LYP) =  -301.138119301     A.U. after   13 cycles
 SCF Done:  E(RB3LYP) =  -301.138161293     A.U. after    8 cycles
 SCF Done:  E(RB3LYP) =  -301.138168023     A.U. after    8 cycles
 SCF Done:  E(RB3LYP) =  -301.138154885     A.U. after    9 cycles
 SCF Done:  E(RB3LYP) =  -301.138169238     A.U. after    9 cycles
 Optimization completed.
    -- Stationary point found.
 Normal termination of Gaussian 09 at Thu Sep  8 15:24:23 2022.

 ----------------------------------------------------------------------
 #P Geom=AllCheck Guess=TCheck SCRF=Check GenChk RB3LYP/6-31G(d,p) Freq
 ----------------------------------------------------------------------

 Structure from the checkpoint file:  "B3LYP6-31Gdp.Frag_871.chk"
 --------
 Frag_871
 --------
 Charge =  0 Multiplicity = 1

                         Standard orientation:
 ---------------------------------------------------------------------
 Center     Atomic      Atomic             Coordinates (Angstroms)
 Number     Number       Type             X           Y           Z
 ---------------------------------------------------------------------
      1          6           0        1.473844    1.104584    0.036467
      2          7           0        0.646136   -0.038815   -0.367437
      3          7           0        1.249238   -1.261310    0.058848
      4          7           0       -0.646131    0.039016    0.367421
      5          6           0       -1.473614   -1.104651   -0.036179
      6          7           0       -1.249492    1.261273   -0.059158
      7          1           0        0.986696    2.034505   -0.250056
      8          1           0        2.430671    1.017253   -0.485607
      9          1           0        1.651425    1.115612    1.125948
     10          1           0        1.747810   -1.123705    0.944992
     11          1           0        1.927235   -1.514502   -0.653299
     12          1           0       -2.430428   -1.017433    0.485937
     13          1           0       -1.651256   -1.115966   -1.125647
     14          1           0       -0.986222   -2.034393    0.250523
     15          1           0       -1.748110    1.123329   -0.945219
     16          1           0       -1.927460    1.514553    0.652980
 ---------------------------------------------------------------------

 SCF Done:  E(RB3LYP) =  -301.138169238     A.U. after    1 cycles

 The electronic state is 1-A.
 Alpha  occ. eigenvalues --  -14.36675 -14.36665 -14.33672 -14.33671 -10.18877
 Alpha  occ. eigenvalues --  -10.18875  -1.00803  -0.92266  -0.78277  -0.75446
 Alpha  occ. eigenvalues --   -0.65868  -0.59641  -0.50419  -0.49783  -0.48284
 Alpha  occ. eigenvalues --   -0.46016  -0.42322  -0.40391  -0.39253  -0.38746
 Alpha  occ. eigenvalues --   -0.35691  -0.29087  -0.25960  -0.23684  -0.19083
 Alpha virt. eigenvalues --    0.08635   0.08814   0.13020   0.14107   0.15482
 Alpha virt. eigenvalues --    0.16099   0.17182   0.17370   0.18556   0.19018
 Alpha virt. eigenvalues --    0.20024   0.21737   0.22031   0.25104   0.27730

 Mulliken charges:
               1
     1  C   -0.143146
     2  N   -0.215959
     3  N   -0.441229
     4  N   -0.216002
     5  C   -0.143143
     6  N   -0.441202
     7  H    0.142090
     8  H    0.094563
     9  H    0.079852
    10  H    0.226443
    11  H    0.257394
    12  H    0.094555
    13  H    0.079846
    14  H    0.142105
    15  H    0.226443
    16  H    0.257388
 Sum of Mulliken charges =   0.00000

 Dipole moment (field-independent basis, Debye):
    X=              0.0004    Y=             -0.0006    Z=              0.0003  Tot=              0.0008
 Quadrupole moment (field-independent basis, Debye-Ang):
   XX=            -29.1145   YY=            -39.3992   ZZ=            -38.7768
   XY=             -2.5602   XZ=              0.2583   YZ=              0.4909

  Exact polarizability:  63.046  -2.838  55.261   1.767  -0.102  44.692
 Approx polarizability:  78.308  -6.677  74.292   2.061  -0.541  66.904

                      1                      2                      3
                      A                      A                      A
 Frequencies --     71.7535               236.2329               258.3220
 Red. masses --      2.7218                 1.2097                 1.0897
 Frc consts  --      0.0083                 0.0398                 0.0428
 IR Inten    --      4.2674                10.8476                 0.0000

                      4                      5                      6
                      A                      A                      A
 Frequencies --    289.2870               310.7083               344.1881
 Red. masses --      1.2180                 1.0885                 2.2771
 Frc consts  --      0.0601                 0.0619                 0.1589
 IR Inten    --     61.4230                 0.0000                19.0487

                      7                      8                      9
                      A                      A                      A
 Frequencies --    423.1786               438.7705               483.7672
 Red. masses --      2.1221                 2.6353                 2.3892
 Frc consts  --      0.2239                 0.2989                 0.3294
 IR Inten    --      7.7289                 0.0000                12.9464

                     10                     11                     12
                      A                      A                      A
 Frequencies --    516.4877               553.4792               758.0708
 Red. masses --      3.3827                 3.0185                 3.6801
 Frc consts  --      0.5317                 0.5448                 1.2460
 IR Inten    --      0.0000                 0.0000                 0.0000

                     13                     14                     15
                      A                      A                      A
 Frequencies --    857.6959               858.3601               993.0313
 Red. masses --      3.0118                 2.5136                 1.6998
 Frc consts  --      1.3054                 1.0912                 0.9876
 IR Inten    --    156.1941                 0.0012                60.6175

                     16                     17                     18
                      A                      A                      A
 Frequencies --   1049.6679              1110.8473              1123.8106
 Red. masses --      1.3721                 2.9717                 2.0128
 Frc consts  --      0.8907                 2.1606                 1.4977
 IR Inten    --      0.0000                22.9817                 0.0000

                     19                     20                     21
                      A                      A                      A
 Frequencies --   1146.5432              1200.7213              1217.4437
 Red. masses --      1.3288                 2.4417                 1.8991
 Frc consts  --      1.0292                 2.0741                 1.6585
 IR Inten    --      3.0409                 0.0000                41.1319

                     22                     23                     24
                      A                      A                      A
 Frequencies --   1248.2376              1320.4673              1346.2423
 Red. masses --      2.3605                 1.2181                 1.3009
 Frc consts  --      2.1669                 1.2514                 1.3891
 IR Inten    --      0.0000                 8.9482                 0.0000

                     25                     26                     27
                      A                      A                      A
 Frequencies --   1435.5155              1436.1177              1483.5027
 Red. masses --      1.1800                 1.1819                 1.0533
 Frc consts  --      1.4326                 1.4362                 1.3658
 IR Inten    --      4.1075                 0.0002                 0.0000

                     28                     29                     30
                      A                      A                      A
 Frequencies --   1484.1484              1522.5364              1525.3744
 Red. masses --      1.0504                 1.0484                 1.0516
 Frc consts  --      1.3632                 1.4319                 1.4417
 IR Inten    --     14.5869                18.3296                 0.0000

                     31                     32                     33
                      A                      A                      A
 Frequencies --   1652.6201              1659.1532              2969.0502
 Red. masses --      1.0815                 1.0845                 1.0555
 Frc consts  --      1.7404                 1.7589                 5.4821
 IR Inten    --     25.7828                 0.0000               140.5664

                     34                     35                     36
                      A                      A                      A
 Frequencies --   2971.1600              3102.7040              3102.7699
 Red. masses --      1.0567                 1.0829                 1.0830
 Frc consts  --      5.4962                 6.1420                 6.1430
 IR Inten    --      0.0004                68.3880                 0.1601

                     37                     38                     39
                      A                      A                      A
 Frequencies --   3182.2131              3182.3153              3370.7927
 Red. masses --      1.0974                 1.0977                 1.0571
 Frc consts  --      6.5472                 6.5495                 7.0769
 IR Inten    --      0.1583                14.7743                43.9658

                     40                     41                     42
                      A                      A                      A
 Frequencies --   3371.8733              3572.5764              3572.6583
 Red. masses --      1.0570                 1.0841                 1.0840
 Frc consts  --      7.0807                 8.1525                 8.1521
 IR Inten    --      0.0134                 0.3109                 4.0509

 - Thermochemistry -
 -------------------
 Temperature   298.150 Kelvin.  Pressure   1.00000 Atm.
 Atom     1 has atomic number  6 and mass  12.00000

 Molecular mass:    90.09055 amu.
 Principal axes and moments of inertia in atomic units:
                           1         2         3
     Eigenvalues --   369.66959 537.24610 837.60382
           X            0.99806   0.06102   0.01262
           Y           -0.06108   0.99812   0.00467
           Z           -0.01231  -0.00544   0.99991
 This molecule is an asymmetric top.
 Rotational symmetry number  1.
 Rotational temperatures (Kelvin)      0.23430     0.16122     0.10341
 Rotational constants (GHZ):           4.88204     3.35924     2.15465
 Zero-point vibrational energy     375354.6 (Joules/Mol)
                                   89.71191 (Kcal/Mol)
 Warning -- explicit consideration of  11 degrees of freedom as
           vibrations may cause significant error
 Vibrational temperatures:    103.24   339.89   371.67   416.22   447.04
          (Kelvin)            495.21   608.86   631.29   696.03   743.11
                              796.33  1090.69  1234.03  1234.99  1428.75
                             1510.24  1598.26  1616.91  1649.62  1727.57
                             1751.63  1795.93  1899.86  1936.94  2065.38
                             2066.25  2134.43  2135.36  2190.59  2194.67
                             2377.75  2387.15  4271.80  4274.83  4464.09
                             4464.19  4578.49  4578.64  4849.81  4851.37
                             5140.13  5140.25

 Zero-point correction=                           0.142965 (Hartree/Particle)
 Thermal correction to Energy=                    0.150431
 Thermal correction to Enthalpy=                  0.151375
 Thermal correction to Gibbs Free Energy=         0.112229
 Sum of electronic and zero-point Energies=           -300.995204
 Sum of electronic and thermal Energies=              -300.987739
 Sum of electronic and thermal Enthalpies=            -300.986794
 Sum of electronic and thermal Free Energies=         -301.025940

                     E (Thermal)             CV                S
                      KCal/Mol        Cal/Mol-Kelvin    Cal/Mol-Kelvin
 Total                   94.397             27.570             82.389
 Electronic               0.000              0.000              0.000
 Translational            0.889              2.981             39.407
 Rotational               0.889              2.981             26.611
 Vibrational             92.619             21.608             16.370
 Vibration     1          0.598              1.967              4.105
 Vibration     2          0.655              1.785              1.831
 Vibration     3          0.667              1.749              1.673
 Vibration     4          0.686              1.694              1.478
 Vibration     5          0.700              1.653              1.359
 Vibration     6          0.723              1.587              1.193
 Vibration     7          0.785              1.420              0.881
 Vibration     8          0.799              1.386              0.830
 Vibration     9          0.840              1.286              0.700
 Vibration    10          0.872              1.213              0.618
 Vibration    11          0.909              1.132              0.537

 Optimization completed.
    -- Stationary point found.
 Normal termination of Gaussian 09 at Thu Sep  8 15:24:36 2022.
