 Gaussian 09, Revision E.01,
 Gaussian 09:  ES64L-G09RevE.01 30-Nov-2015

 ----------------------------
 #P OPT Freq B3LYP/6-31G(d,p)
 ----------------------------

 ---------
 Frag_1151
 ---------
 Symbolic Z-matrix:
 Charge =  0 Multiplicity = 1

 SCF Done:  E(RB3LYP) =  -284.331077899     A.U. after   14 cycles
 SCF Done:  E(RB3LYP) =  -284.331155771     A.U. after   11 cycles
 SCF Done:  E(RB3LYP) =  -284.331172440     A.U. after   11 cycles
 SCF Done:  E(RB3LYP) =  -284.331158204     A.U. after   11 cycles
 SCF Done:  E(RB3LYP) =  -284.331182156     A.U. after   10 cycles
 Optimization completed.
    -- Stationary point found.
 Normal termination of Gaussian 09 at Thu Sep  8 14:50:50 2022.

 ----------------------------------------------------------------------
 #P Geom=AllCheck Guess=TCheck SCRF=Check GenChk RB3LYP/6-31G(d,p) Freq
 ----------------------------------------------------------------------

 Structure from the checkpoint file:  "B3LYP6-31Gdp.Frag_1151.chk"
 ---------
 Frag_1151
 ---------
 Charge =  0 Multiplicity = 1

                         Standard orientation:
 ---------------------------------------------------------------------
 Center     Atomic      Atomic             Coordinates (Angstroms)
 Number     Number       Type             X           Y           Z
 ---------------------------------------------------------------------
      1          6           0       -1.785100   -0.474343    0.004597
      2          6           0       -0.416500    0.148821   -0.007198
      3          7           0       -0.055940    1.369866   -0.001388
      4          8           0        0.535533   -0.814397   -0.009164
      5          8           0        1.863276   -0.243361    0.007414
      6          1           0       -2.550223    0.287628   -0.152608
      7          1           0       -1.963602   -0.968012    0.964574
      8          1           0       -1.862895   -1.231843   -0.779642
      9          1           0       -0.838534    2.016659   -0.000219
     10          1           0        1.625961    0.721703    0.007210
 ---------------------------------------------------------------------

 SCF Done:  E(RB3LYP) =  -284.331182156     A.U. after    1 cycles

 The electronic state is 1-A.
 Alpha  occ. eigenvalues --  -19.23604 -19.19643 -14.32902 -10.30206 -10.21677
 Alpha  occ. eigenvalues --   -1.14612  -0.94469  -0.89095  -0.75290  -0.61473
 Alpha  occ. eigenvalues --   -0.52980  -0.50155  -0.47566  -0.43685  -0.41591
 Alpha  occ. eigenvalues --   -0.40661  -0.38173  -0.31783  -0.30022  -0.25533
 Alpha virt. eigenvalues --    0.00953   0.01733   0.07735   0.11795   0.15369
 Alpha virt. eigenvalues --    0.16253   0.17299   0.22071   0.26271   0.39028
 Alpha virt. eigenvalues --    0.51426   0.53558   0.55289   0.58524   0.61166

 Mulliken charges:
               1
     1  C   -0.376383
     2  C    0.552693
     3  N   -0.632084
     4  O   -0.265488
     5  O   -0.318807
     6  H    0.127955
     7  H    0.156900
     8  H    0.154842
     9  H    0.242998
    10  H    0.357373
 Sum of Mulliken charges =   0.00000

 Dipole moment (field-independent basis, Debye):
    X=             -3.5357    Y=              0.9297    Z=              0.0317  Tot=              3.6560
 Quadrupole moment (field-independent basis, Debye-Ang):
   XX=            -27.8379   YY=            -29.0155   ZZ=            -29.7712
   XY=              1.1968   XZ=             -0.0366   YZ=             -0.0015

  Exact polarizability:  45.556   0.703  41.064   0.004  -0.043  21.374
 Approx polarizability:  61.862   1.260  68.932   0.071  -0.020  29.474

                      1                      2                      3
                      A                      A                      A
 Frequencies --     25.1206               196.5019               328.2752
 Red. masses --      1.0907                 5.5095                 3.7150
 Frc consts  --      0.0004                 0.1253                 0.2359
 IR Inten    --      0.9974                 2.0115                13.8962

                      4                      5                      6
                      A                      A                      A
 Frequencies --    438.8217               470.3548               589.1774
 Red. masses --      3.3586                 1.3001                 2.1072
 Frc consts  --      0.3810                 0.1695                 0.4310
 IR Inten    --      9.1770                67.2615                71.0699

                      7                      8                      9
                      A                      A                      A
 Frequencies --    636.9387               796.4078               906.8744
 Red. masses --      3.8636                 1.1344                 4.4162
 Frc consts  --      0.9235                 0.4239                 2.1399
 IR Inten    --      9.6702                30.1581                26.7168

                     10                     11                     12
                      A                      A                      A
 Frequencies --    976.4424              1030.2667              1067.0491
 Red. masses --      5.9631                 2.1150                 1.5843
 Frc consts  --      3.3498                 1.3227                 1.0628
 IR Inten    --      4.0301                 5.1841                11.7300

                     13                     14                     15
                      A                      A                      A
 Frequencies --   1078.4029              1367.0054              1419.7233
 Red. masses --      1.4423                 2.4213                 1.3875
 Frc consts  --      0.9883                 2.6659                 1.6477
 IR Inten    --    128.4333                53.5535                21.6447

                     16                     17                     18
                      A                      A                      A
 Frequencies --   1482.9484              1496.2237              1556.1027
 Red. masses --      1.0493                 1.0720                 1.1536
 Frc consts  --      1.3596                 1.4140                 1.6458
 IR Inten    --      7.9469                18.7182               178.8500

                     19                     20                     21
                      A                      A                      A
 Frequencies --   1743.6912              3065.3915              3136.5011
 Red. masses --      7.8626                 1.0356                 1.1013
 Frc consts  --     14.0849                 5.7333                 6.3831
 IR Inten    --    158.8020                 3.0601                 3.8954

                     22                     23                     24
                      A                      A                      A
 Frequencies --   3160.3694              3356.1342              3576.3853
 Red. masses --      1.1044                 1.0665                 1.0773
 Frc consts  --      6.4988                 7.0774                 8.1181
 IR Inten    --      6.9233               106.8368                10.0150

 - Thermochemistry -
 -------------------
 Temperature   298.150 Kelvin.  Pressure   1.00000 Atm.
 Atom     1 has atomic number  6 and mass  12.00000

 Molecular mass:    75.03203 amu.
 Principal axes and moments of inertia in atomic units:
                           1         2         3
     Eigenvalues --   176.51874 425.24305 590.49943
           X            0.99916   0.04106  -0.00038
           Y           -0.04106   0.99916  -0.00028
           Z            0.00037   0.00030   1.00000
 This molecule is an asymmetric top.
 Rotational symmetry number  1.
 Rotational temperatures (Kelvin)      0.49068     0.20368     0.14668
 Rotational constants (GHZ):          10.22408     4.24402     3.05630
 Zero-point vibrational energy     202773.7 (Joules/Mol)
                                   48.46407 (Kcal/Mol)
 Warning -- explicit consideration of   6 degrees of freedom as
           vibrations may cause significant error
 Vibrational temperatures:     36.14   282.72   472.31   631.37   676.73
          (Kelvin)            847.69   916.41  1145.85  1304.79  1404.88
                             1482.32  1535.24  1551.58  1966.81  2042.66
                             2133.63  2152.73  2238.88  2508.78  4410.41
                             4512.72  4547.06  4828.72  5145.61

 Zero-point correction=                           0.077232 (Hartree/Particle)
 Thermal correction to Energy=                    0.083024
 Thermal correction to Enthalpy=                  0.083969
 Thermal correction to Gibbs Free Energy=         0.047409
 Sum of electronic and zero-point Energies=           -284.253950
 Sum of electronic and thermal Energies=              -284.248158
 Sum of electronic and thermal Enthalpies=            -284.247213
 Sum of electronic and thermal Free Energies=         -284.283774

                     E (Thermal)             CV                S
                      KCal/Mol        Cal/Mol-Kelvin    Cal/Mol-Kelvin
 Total                   52.099             19.092             76.947
 Electronic               0.000              0.000              0.000
 Translational            0.889              2.981             38.862
 Rotational               0.889              2.981             25.297
 Vibrational             50.321             13.130             12.788
 Vibration     1          0.593              1.985              6.182
 Vibration     2          0.636              1.845              2.166
 Vibration     3          0.711              1.619              1.269
 Vibration     4          0.799              1.386              0.830
 Vibration     5          0.827              1.316              0.737
 Vibration     6          0.946              1.055              0.469

 Normal termination of Gaussian 09 at Thu Sep  8 14:50:57 2022.
