 Gaussian 09, Revision D.01,
 Gaussian 09:  ES64L-G09RevD.01 24-Apr-2013

 -------------------------
 #P OPT Freq B3LYP/6-31G**
 -------------------------

 -------
 Frag_48
 -------
 Symbolic Z-matrix:
 Charge =  0 Multiplicity = 1

 SCF Done:  E(RB3LYP) =  -151.216780516     A.U. after   12 cycles
 Optimization completed.
    -- Stationary point found.

 1\1\GINC-FN10\FOpt\RB3LYP\6-31G(d,p)\C1H6N2\LIUJ201281\23-Jul-2021\0\\
 #P OPT Freq B3LYP/6-31G**\\Frag_48\\0,1\N,-1.2705,-0.1566,-0.0418\C,-0
 .0015,0.542,0.0596\N,1.1682,-0.3348,-0.1054\H,-1.3887,-0.7787,0.7554\H
 ,-1.2402,-0.7563,-0.8647\H,-0.0142,1.0971,1.0116\H,0.0453,1.2879,-0.74
 25\H,2.0112,0.2244,-0.2263\H,1.3124,-0.8863,0.7392\\Version=ES64L-G09R
 evD.01\State=1-A\HF=-151.2167805\RMSD=2.497e-09\RMSF=3.993e-05\Dipole=
 0.5137344,-0.1161264,0.4529643\Quadrupole=-0.9735141,0.2822874,0.69122
 67,2.3327243,0.8118246,-1.1891023\PG=C01 [X(C1H6N2)]\\@

 Normal termination of Gaussian 09 at Fri Jul 23 20:09:33 2021.

 ----------------------------------------------------------------------
 #P Geom=AllCheck Guess=TCheck SCRF=Check GenChk RB3LYP/6-31G(d,p) Freq
 ----------------------------------------------------------------------

 Structure from the checkpoint file:  "/vol2/users/liuj201281/HOFBenchmark/IsodesmicSplit/Sample60/Ring26/Running/Gau-357562.chk"
 -------
 Frag_48
 -------
 Charge =  0 Multiplicity = 1

                         Standard orientation:
 ---------------------------------------------------------------------
 Center     Atomic      Atomic             Coordinates (Angstroms)
 Number     Number       Type             X           Y           Z
 ---------------------------------------------------------------------
      1          7           0       -1.270529   -0.156595   -0.041796
      2          6           0       -0.001520    0.541988    0.059604
      3          7           0        1.168169   -0.334827   -0.105396
      4          1           0       -1.388737   -0.778694    0.755404
      5          1           0       -1.240237   -0.756296   -0.864696
      6          1           0       -0.014213    1.097089    1.011604
      7          1           0        0.045290    1.287888   -0.742496
      8          1           0        2.011176    0.224362   -0.226296
      9          1           0        1.312362   -0.886329    0.739204
 ---------------------------------------------------------------------

 SCF Done:  E(RB3LYP) =  -151.216780516     A.U. after    1 cycles

 The electronic state is 1-A.
 Alpha  occ. eigenvalues --  -14.31014 -14.30696 -10.22824  -0.90377  -0.82950
 Alpha  occ. eigenvalues --   -0.63001  -0.50202  -0.47081  -0.44182  -0.40349
 Alpha  occ. eigenvalues --   -0.35979  -0.24579  -0.23275
 Alpha virt. eigenvalues --    0.07736   0.11296   0.13560   0.15469   0.17486
 Alpha virt. eigenvalues --    0.19621   0.25366   0.25876   0.55207   0.57069
 Alpha virt. eigenvalues --    0.59717   0.67299   0.72032   0.73722   0.75001

 Mulliken charges:
               1
     1  N   -0.577516
     2  C    0.049690
     3  N   -0.597636
     4  H    0.230190
     5  H    0.241050
     6  H    0.086620
     7  H    0.109543
     8  H    0.231799
     9  H    0.226261
 Sum of Mulliken charges =   0.00000

 Dipole moment (field-independent basis, Debye):
    X=              1.3058    Y=             -0.2952    Z=              1.1513  Tot=              1.7657
 Quadrupole moment (field-independent basis, Debye-Ang):
   XX=            -20.7780   YY=            -19.0890   ZZ=            -18.5389
   XY=              3.1376   XZ=              1.0919   YZ=             -1.5994

  Exact polarizability:  29.936   1.684  25.438  -0.289  -1.403  24.806
 Approx polarizability:  37.114   1.975  33.009  -0.814  -2.178  33.586

                      1                      2                      3
                      A                      A                      A
 Frequencies --    255.4700               342.3073               465.4560
 Red. masses --      1.0996                 1.1141                 2.3172
 Frc consts  --      0.0423                 0.0769                 0.2958
 IR Inten    --     46.9706                44.1459                47.0580

                      4                      5                      6
                      A                      A                      A
 Frequencies --    854.9092               881.6506               918.1151
 Red. masses --      1.2164                 1.9191                 1.2355
 Frc consts  --      0.5238                 0.8789                 0.6136
 IR Inten    --    124.4561               150.3270                31.8330

                      7                      8                      9
                      A                      A                      A
 Frequencies --   1000.6242              1087.2925              1189.2429
 Red. masses --      1.8992                 2.0325                 1.6123
 Frc consts  --      1.1203                 1.4157                 1.3435
 IR Inten    --     71.8699                32.9411                13.8278

                     10                     11                     12
                      A                      A                      A
 Frequencies --   1322.2669              1398.7001              1439.1428
 Red. masses --      1.3489                 1.1638                 1.2779
 Frc consts  --      1.3896                 1.3415                 1.5594
 IR Inten    --      9.9594                 1.7322                31.4017

                     13                     14                     15
                      A                      A                      A
 Frequencies --   1522.3883              1659.5224              1680.3293
 Red. masses --      1.0913                 1.0957                 1.0909
 Frc consts  --      1.4901                 1.7779                 1.8147
 IR Inten    --      0.6712                24.5528                20.0011

                     16                     17                     18
                      A                      A                      A
 Frequencies --   2984.6231              3067.8041              3467.2110
 Red. masses --      1.0708                 1.0939                 1.0495
 Frc consts  --      5.6198                 6.0656                 7.4337
 IR Inten    --     91.5870                43.0687                 4.1655

                     19                     20                     21
                      A                      A                      A
 Frequencies --   3481.0940              3556.4196              3563.8206
 Red. masses --      1.0490                 1.0924                 1.0922
 Frc consts  --      7.4895                 8.1408                 8.1727
 IR Inten    --      1.4278                 1.5440                 0.3740

 - Thermochemistry -
 -------------------
 Temperature   298.150 Kelvin.  Pressure   1.00000 Atm.
 Atom     1 has atomic number  7 and mass  14.00307

 Molecular mass:    46.05310 amu.
 Principal axes and moments of inertia in atomic units:
                           1         2         3
     Eigenvalues --    50.11338 195.52698 219.26572
           X            0.99939   0.03378   0.00850
           Y           -0.03310   0.99698  -0.07023
           Z           -0.01085   0.06990   0.99749
 This molecule is an asymmetric top.
 Rotational symmetry number  1.
 Rotational temperatures (Kelvin)      1.72836     0.44298     0.39502
 Rotational constants (GHZ):          36.01316     9.23014     8.23084
 Zero-point vibrational energy     216155.6 (Joules/Mol)
                                   51.66242 (Kcal/Mol)
 Warning -- explicit consideration of   3 degrees of freedom as
           vibrations may cause significant error
 Vibrational temperatures:    367.56   492.50   669.69  1230.02  1268.50
          (Kelvin)           1320.96  1439.67  1564.37  1711.05  1902.44
                             2012.41  2070.60  2190.37  2387.68  2417.62
                             4294.20  4413.88  4988.54  5008.51  5116.89
                             5127.54

 Zero-point correction=                           0.082329 (Hartree/Particle)
 Thermal correction to Energy=                    0.086548
 Thermal correction to Enthalpy=                  0.087492
 Thermal correction to Gibbs Free Energy=         0.057050
 Sum of electronic and zero-point Energies=           -151.134451
 Sum of electronic and thermal Energies=              -151.130233
 Sum of electronic and thermal Enthalpies=            -151.129289
 Sum of electronic and thermal Free Energies=         -151.159731

                     E (Thermal)             CV                S
                      KCal/Mol        Cal/Mol-Kelvin    Cal/Mol-Kelvin
 Total                   54.309             13.566             64.071
 Electronic               0.000              0.000              0.000
 Translational            0.889              2.981             37.407
 Rotational               0.889              2.981             22.290
 Vibrational             52.532              7.604              4.374
 Vibration     1          0.666              1.754              1.693
 Vibration     2          0.721              1.591              1.201
 Vibration     3          0.823              1.327              0.750

 Optimization completed.
    -- Stationary point found.

 1\1\GINC-FN10\Freq\RB3LYP\6-31G(d,p)\C1H6N2\LIUJ201281\23-Jul-2021\0\\
 #P Geom=AllCheck Guess=TCheck SCRF=Check GenChk RB3LYP/6-31G(d,p) Freq
 \\Frag_48\\0,1\N,-1.2705,-0.1566,-0.0418\C,-0.0015,0.542,0.0596\N,1.16
 82,-0.3348,-0.1054\H,-1.3887,-0.7787,0.7554\H,-1.2402,-0.7563,-0.8647\
 H,-0.0142,1.0971,1.0116\H,0.0453,1.2879,-0.7425\H,2.0112,0.2244,-0.226
 3\H,1.3124,-0.8863,0.7392\\Version=ES64L-G09RevD.01\State=1-A\HF=-151.
 2167805\RMSD=7.129e-10\RMSF=3.993e-05\ZeroPoint=0.0823293\Thermal=0.08
 65476\Dipole=0.5137344,-0.1161263,0.4529642\DipoleDeriv=-0.922846,-0.0

 Normal termination of Gaussian 09 at Fri Jul 23 20:09:46 2021.
