 Gaussian 09, Revision E.01,
 Gaussian 09:  ES64L-G09RevE.01 30-Nov-2015

 --------------------------------
 #P OPT=calcfc Freq B3LYP/6-31G**
 --------------------------------

 --------
 Frag_351
 --------
 Symbolic Z-matrix:
 Charge =  0 Multiplicity = 1

 SCF Done:  E(RB3LYP) =  -248.411849033     A.U. after   14 cycles
 SCF Done:  E(RB3LYP) =  -248.422770926     A.U. after   13 cycles
 SCF Done:  E(RB3LYP) =  -248.424657414     A.U. after   12 cycles
 SCF Done:  E(RB3LYP) =  -248.426561579     A.U. after   13 cycles
 SCF Done:  E(RB3LYP) =  -248.395697127     A.U. after   13 cycles
 SCF Done:  E(RB3LYP) =  -248.427511186     A.U. after   10 cycles
 SCF Done:  E(RB3LYP) =  -248.428126962     A.U. after   12 cycles
 SCF Done:  E(RB3LYP) =  -248.428080111     A.U. after   11 cycles
 SCF Done:  E(RB3LYP) =  -248.428533378     A.U. after    9 cycles
 SCF Done:  E(RB3LYP) =  -248.428624592     A.U. after   11 cycles
 SCF Done:  E(RB3LYP) =  -248.428628046     A.U. after    8 cycles
 SCF Done:  E(RB3LYP) =  -248.428628233     A.U. after    7 cycles
 Optimization completed.
    -- Stationary point found.
 Normal termination of Gaussian 09 at Fri Sep 10 20:11:31 2021.

 ----------------------------------------------------------------------
 #P Geom=AllCheck Guess=TCheck SCRF=Check GenChk RB3LYP/6-31G(d,p) Freq
 ----------------------------------------------------------------------

 Structure from the checkpoint file:  "/public/home/users/caep010/.cache/gau_scr/Gau-89616.chk"
 --------
 Frag_351
 --------
 Charge =  0 Multiplicity = 1

                         Standard orientation:
 ---------------------------------------------------------------------
 Center     Atomic      Atomic             Coordinates (Angstroms)
 Number     Number       Type             X           Y           Z
 ---------------------------------------------------------------------
      1          6           0       -1.953666   -0.114800    0.128624
      2          6           0       -0.766977   -0.683781   -0.119281
      3          7           0        0.433762   -0.015861   -0.370078
      4          6           0        1.649956   -0.600498    0.180481
      5          8           0        0.373367    1.361563   -0.071014
      6          1           0       -2.830665   -0.735207    0.264143
      7          1           0       -2.083698    0.960078    0.141131
      8          1           0       -0.658226   -1.764253   -0.173691
      9          1           0        1.713943   -1.645226   -0.135854
     10          1           0        2.508874   -0.058213   -0.217788
     11          1           0        1.679215   -0.561916    1.282277
     12          1           0        0.071411    1.417737    0.859495
 ---------------------------------------------------------------------

 SCF Done:  E(RB3LYP) =  -248.428628233     A.U. after    1 cycles

 The electronic state is 1-A.
 Alpha  occ. eigenvalues --  -19.18273 -14.39615 -10.22003 -10.21818 -10.16793
 Alpha  occ. eigenvalues --   -1.07918  -0.86852  -0.75618  -0.66962  -0.58995
 Alpha  occ. eigenvalues --   -0.51062  -0.49725  -0.46543  -0.43092  -0.40222
 Alpha  occ. eigenvalues --   -0.39002  -0.36877  -0.30695  -0.30086  -0.20936
 Alpha virt. eigenvalues --    0.03109   0.07039   0.10835   0.11382   0.14296
 Alpha virt. eigenvalues --    0.16157   0.16340   0.18202   0.20773   0.20967
 Alpha virt. eigenvalues --    0.32030   0.36156   0.49310   0.52545   0.54839

 Mulliken charges:
               1
     1  C   -0.297760
     2  C    0.116020
     3  N   -0.167122
     4  C   -0.166022
     5  O   -0.423461
     6  H    0.095496
     7  H    0.101275
     8  H    0.097584
     9  H    0.118013
    10  H    0.136033
    11  H    0.093965
    12  H    0.295980
 Sum of Mulliken charges =  -0.00000

 Dipole moment (field-independent basis, Debye):
    X=              0.6282    Y=             -1.3287    Z=              1.7808  Tot=              2.3090
 Quadrupole moment (field-independent basis, Debye-Ang):
   XX=            -29.2693   YY=            -29.7854   ZZ=            -32.2312
   XY=             -1.4369   XZ=              0.1080   YZ=              2.3978

  Exact polarizability:  61.056  -2.537  44.269  -2.487   2.576  28.634
 Approx polarizability:  84.129  -5.786  63.899  -7.916   4.047  42.336

                      1                      2                      3
                      A                      A                      A
 Frequencies --    169.3097               248.4868               300.3993
 Red. masses --      2.3553                 1.0694                 2.7643
 Frc consts  --      0.0398                 0.0389                 0.1470
 IR Inten    --      2.0820                 1.1103                 6.3371

                      4                      5                      6
                      A                      A                      A
 Frequencies --    346.6502               407.0295               454.8532
 Red. masses --      1.7645                 1.4652                 2.2602
 Frc consts  --      0.1249                 0.1430                 0.2755
 IR Inten    --     35.4451                17.6380                42.6794

                      7                      8                      9
                      A                      A                      A
 Frequencies --    599.3141               727.5760               793.9317
 Red. masses --      2.7496                 1.6116                 3.5728
 Frc consts  --      0.5819                 0.5026                 1.3269
 IR Inten    --     15.4940                12.8461                26.7034

                     10                     11                     12
                      A                      A                      A
 Frequencies --    842.3934               994.1957               999.4025
 Red. masses --      1.3779                 1.4452                 1.5193
 Frc consts  --      0.5761                 0.8417                 0.8941
 IR Inten    --     45.2663                14.4772                 7.3332

                     13                     14                     15
                      A                      A                      A
 Frequencies --   1082.3387              1146.2703              1181.3325
 Red. masses --      1.5615                 1.4197                 3.4153
 Frc consts  --      1.0777                 1.0991                 2.8082
 IR Inten    --     40.7498                10.0620                 5.4597

                     16                     17                     18
                      A                      A                      A
 Frequencies --   1300.8197              1329.5570              1422.7545
 Red. masses --      2.5554                 1.2437                 1.1738
 Frc consts  --      2.5477                 1.2954                 1.3999
 IR Inten    --     45.8254                 3.0690                31.3424

                     19                     20                     21
                      A                      A                      A
 Frequencies --   1449.3173              1465.9896              1493.9734
 Red. masses --      1.2395                 1.2017                 1.0585
 Frc consts  --      1.5339                 1.5216                 1.3920
 IR Inten    --      8.1350                 0.6033                22.4009

                     22                     23                     24
                      A                      A                      A
 Frequencies --   1523.7406              1712.7014              2978.4260
 Red. masses --      1.0665                 4.6149                 1.0554
 Frc consts  --      1.4589                 7.9758                 5.5161
 IR Inten    --      9.6383               101.3660                82.2274

                     25                     26                     27
                      A                      A                      A
 Frequencies --   3102.5794              3153.5095              3181.1527
 Red. masses --      1.0794                 1.1034                 1.0740
 Frc consts  --      6.1217                 6.4652                 6.4039
 IR Inten    --     22.5637                13.6434                 8.4724

                     28                     29                     30
                      A                      A                      A
 Frequencies --   3193.9373              3280.5283              3572.9948
 Red. masses --      1.0757                 1.1170                 1.0671
 Frc consts  --      6.4655                 7.0824                 8.0263
 IR Inten    --      2.5442                 6.4308                10.3626

 - Thermochemistry -
 -------------------
 Temperature   298.150 Kelvin.  Pressure   1.00000 Atm.
 Atom     1 has atomic number  6 and mass  12.00000

 Molecular mass:    73.05276 amu.
 Principal axes and moments of inertia in atomic units:
                           1         2         3
     Eigenvalues --   194.80977 431.39748 588.55571
           X            0.99924  -0.03877   0.00420
           Y            0.03867   0.99904   0.02037
           Z           -0.00499  -0.02019   0.99978
 This molecule is an asymmetric top.
 Rotational symmetry number  1.
 Rotational temperatures (Kelvin)      0.44461     0.20077     0.14716
 Rotational constants (GHZ):           9.26412     4.18348     3.06639
 Zero-point vibrational energy     265902.7 (Joules/Mol)
                                   63.55228 (Kcal/Mol)
 Warning -- explicit consideration of   7 degrees of freedom as
           vibrations may cause significant error
 Vibrational temperatures:    243.60   357.52   432.21   498.75   585.62
          (Kelvin)            654.43   862.28  1046.82  1142.29  1212.01
                             1430.42  1437.92  1557.24  1649.23  1699.67
                             1871.59  1912.93  2047.02  2085.24  2109.23
                             2149.49  2192.32  2464.19  4285.29  4463.91
                             4537.19  4576.96  4595.36  4719.94  5140.74

 Zero-point correction=                           0.101277 (Hartree/Particle)
 Thermal correction to Energy=                    0.107156
 Thermal correction to Enthalpy=                  0.108101
 Thermal correction to Gibbs Free Energy=         0.072809
 Sum of electronic and zero-point Energies=           -248.327351
 Sum of electronic and thermal Energies=              -248.321472
 Sum of electronic and thermal Enthalpies=            -248.320528
 Sum of electronic and thermal Free Energies=         -248.355819

                     E (Thermal)             CV                S
                      KCal/Mol        Cal/Mol-Kelvin    Cal/Mol-Kelvin
 Total                   67.242             20.974             74.277
 Electronic               0.000              0.000              0.000
 Translational            0.889              2.981             38.782
 Rotational               0.889              2.981             25.406
 Vibrational             65.464             15.012             10.089
 Vibration     1          0.625              1.880              2.443
 Vibration     2          0.662              1.765              1.741
 Vibration     3          0.693              1.673              1.415
 Vibration     4          0.725              1.582              1.181
 Vibration     5          0.772              1.455              0.937
 Vibration     6          0.813              1.350              0.781
 Vibration     7          0.957              1.033              0.451

 Optimization completed.
    -- Stationary point found.
 Normal termination of Gaussian 09 at Fri Sep 10 20:11:39 2021.
