 Gaussian 09, Revision E.01,
 Gaussian 09:  ES64L-G09RevE.01 30-Nov-2015

 ----------------------------
 #P OPT Freq B3LYP/6-31G(d,p)
 ----------------------------

 ---------
 Frag_1106
 ---------
 Symbolic Z-matrix:
 Charge =  0 Multiplicity = 1

 SCF Done:  E(RB3LYP) =  -245.878926387     A.U. after   12 cycles
 SCF Done:  E(RB3LYP) =  -245.878942187     A.U. after   10 cycles
 SCF Done:  E(RB3LYP) =  -245.878947442     A.U. after    9 cycles
 SCF Done:  E(RB3LYP) =  -245.878953542     A.U. after    7 cycles
 Optimization completed.
    -- Stationary point found.
 Normal termination of Gaussian 09 at Thu Sep  8 14:49:11 2022.

 ----------------------------------------------------------------------
 #P Geom=AllCheck Guess=TCheck SCRF=Check GenChk RB3LYP/6-31G(d,p) Freq
 ----------------------------------------------------------------------

 Structure from the checkpoint file:  "B3LYP6-31Gdp.Frag_1106.chk"
 ---------
 Frag_1106
 ---------
 Charge =  0 Multiplicity = 1

                         Standard orientation:
 ---------------------------------------------------------------------
 Center     Atomic      Atomic             Coordinates (Angstroms)
 Number     Number       Type             X           Y           Z
 ---------------------------------------------------------------------
      1          7           0       -1.956044    0.041879    0.053848
      2          6           0       -0.722063   -0.689964   -0.249735
      3          6           0        0.508653    0.027919    0.350011
      4          7           0        1.767444   -0.630130    0.003749
      5          7           0        0.579960    1.437901   -0.029333
      6          1           0       -2.739362   -0.347408   -0.463723
      7          1           0       -2.185734   -0.057210    1.040686
      8          1           0       -0.721481   -1.741156    0.093028
      9          1           0       -0.604331   -0.708471   -1.342310
     10          1           0        0.420207   -0.024575    1.447555
     11          1           0        1.765034   -0.878822   -0.985407
     12          1           0        1.859766   -1.501890    0.518158
     13          1           0        1.115645    1.524059   -0.889866
     14          1           0       -0.368802    1.760200   -0.217623
 ---------------------------------------------------------------------

 SCF Done:  E(RB3LYP) =  -245.878953542     A.U. after    1 cycles

 The electronic state is 1-A.
 Alpha  occ. eigenvalues --  -14.32085 -14.31236 -14.28930 -10.22919 -10.20634
 Alpha  occ. eigenvalues --   -0.91368  -0.87335  -0.82290  -0.68245  -0.59118
 Alpha  occ. eigenvalues --   -0.50780  -0.48423  -0.47227  -0.43790  -0.41509
 Alpha  occ. eigenvalues --   -0.39261  -0.38224  -0.34673  -0.24969  -0.24062
 Alpha  occ. eigenvalues --   -0.21182
 Alpha virt. eigenvalues --    0.07373   0.08114   0.11165   0.14075   0.15960
 Alpha virt. eigenvalues --    0.16201   0.17541   0.18957   0.19270   0.23870
 Alpha virt. eigenvalues --    0.25913   0.27323   0.29485   0.54130   0.56610

 Mulliken charges:
               1
     1  N   -0.606780
     2  C   -0.064765
     3  C    0.179276
     4  N   -0.586212
     5  N   -0.583181
     6  H    0.242160
     7  H    0.241693
     8  H    0.064183
     9  H    0.084415
    10  H    0.087817
    11  H    0.227017
    12  H    0.238567
    13  H    0.225901
    14  H    0.249908
 Sum of Mulliken charges =  -0.00000

 Dipole moment (field-independent basis, Debye):
    X=             -2.0515    Y=             -2.8613    Z=             -1.0349  Tot=              3.6697
 Quadrupole moment (field-independent basis, Debye-Ang):
   XX=            -32.8248   YY=            -33.1263   ZZ=            -29.1086
   XY=             -1.3660   XZ=             -2.9099   YZ=             -2.2435

  Exact polarizability:  48.170  -2.081  43.320  -1.996  -1.537  41.121
 Approx polarizability:  60.307  -3.277  58.067  -3.007  -2.207  59.364

                      1                      2                      3
                      A                      A                      A
 Frequencies --     88.8130               177.1216               208.7657
 Red. masses --      1.3091                 1.6051                 1.1173
 Frc consts  --      0.0061                 0.0297                 0.0287
 IR Inten    --     36.5579                21.0772                33.5405

                      4                      5                      6
                      A                      A                      A
 Frequencies --    261.9330               288.9084               419.1077
 Red. masses --      1.9499                 1.3776                 3.1608
 Frc consts  --      0.0788                 0.0677                 0.3271
 IR Inten    --     13.0640                34.4794                 6.1640

                      7                      8                      9
                      A                      A                      A
 Frequencies --    497.4353               526.7859               806.6160
 Red. masses --      2.0160                 3.3645                 1.7874
 Frc consts  --      0.2939                 0.5501                 0.6852
 IR Inten    --     19.2700                 4.8152                66.4863

                     10                     11                     12
                      A                      A                      A
 Frequencies --    846.7805               876.7545               932.2704
 Red. masses --      1.4551                 1.5443                 1.3290
 Frc consts  --      0.6147                 0.6994                 0.6806
 IR Inten    --     93.6689               205.3943                85.6357

                     13                     14                     15
                      A                      A                      A
 Frequencies --    989.9103              1023.4288              1083.2431
 Red. masses --      1.9223                 1.8661                 2.9272
 Frc consts  --      1.1098                 1.1516                 2.0238
 IR Inten    --     58.9774                44.0329                 3.6172

                     16                     17                     18
                      A                      A                      A
 Frequencies --   1105.4690              1184.7656              1215.7793
 Red. masses --      1.1369                 2.3850                 1.3455
 Frc consts  --      0.8186                 1.9724                 1.1718
 IR Inten    --      6.2053                13.7625                25.6740

                     19                     20                     21
                      A                      A                      A
 Frequencies --   1313.9683              1351.4896              1377.0520
 Red. masses --      1.1964                 1.4537                 1.2400
 Frc consts  --      1.2170                 1.5644                 1.3853
 IR Inten    --      6.6997                 8.1500                18.7184

                     22                     23                     24
                      A                      A                      A
 Frequencies --   1415.3408              1442.4234              1509.3616
 Red. masses --      1.3570                 1.4540                 1.0897
 Frc consts  --      1.6016                 1.7824                 1.4626
 IR Inten    --     10.1771                 4.4107                 4.3358

                     25                     26                     27
                      A                      A                      A
 Frequencies --   1639.1211              1665.0891              1671.6825
 Red. masses --      1.0866                 1.0901                 1.1050
 Frc consts  --      1.7201                 1.7807                 1.8194
 IR Inten    --     38.8726                16.0148                33.8211

                     28                     29                     30
                      A                      A                      A
 Frequencies --   2942.1129              2982.9352              3042.3582
 Red. masses --      1.0709                 1.0835                 1.0926
 Frc consts  --      5.4617                 5.6804                 5.9583
 IR Inten    --     96.5133                45.9786                59.6008

                     31                     32                     33
                      A                      A                      A
 Frequencies --   3469.4788              3473.2346              3490.9472
 Red. masses --      1.0498                 1.0513                 1.0500
 Frc consts  --      7.4457                 7.4722                 7.5393
 IR Inten    --      5.2702                 2.1611                 1.0862

                     34                     35                     36
                      A                      A                      A
 Frequencies --   3571.4906              3574.3339              3577.3697
 Red. masses --      1.0927                 1.0893                 1.0925
 Frc consts  --      8.2121                 8.1995                 8.2378
 IR Inten    --      4.6541                 0.1769                 0.1946

 - Thermochemistry -
 -------------------
 Temperature   298.150 Kelvin.  Pressure   1.00000 Atm.
 Atom     1 has atomic number  7 and mass  14.00307

 Molecular mass:    75.07965 amu.
 Principal axes and moments of inertia in atomic units:
                           1         2         3
     Eigenvalues --   221.38769 508.59688 661.59878
           X            0.99992  -0.00650  -0.01059
           Y            0.00631   0.99982  -0.01783
           Z            0.01070   0.01777   0.99978
 This molecule is an asymmetric top.
 Rotational symmetry number  1.
 Rotational temperatures (Kelvin)      0.39123     0.17030     0.13092
 Rotational constants (GHZ):           8.15195     3.54847     2.72785
 Zero-point vibrational energy     335215.6 (Joules/Mol)
                                   80.11846 (Kcal/Mol)
 Warning -- explicit consideration of   8 degrees of freedom as
           vibrations may cause significant error
 Vibrational temperatures:    127.78   254.84   300.37   376.86   415.67
          (Kelvin)            603.00   715.70   757.93  1160.54  1218.33
                             1261.45  1341.33  1424.26  1472.48  1558.54
                             1590.52  1704.61  1749.23  1890.51  1944.49
                             1981.27  2036.36  2075.32  2171.63  2358.33
                             2395.69  2405.18  4233.04  4291.77  4377.27
                             4991.80  4997.20  5022.69  5138.57  5142.66
                             5147.03

 Zero-point correction=                           0.127677 (Hartree/Particle)
 Thermal correction to Energy=                    0.134496
 Thermal correction to Enthalpy=                  0.135440
 Thermal correction to Gibbs Free Energy=         0.097795
 Sum of electronic and zero-point Energies=           -245.751277
 Sum of electronic and thermal Energies=              -245.744458
 Sum of electronic and thermal Enthalpies=            -245.743514
 Sum of electronic and thermal Free Energies=         -245.781159

                     E (Thermal)             CV                S
                      KCal/Mol        Cal/Mol-Kelvin    Cal/Mol-Kelvin
 Total                   84.397             23.629             79.231
 Electronic               0.000              0.000              0.000
 Translational            0.889              2.981             38.864
 Rotational               0.889              2.981             25.813
 Vibrational             82.620             17.667             14.554
 Vibration     1          0.602              1.957              3.686
 Vibration     2          0.628              1.871              2.359
 Vibration     3          0.642              1.827              2.054
 Vibration     4          0.669              1.742              1.649
 Vibration     5          0.685              1.694              1.480
 Vibration     6          0.782              1.429              0.895
 Vibration     7          0.853              1.256              0.665
 Vibration     8          0.882              1.191              0.594

 Normal termination of Gaussian 09 at Thu Sep  8 14:49:22 2022.
