 Gaussian 09, Revision E.01,
 Gaussian 09:  ES64L-G09RevE.01 30-Nov-2015

 ----------------------------
 #P OPT Freq B3LYP/6-31G(d,p)
 ----------------------------

 --------
 Frag_844
 --------
 Symbolic Z-matrix:
 Charge =  0 Multiplicity = 1

 SCF Done:  E(RB3LYP) =  -264.480280599     A.U. after   14 cycles
 SCF Done:  E(RB3LYP) =  -264.480367414     A.U. after    9 cycles
 SCF Done:  E(RB3LYP) =  -264.480387528     A.U. after    9 cycles
 SCF Done:  E(RB3LYP) =  -264.480393439     A.U. after    9 cycles
 SCF Done:  E(RB3LYP) =  -264.480394455     A.U. after    8 cycles
 SCF Done:  E(RB3LYP) =  -264.480394590     A.U. after    7 cycles
 Optimization completed.
    -- Stationary point found.
 Normal termination of Gaussian 09 at Thu Sep  8 15:18:18 2022.

 ----------------------------------------------------------------------
 #P Geom=AllCheck Guess=TCheck SCRF=Check GenChk RB3LYP/6-31G(d,p) Freq
 ----------------------------------------------------------------------

 Structure from the checkpoint file:  "B3LYP6-31Gdp.Frag_844.chk"
 --------
 Frag_844
 --------
 Charge =  0 Multiplicity = 1

                         Standard orientation:
 ---------------------------------------------------------------------
 Center     Atomic      Atomic             Coordinates (Angstroms)
 Number     Number       Type             X           Y           Z
 ---------------------------------------------------------------------
      1          6           0        0.615567    1.356588    0.047542
      2          7           0        0.383773   -0.038935   -0.296714
      3          8           0        1.443159   -0.853589    0.210410
      4          6           0       -0.857219   -0.626452   -0.030326
      5          7           0       -2.004374   -0.080492    0.069365
      6          1           0        1.602046    1.644291   -0.319195
      7          1           0       -0.127983    1.976455   -0.459604
      8          1           0        0.563740    1.536912    1.129447
      9          1           0        1.934283   -1.101384   -0.587202
     10          1           0       -0.769023   -1.711982    0.035523
     11          1           0       -1.954222    0.939593    0.005899
 ---------------------------------------------------------------------

 SCF Done:  E(RB3LYP) =  -264.480394590     A.U. after    1 cycles

 The electronic state is 1-A.
 Alpha  occ. eigenvalues --  -19.19591 -14.40644 -14.30487 -10.25143 -10.22869
 Alpha  occ. eigenvalues --   -1.08625  -0.91762  -0.83833  -0.71421  -0.58761
 Alpha  occ. eigenvalues --   -0.54625  -0.50999  -0.47646  -0.42717  -0.41025
 Alpha  occ. eigenvalues --   -0.40752  -0.34079  -0.32065  -0.26417  -0.23588
 Alpha virt. eigenvalues --    0.01869   0.06468   0.08682   0.10077   0.14797
 Alpha virt. eigenvalues --    0.15549   0.16215   0.18505   0.21420   0.29947
 Alpha virt. eigenvalues --    0.37559   0.52230   0.52829   0.54528   0.57603

 Mulliken charges:
               1
     1  C   -0.163205
     2  N   -0.232566
     3  O   -0.422521
     4  C    0.298728
     5  N   -0.520325
     6  H    0.123705
     7  H    0.122128
     8  H    0.127636
     9  H    0.334717
    10  H    0.115541
    11  H    0.216161
 Sum of Mulliken charges =  -0.00000

 Dipole moment (field-independent basis, Debye):
    X=              2.8510    Y=              1.3340    Z=             -1.1479  Tot=              3.3505
 Quadrupole moment (field-independent basis, Debye-Ang):
   XX=            -34.7377   YY=            -25.9362   ZZ=            -30.9578
   XY=             -2.6922   XZ=             -2.1666   YZ=              1.5490

  Exact polarizability:  51.935  -3.238  41.501  -2.075   0.367  25.597
 Approx polarizability:  80.450  -9.496  55.326  -4.328  -0.185  36.993

                      1                      2                      3
                      A                      A                      A
 Frequencies --    130.2251               202.9921               290.9706
 Red. masses --      1.4423                 1.5706                 2.5764
 Frc consts  --      0.0144                 0.0381                 0.1285
 IR Inten    --      0.1574                 2.1118                 9.8524

                      4                      5                      6
                      A                      A                      A
 Frequencies --    331.5970               376.0639               443.9798
 Red. masses --      2.8778                 1.1389                 3.4531
 Frc consts  --      0.1864                 0.0949                 0.4010
 IR Inten    --      2.6363               111.8335                 3.5350

                      7                      8                      9
                      A                      A                      A
 Frequencies --    604.6854               817.9385               834.9982
 Red. masses --      3.6284                 3.8849                 2.1526
 Frc consts  --      0.7817                 1.5313                 0.8843
 IR Inten    --     18.8605                20.9528                37.6587

                     10                     11                     12
                      A                      A                      A
 Frequencies --   1015.9302              1077.1421              1120.8327
 Red. masses --      2.7498                 1.1206                 1.8481
 Frc consts  --      1.6722                 0.7661                 1.3679
 IR Inten    --     17.7867                40.4053                12.4104

                     13                     14                     15
                      A                      A                      A
 Frequencies --   1153.6400              1228.5351              1327.2207
 Red. masses --      1.3488                 1.6636                 3.3618
 Frc consts  --      1.0576                 1.4793                 3.4891
 IR Inten    --     17.0018               115.2425               108.8039

                     16                     17                     18
                      A                      A                      A
 Frequencies --   1376.2794              1418.7820              1450.0669
 Red. masses --      1.1394                 1.2209                 1.1795
 Frc consts  --      1.2716                 1.4479                 1.4612
 IR Inten    --     45.7985                28.4504                 3.0350

                     19                     20                     21
                      A                      A                      A
 Frequencies --   1500.6900              1513.0158              1713.0674
 Red. masses --      1.0475                 1.0615                 7.5631
 Frc consts  --      1.3899                 1.4318                13.0767
 IR Inten    --     13.4122                 5.6309               171.4380

                     22                     23                     24
                      A                      A                      A
 Frequencies --   3028.9154              3116.8324              3150.9313
 Red. masses --      1.0432                 1.0936                 1.0984
 Frc consts  --      5.6388                 6.2597                 6.4249
 IR Inten    --     36.1764                20.1884                14.8976

                     25                     26                     27
                      A                      A                      A
 Frequencies --   3153.5175              3465.3799              3771.6185
 Red. masses --      1.0948                 1.0737                 1.0685
 Frc consts  --      6.4145                 7.5970                 8.9553
 IR Inten    --     13.5754                 6.9456                36.0622

 - Thermochemistry -
 -------------------
 Temperature   298.150 Kelvin.  Pressure   1.00000 Atm.
 Atom     1 has atomic number  6 and mass  12.00000

 Molecular mass:    74.04801 amu.
 Principal axes and moments of inertia in atomic units:
                           1         2         3
     Eigenvalues --   201.78508 428.89397 602.31255
           X            0.99991   0.01036  -0.00867
           Y           -0.01020   0.99979   0.01796
           Z            0.00885  -0.01787   0.99980
 This molecule is an asymmetric top.
 Rotational symmetry number  1.
 Rotational temperatures (Kelvin)      0.42924     0.20195     0.14380
 Rotational constants (GHZ):           8.94388     4.20790     2.99635
 Zero-point vibrational energy     236955.4 (Joules/Mol)
                                   56.63370 (Kcal/Mol)
 Warning -- explicit consideration of   7 degrees of freedom as
           vibrations may cause significant error
 Vibrational temperatures:    187.36   292.06   418.64   477.09   541.07
          (Kelvin)            638.79   870.01  1176.83  1201.37  1461.70
                             1549.77  1612.63  1659.83  1767.59  1909.57
                             1980.16  2041.31  2086.32  2159.16  2176.89
                             2464.72  4357.93  4484.42  4533.48  4537.20
                             4985.90  5426.51

 Zero-point correction=                           0.090252 (Hartree/Particle)
 Thermal correction to Energy=                    0.096197
 Thermal correction to Enthalpy=                  0.097141
 Thermal correction to Gibbs Free Energy=         0.061441
 Sum of electronic and zero-point Energies=           -264.390143
 Sum of electronic and thermal Energies=              -264.384198
 Sum of electronic and thermal Enthalpies=            -264.383253
 Sum of electronic and thermal Free Energies=         -264.418954

                     E (Thermal)             CV                S
                      KCal/Mol        Cal/Mol-Kelvin    Cal/Mol-Kelvin
 Total                   60.365             20.124             75.138
 Electronic               0.000              0.000              0.000
 Translational            0.889              2.981             38.822
 Rotational               0.889              2.981             25.458
 Vibrational             58.587             14.162             10.857
 Vibration     1          0.612              1.923              2.943
 Vibration     2          0.639              1.836              2.106
 Vibration     3          0.687              1.691              1.468
 Vibration     4          0.714              1.612              1.252
 Vibration     5          0.747              1.521              1.055
 Vibration     6          0.803              1.374              0.814
 Vibration     7          0.963              1.022              0.442

 Normal termination of Gaussian 09 at Thu Sep  8 15:18:26 2022.
