 Gaussian 09, Revision D.01,
 Gaussian 09:  ES64L-G09RevD.01 24-Apr-2013

 -------------------------
 #P OPT Freq B3LYP/6-31G**
 -------------------------

 --------
 Frag_111
 --------
 Symbolic Z-matrix:
 Charge =  0 Multiplicity = 1

 SCF Done:  E(RB3LYP) =  -174.503541174     A.U. after   12 cycles
 Optimization completed.
    -- Stationary point found.

 1\1\GINC-FN15\FOpt\RB3LYP\6-31G(d,p)\C3H9N1\LIUJ201281\23-Jul-2021\0\\
 #P OPT Freq B3LYP/6-31G**\\Frag_111\\0,1\C,-1.3699,-0.4785,0.084\C,0.0
 013,0.0282,-0.3702\C,1.1319,-0.8968,0.1094\N,0.1521,1.4298,0.0534\H,-1
 .4297,-0.5031,1.1798\H,-1.5582,-1.4935,-0.2799\H,-2.1616,0.1803,-0.282
 \H,0.0123,0.0376,-1.4691\H,2.1087,-0.5328,-0.2293\H,1.1538,-0.9449,1.2
 055\H,1.0079,-1.9188,-0.2671\H,1.0617,1.7796,-0.2431\H,0.1607,1.4698,1
 .0726\\Version=ES64L-G09RevD.01\State=1-A\HF=-174.5035412\RMSD=5.915e-
 09\RMSF=3.316e-05\Dipole=0.3983952,-0.2569568,0.1921362\Quadrupole=0.3

 Normal termination of Gaussian 09 at Fri Jul 23 07:24:00 2021.

 ----------------------------------------------------------------------
 #P Geom=AllCheck Guess=TCheck SCRF=Check GenChk RB3LYP/6-31G(d,p) Freq
 ----------------------------------------------------------------------

 Structure from the checkpoint file:  "/vol2/users/liuj201281/HOFBenchmark/IsodesmicSplit/Sample60/Ring26/Running/Gau-345055.chk"
 --------
 Frag_111
 --------
 Charge =  0 Multiplicity = 1

                         Standard orientation:
 ---------------------------------------------------------------------
 Center     Atomic      Atomic             Coordinates (Angstroms)
 Number     Number       Type             X           Y           Z
 ---------------------------------------------------------------------
      1          6           0       -1.369913   -0.478477    0.083988
      2          6           0        0.001298    0.028194   -0.370212
      3          6           0        1.131878   -0.896829    0.109388
      4          7           0        0.152127    1.429791    0.053388
      5          1           0       -1.429713   -0.503076    1.179788
      6          1           0       -1.558234   -1.493474   -0.279912
      7          1           0       -2.161599    0.180339   -0.282012
      8          1           0        0.012298    0.037594   -1.469112
      9          1           0        2.108686   -0.532850   -0.229312
     10          1           0        1.153777   -0.944930    1.205488
     11          1           0        1.007857   -1.918827   -0.267112
     12          1           0        1.061734    1.779572   -0.243112
     13          1           0        0.160728    1.469791    1.072588
 ---------------------------------------------------------------------

 SCF Done:  E(RB3LYP) =  -174.503541174     A.U. after    1 cycles

 The electronic state is 1-A.
 Alpha  occ. eigenvalues --  -14.30519 -10.20935 -10.17195 -10.16863  -0.87755
 Alpha  occ. eigenvalues --   -0.74246  -0.68088  -0.57416  -0.48529  -0.44167
 Alpha  occ. eigenvalues --   -0.42636  -0.39964  -0.38054  -0.35963  -0.33754
 Alpha  occ. eigenvalues --   -0.32787  -0.22962
 Alpha virt. eigenvalues --    0.07737   0.12788   0.13321   0.15041   0.15767
 Alpha virt. eigenvalues --    0.17458   0.18103   0.19534   0.20900   0.23081
 Alpha virt. eigenvalues --    0.25704   0.26952   0.50910   0.53205   0.54739

 Mulliken charges:
               1
     1  C   -0.300454
     2  C    0.050549
     3  C   -0.309401
     4  N   -0.584233
     5  H    0.092101
     6  H    0.098135
     7  H    0.117311
     8  H    0.094973
     9  H    0.092544
    10  H    0.093562
    11  H    0.098560
    12  H    0.229926
    13  H    0.226426
 Sum of Mulliken charges =   0.00000

 Dipole moment (field-independent basis, Debye):
    X=              1.0126    Y=             -0.6531    Z=              0.4884  Tot=              1.3002
 Quadrupole moment (field-independent basis, Debye-Ang):
   XX=            -26.8222   YY=            -29.1610   ZZ=            -25.9919
   XY=              2.5376   XZ=             -0.3198   YZ=              1.3243

  Exact polarizability:  42.015   1.296  42.194  -0.762   1.004  38.639
 Approx polarizability:  52.055   1.817  55.297  -1.447   1.534  54.961

                      1                      2                      3
                      A                      A                      A
 Frequencies --    232.1341               265.9359               275.0976
 Red. masses --      1.0219                 1.0953                 1.0498
 Frc consts  --      0.0324                 0.0456                 0.0468
 IR Inten    --      2.6165                10.8731                31.6358

                      4                      5                      6
                      A                      A                      A
 Frequencies --    365.5734               410.2309               463.7485
 Red. masses --      2.0711                 2.3719                 1.9815
 Frc consts  --      0.1631                 0.2352                 0.2511
 IR Inten    --      0.2833                12.4884                 2.1170

                      7                      8                      9
                      A                      A                      A
 Frequencies --    812.1388               895.9003               927.4266
 Red. masses --      3.0065                 1.3389                 1.2625
 Frc consts  --      1.1683                 0.6332                 0.6398
 IR Inten    --      9.4791               153.4740                 0.4248

                     10                     11                     12
                      A                      A                      A
 Frequencies --    952.0968               973.7643              1048.0515
 Red. masses --      1.4552                 1.7200                 1.3585
 Frc consts  --      0.7772                 0.9609                 0.8792
 IR Inten    --      3.7035                 0.4281                 3.7585

                     13                     14                     15
                      A                      A                      A
 Frequencies --   1163.2773              1199.4228              1280.4487
 Red. masses --      1.8815                 1.8830                 1.6230
 Frc consts  --      1.5001                 1.5961                 1.5678
 IR Inten    --     26.2840                 9.9521                 3.7637

                     16                     17                     18
                      A                      A                      A
 Frequencies --   1367.7361              1404.9542              1416.7899
 Red. masses --      1.3229                 1.2193                 1.3234
 Frc consts  --      1.4580                 1.4181                 1.5651
 IR Inten    --     12.6198                 4.1123                 7.4179

                     19                     20                     21
                      A                      A                      A
 Frequencies --   1432.5345              1498.4794              1501.1036
 Red. masses --      1.2994                 1.0436                 1.0541
 Frc consts  --      1.5711                 1.3807                 1.3995
 IR Inten    --      8.6239                 0.5161                 0.4176

                     22                     23                     24
                      A                      A                      A
 Frequencies --   1515.0151              1521.3615              1667.5603
 Red. masses --      1.0596                 1.0505                 1.0930
 Frc consts  --      1.4330                 1.4326                 1.7907
 IR Inten    --      4.4578                 5.7109                22.8305

                     25                     26                     27
                      A                      A                      A
 Frequencies --   3023.6209              3024.5209              3036.8760
 Red. masses --      1.0818                 1.0363                 1.0422
 Frc consts  --      5.8272                 5.5853                 5.6633
 IR Inten    --     13.1389                26.0850                29.9711

                     28                     29                     30
                      A                      A                      A
 Frequencies --   3094.4819              3100.4216              3106.5937
 Red. masses --      1.1010                 1.1022                 1.0976
 Frc consts  --      6.2120                 6.2423                 6.2412
 IR Inten    --     20.1803                32.2508                70.1528

                     31                     32                     33
                      A                      A                      A
 Frequencies --   3134.7385              3462.9978              3548.7374
 Red. masses --      1.1026                 1.0496                 1.0914
 Frc consts  --      6.3838                 7.4163                 8.0982
 IR Inten    --     25.9645                 2.9956                 1.4237

 - Thermochemistry -
 -------------------
 Temperature   298.150 Kelvin.  Pressure   1.00000 Atm.
 Atom     1 has atomic number  6 and mass  12.00000

 Molecular mass:    59.07350 amu.
 Principal axes and moments of inertia in atomic units:
                           1         2         3
     Eigenvalues --   221.48135 228.88357 390.02896
           X            0.94929   0.31440  -0.00206
           Y           -0.31438   0.94927   0.00732
           Z            0.00426  -0.00630   0.99997
 This molecule is an asymmetric top.
 Rotational symmetry number  1.
 Rotational temperatures (Kelvin)      0.39107     0.37842     0.22207
 Rotational constants (GHZ):           8.14850     7.88498     4.62720
 Zero-point vibrational energy     317750.7 (Joules/Mol)
                                   75.94424 (Kcal/Mol)
 Warning -- explicit consideration of   6 degrees of freedom as
           vibrations may cause significant error
 Vibrational temperatures:    333.99   382.62   395.80   525.98   590.23
          (Kelvin)            667.23  1168.49  1289.00  1334.36  1369.85
                             1401.03  1507.91  1673.69  1725.70  1842.28
                             1967.86  2021.41  2038.44  2061.10  2155.97
                             2159.75  2179.77  2188.90  2399.24  4350.31
                             4351.61  4369.38  4452.26  4460.81  4469.69
                             4510.18  4982.48  5105.84

 Zero-point correction=                           0.121025 (Hartree/Particle)
 Thermal correction to Energy=                    0.126576
 Thermal correction to Enthalpy=                  0.127520
 Thermal correction to Gibbs Free Energy=         0.093561
 Sum of electronic and zero-point Energies=           -174.382516
 Sum of electronic and thermal Energies=              -174.376966
 Sum of electronic and thermal Enthalpies=            -174.376021
 Sum of electronic and thermal Free Energies=         -174.409980

                     E (Thermal)             CV                S
                      KCal/Mol        Cal/Mol-Kelvin    Cal/Mol-Kelvin
 Total                   79.427             19.640             71.473
 Electronic               0.000              0.000              0.000
 Translational            0.889              2.981             38.149
 Rotational               0.889              2.981             24.495
 Vibrational             77.650             13.678              8.828
 Vibration     1          0.653              1.792              1.862
 Vibration     2          0.672              1.736              1.622
 Vibration     3          0.677              1.719              1.564
 Vibration     4          0.739              1.543              1.098
 Vibration     5          0.774              1.448              0.926
 Vibration     6          0.821              1.330              0.755

 Optimization completed.
    -- Stationary point found.

 1\1\GINC-FN15\Freq\RB3LYP\6-31G(d,p)\C3H9N1\LIUJ201281\23-Jul-2021\0\\
 #P Geom=AllCheck Guess=TCheck SCRF=Check GenChk RB3LYP/6-31G(d,p) Freq
 \\Frag_111\\0,1\C,-1.3699,-0.4785,0.084\C,0.0013,0.0282,-0.3702\C,1.13
 19,-0.8968,0.1094\N,0.1521,1.4298,0.0534\H,-1.4297,-0.5031,1.1798\H,-1
 .5582,-1.4935,-0.2799\H,-2.1616,0.1803,-0.282\H,0.0123,0.0376,-1.4691\
 H,2.1087,-0.5328,-0.2293\H,1.1538,-0.9449,1.2055\H,1.0079,-1.9188,-0.2
 671\H,1.0617,1.7796,-0.2431\H,0.1607,1.4698,1.0726\\Version=ES64L-G09R
 evD.01\State=1-A\HF=-174.5035412\RMSD=1.757e-09\RMSF=3.316e-05\ZeroPoi

 Normal termination of Gaussian 09 at Fri Jul 23 07:24:42 2021.
