 Gaussian 09, Revision E.01,
 Gaussian 09:  ES64L-G09RevE.01 30-Nov-2015

 ----------------------------
 #P OPT Freq B3LYP/6-31G(d,p)
 ----------------------------

 --------
 Frag_443
 --------
 Symbolic Z-matrix:
 Charge =  0 Multiplicity = 1

 SCF Done:  E(RB3LYP) =  -267.952235844     A.U. after   13 cycles
 SCF Done:  E(RB3LYP) =  -267.952291191     A.U. after    9 cycles
 SCF Done:  E(RB3LYP) =  -267.952296776     A.U. after    8 cycles
 SCF Done:  E(RB3LYP) =  -267.952298975     A.U. after    8 cycles
 SCF Done:  E(RB3LYP) =  -267.952299355     A.U. after    7 cycles
 SCF Done:  E(RB3LYP) =  -267.952299456     A.U. after    6 cycles
 Optimization completed.
    -- Stationary point found.
 Normal termination of Gaussian 09 at Thu Sep  8 15:18:54 2022.

 ----------------------------------------------------------------------
 #P Geom=AllCheck Guess=TCheck SCRF=Check GenChk RB3LYP/6-31G(d,p) Freq
 ----------------------------------------------------------------------

 Structure from the checkpoint file:  "B3LYP6-31Gdp.Frag_443.chk"
 --------
 Frag_443
 --------
 Charge =  0 Multiplicity = 1

                         Standard orientation:
 ---------------------------------------------------------------------
 Center     Atomic      Atomic             Coordinates (Angstroms)
 Number     Number       Type             X           Y           Z
 ---------------------------------------------------------------------
      1          6           0        1.469559   -1.268259   -0.083098
      2          6           0        0.655016    0.000009   -0.000001
      3          6           0        1.469604    1.268249    0.083094
      4          6           0       -0.698864    0.000011    0.000011
      5          7           0       -1.512114    1.138805   -0.159810
      6          7           0       -1.512080   -1.138807    0.159809
      7          1           0        0.890006   -2.130626   -0.429019
      8          1           0        1.925133   -1.542915    0.879983
      9          1           0        2.299795   -1.146889   -0.792202
     10          1           0        0.890082    2.130655    0.428966
     11          1           0        2.299808    1.146867    0.792235
     12          1           0        1.925229    1.542854   -0.879976
     13          1           0       -0.996604    2.002727   -0.253334
     14          1           0       -2.219735    1.211728    0.564527
     15          1           0       -2.219701   -1.211737   -0.564527
     16          1           0       -0.996538   -2.002713    0.253308
 ---------------------------------------------------------------------

 SCF Done:  E(RB3LYP) =  -267.952299456     A.U. after    1 cycles

 The electronic state is 1-A.
 Alpha  occ. eigenvalues --  -14.32388 -14.32388 -10.22914 -10.17082 -10.17082
 Alpha  occ. eigenvalues --  -10.15719  -0.92873  -0.84633  -0.76992  -0.67732
 Alpha  occ. eigenvalues --   -0.64090  -0.55047  -0.49872  -0.48895  -0.43410
 Alpha  occ. eigenvalues --   -0.42765  -0.41597  -0.38959  -0.37319  -0.35901
 Alpha  occ. eigenvalues --   -0.33621  -0.32376  -0.25122  -0.17382
 Alpha virt. eigenvalues --    0.06677   0.07396   0.11125   0.12258   0.14643
 Alpha virt. eigenvalues --    0.15022   0.17132   0.17797   0.19123   0.19884
 Alpha virt. eigenvalues --    0.24458   0.25245   0.25459   0.29959   0.37859

 Mulliken charges:
               1
     1  C   -0.369190
     2  C    0.084801
     3  C   -0.369189
     4  C    0.346196
     5  N   -0.641791
     6  N   -0.641787
     7  H    0.082235
     8  H    0.105225
     9  H    0.102831
    10  H    0.082236
    11  H    0.102832
    12  H    0.105225
    13  H    0.250718
    14  H    0.254471
    15  H    0.254470
    16  H    0.250717
 Sum of Mulliken charges =  -0.00000

 Dipole moment (field-independent basis, Debye):
    X=             -0.3594    Y=              0.0001    Z=             -0.0000  Tot=              0.3594
 Quadrupole moment (field-independent basis, Debye-Ang):
   XX=            -37.3537   YY=            -32.9393   ZZ=            -40.2038
   XY=             -0.0002   XZ=             -0.0000   YZ=              2.0463

  Exact polarizability:  80.024  -0.000  60.654  -0.000  -0.445  38.407
 Approx polarizability: 118.679  -0.000  79.355  -0.000  -2.255  55.182

                      1                      2                      3
                      A                      A                      A
 Frequencies --    141.7153               154.3709               166.7994
 Red. masses --      1.1340                 2.0244                 1.1521
 Frc consts  --      0.0134                 0.0284                 0.0189
 IR Inten    --      0.2520                 0.2760                 0.1177

                      4                      5                      6
                      A                      A                      A
 Frequencies --    284.5541               308.4653               369.1581
 Red. masses --      1.6302                 2.3333                 1.4719
 Frc consts  --      0.0778                 0.1308                 0.1182
 IR Inten    --      0.0958                 8.2637                17.1396

                      7                      8                      9
                      A                      A                      A
 Frequencies --    373.5337               392.9084               480.5885
 Red. masses --      1.6160                 1.4104                 2.6244
 Frc consts  --      0.1328                 0.1283                 0.3571
 IR Inten    --      9.7822                34.3385                 0.4991

                     10                     11                     12
                      A                      A                      A
 Frequencies --    524.4303               580.3876               714.4326
 Red. masses --      3.5713                 2.1617                 2.6548
 Frc consts  --      0.5787                 0.4290                 0.7984
 IR Inten    --      0.2166                55.2265               148.3734

                     13                     14                     15
                      A                      A                      A
 Frequencies --    753.5143               767.8741               959.8127
 Red. masses --      1.7970                 1.4718                 2.1943
 Frc consts  --      0.6011                 0.5113                 1.1910
 IR Inten    --    208.4081               214.2351                 2.4252

                     16                     17                     18
                      A                      A                      A
 Frequencies --    986.0844              1011.0811              1093.8699
 Red. masses --      1.3379                 1.2416                 1.5024
 Frc consts  --      0.7665                 0.7479                 1.0591
 IR Inten    --      0.7970                 4.1753                27.6184

                     19                     20                     21
                      A                      A                      A
 Frequencies --   1094.0822              1152.7644              1227.7555
 Red. masses --      1.5300                 1.3608                 4.2601
 Frc consts  --      1.0791                 1.0654                 3.7835
 IR Inten    --      0.9756                 6.7324                 5.9173

                     22                     23                     24
                      A                      A                      A
 Frequencies --   1279.0902              1372.0563              1433.3208
 Red. masses --      1.8660                 2.7557                 1.4582
 Frc consts  --      1.7987                 3.0565                 1.7651
 IR Inten    --     28.0261                44.1845                 4.9182

                     25                     26                     27
                      A                      A                      A
 Frequencies --   1437.7563              1491.4930              1502.9582
 Red. masses --      1.2485                 1.0471                 1.0519
 Frc consts  --      1.5206                 1.3723                 1.3999
 IR Inten    --      5.0777                 0.0039                 7.0854

                     28                     29                     30
                      A                      A                      A
 Frequencies --   1510.9781              1518.9731              1636.7170
 Red. masses --      1.0498                 1.0651                 1.1640
 Frc consts  --      1.4121                 1.4479                 1.8372
 IR Inten    --      5.3904                 1.0112                 0.0002

                     31                     32                     33
                      A                      A                      A
 Frequencies --   1638.7732              1764.7742              2999.3231
 Red. masses --      1.1511                 5.2866                 1.0414
 Frc consts  --      1.8214                 9.7007                 5.5197
 IR Inten    --    102.1042               145.1017                54.5282

                     34                     35                     36
                      A                      A                      A
 Frequencies --   3005.0688              3043.7176              3046.6349
 Red. masses --      1.0431                 1.0970                 1.0965
 Frc consts  --      5.5499                 5.9880                 5.9967
 IR Inten    --     78.1438                72.1228                 6.6899

                     37                     38                     39
                      A                      A                      A
 Frequencies --   3091.6678              3093.8474              3526.4891
 Red. masses --      1.0976                 1.0968                 1.0517
 Frc consts  --      6.1814                 6.1854                 7.7056
 IR Inten    --     42.0820                37.8959                 3.2495

                     40                     41                     42
                      A                      A                      A
 Frequencies --   3529.9994              3661.3600              3662.2376
 Red. masses --      1.0518                 1.0916                 1.0917
 Frc consts  --      7.7224                 8.6217                 8.6269
 IR Inten    --      0.6809                 0.9267                 8.3819

 - Thermochemistry -
 -------------------
 Temperature   298.150 Kelvin.  Pressure   1.00000 Atm.
 Atom     1 has atomic number  6 and mass  12.00000

 Molecular mass:    86.08440 amu.
 Principal axes and moments of inertia in atomic units:
                           1         2         3
     Eigenvalues --   383.59390 582.81458 931.89125
           X            1.00000   0.00000   0.00000
           Y           -0.00000   0.99992   0.01304
           Z           -0.00000  -0.01304   0.99992
 This molecule is an asymmetric top.
 Rotational symmetry number  1.
 Rotational temperatures (Kelvin)      0.22580     0.14861     0.09294
 Rotational constants (GHZ):           4.70482     3.09660     1.93664
 Zero-point vibrational energy     375540.2 (Joules/Mol)
                                   89.75626 (Kcal/Mol)
 Warning -- explicit consideration of  11 degrees of freedom as
           vibrations may cause significant error
 Vibrational temperatures:    203.90   222.11   239.99   409.41   443.81
          (Kelvin)            531.14   537.43   565.31   691.46   754.54
                              835.05  1027.91  1084.14  1104.80  1380.95
                             1418.75  1454.72  1573.83  1574.14  1658.57
                             1766.46  1840.32  1974.08  2062.23  2068.61
                             2145.92  2162.42  2173.96  2185.46  2354.87
                             2357.83  2539.11  4315.35  4323.62  4379.23
                             4383.42  4448.21  4451.35  5073.82  5078.88
                             5267.87  5269.14

 Zero-point correction=                           0.143036 (Hartree/Particle)
 Thermal correction to Energy=                    0.150787
 Thermal correction to Enthalpy=                  0.151731
 Thermal correction to Gibbs Free Energy=         0.112194
 Sum of electronic and zero-point Energies=           -267.809264
 Sum of electronic and thermal Energies=              -267.801513
 Sum of electronic and thermal Enthalpies=            -267.800568
 Sum of electronic and thermal Free Energies=         -267.840106

                     E (Thermal)             CV                S
                      KCal/Mol        Cal/Mol-Kelvin    Cal/Mol-Kelvin
 Total                   94.620             28.416             83.213
 Electronic               0.000              0.000              0.000
 Translational            0.889              2.981             39.271
 Rotational               0.889              2.981             26.835
 Vibrational             92.843             22.455             17.107
 Vibration     1          0.615              1.912              2.781
 Vibration     2          0.620              1.898              2.618
 Vibration     3          0.624              1.883              2.471
 Vibration     4          0.683              1.702              1.506
 Vibration     5          0.698              1.658              1.371
 Vibration     6          0.741              1.536              1.083
 Vibration     7          0.745              1.526              1.065
 Vibration     8          0.760              1.485              0.989
 Vibration     9          0.837              1.293              0.708
 Vibration    10          0.879              1.196              0.600
 Vibration    11          0.937              1.074              0.485

 Normal termination of Gaussian 09 at Thu Sep  8 15:19:07 2022.
