 Gaussian 09, Revision E.01,
 Gaussian 09:  ES64L-G09RevE.01 30-Nov-2015

 ----------------------------
 #P OPT Freq B3LYP/6-31G(d,p)
 ----------------------------

 ---------
 Frag_1072
 ---------
 Symbolic Z-matrix:
 Charge =  0 Multiplicity = 1

 SCF Done:  E(RB3LYP) =  -415.791569099     A.U. after   13 cycles
 SCF Done:  E(RB3LYP) =  -415.791623532     A.U. after    8 cycles
 SCF Done:  E(RB3LYP) =  -415.791625229     A.U. after    9 cycles
 SCF Done:  E(RB3LYP) =  -415.791626654     A.U. after    9 cycles
 SCF Done:  E(RB3LYP) =  -415.791630309     A.U. after    7 cycles
 SCF Done:  E(RB3LYP) =  -415.791630659     A.U. after    7 cycles
 SCF Done:  E(RB3LYP) =  -415.791631120     A.U. after    7 cycles
 SCF Done:  E(RB3LYP) =  -415.791631247     A.U. after    6 cycles
 Optimization completed.
    -- Stationary point found.
 Normal termination of Gaussian 09 at Thu Sep  8 14:47:17 2022.

 ----------------------------------------------------------------------
 #P Geom=AllCheck Guess=TCheck SCRF=Check GenChk RB3LYP/6-31G(d,p) Freq
 ----------------------------------------------------------------------

 Structure from the checkpoint file:  "B3LYP6-31Gdp.Frag_1072.chk"
 ---------
 Frag_1072
 ---------
 Charge =  0 Multiplicity = 1

                         Standard orientation:
 ---------------------------------------------------------------------
 Center     Atomic      Atomic             Coordinates (Angstroms)
 Number     Number       Type             X           Y           Z
 ---------------------------------------------------------------------
      1          6           0        1.419976    1.318393   -0.293603
      2          6           0        0.788211   -0.042053    0.026767
      3          7           0        1.148143   -0.428403    1.388234
      4          7           0        1.311068   -1.007321   -0.957411
      5          6           0       -0.784027    0.042381   -0.009727
      6          7           0       -1.232120    1.005417    0.970028
      7          7           0       -1.316364   -1.298972    0.222461
      8          8           0       -1.227787    0.469146   -1.301654
      9          1           0        2.506761    1.240604   -0.202151
     10          1           0        1.197837    1.614343   -1.323454
     11          1           0        1.051827    2.089438    0.384401
     12          1           0        0.689477   -1.312845    1.601739
     13          1           0        2.153349   -0.578674    1.434266
     14          1           0        0.999660   -1.945726   -0.714608
     15          1           0        0.927348   -0.792147   -1.877105
     16          1           0       -2.230782    0.913957    1.139530
     17          1           0       -0.726514    0.847705    1.838607
     18          1           0       -1.194878   -1.843949   -0.629271
     19          1           0       -2.323487   -1.227177    0.354863
     20          1           0       -1.148348    1.433934   -1.297398
 ---------------------------------------------------------------------

 SCF Done:  E(RB3LYP) =  -415.791631247     A.U. after    1 cycles

 The electronic state is 1-A.
 Alpha  occ. eigenvalues --  -19.14082 -14.32008 -14.31385 -14.30667 -14.30468
 Alpha  occ. eigenvalues --  -10.28313 -10.23647 -10.16340  -1.03210  -0.92195
 Alpha  occ. eigenvalues --   -0.88579  -0.84696  -0.82473  -0.71558  -0.64044
 Alpha  occ. eigenvalues --   -0.55732  -0.52180  -0.51039  -0.48411  -0.47615
 Alpha  occ. eigenvalues --   -0.46297  -0.44887  -0.43608  -0.41202  -0.36739
 Alpha  occ. eigenvalues --   -0.36384  -0.35093  -0.34630  -0.28684  -0.26276
 Alpha  occ. eigenvalues --   -0.25625  -0.23950  -0.23155
 Alpha virt. eigenvalues --    0.06102   0.10293   0.10739   0.11816   0.14238
 Alpha virt. eigenvalues --    0.15061   0.15861   0.16559   0.16920   0.18302
 Alpha virt. eigenvalues --    0.19201   0.21629   0.24322   0.25604   0.26724

 Mulliken charges:
               1
     1  C   -0.294882
     2  C    0.239724
     3  N   -0.601425
     4  N   -0.595632
     5  C    0.452908
     6  N   -0.603151
     7  N   -0.591975
     8  O   -0.560470
     9  H    0.105960
    10  H    0.089415
    11  H    0.121492
    12  H    0.249458
    13  H    0.241937
    14  H    0.225088
    15  H    0.240199
    16  H    0.232202
    17  H    0.267665
    18  H    0.237471
    19  H    0.233587
    20  H    0.310430
 Sum of Mulliken charges =  -0.00000

 Dipole moment (field-independent basis, Debye):
    X=             -1.4049    Y=             -0.7643    Z=              0.0974  Tot=              1.6023
 Quadrupole moment (field-independent basis, Debye-Ang):
   XX=            -47.4142   YY=            -47.1996   ZZ=            -50.1691
   XY=              0.5526   XZ=             -0.4636   YZ=             -0.8492

  Exact polarizability:  66.734   0.942  63.810  -1.064   0.237  61.702
 Approx polarizability:  88.475  -0.209  88.897  -0.165   0.608  90.136

                      1                      2                      3
                      A                      A                      A
 Frequencies --    116.7140               222.4355               243.2066
 Red. masses --      3.9197                 1.1956                 1.0685
 Frc consts  --      0.0315                 0.0349                 0.0372
 IR Inten    --      0.7519                30.0007                 5.1666

                      4                      5                      6
                      A                      A                      A
 Frequencies --    257.7133               276.0477               302.2917
 Red. masses --      2.7621                 2.4617                 1.2979
 Frc consts  --      0.1081                 0.1105                 0.0699
 IR Inten    --      9.1645                 5.3522                17.2707

                      7                      8                      9
                      A                      A                      A
 Frequencies --    337.9313               355.2203               373.7727
 Red. masses --      1.7563                 2.0623                 2.3317
 Frc consts  --      0.1182                 0.1533                 0.1919
 IR Inten    --     42.1647                12.3881                12.7896

                     10                     11                     12
                      A                      A                      A
 Frequencies --    377.8683               407.9280               436.1106
 Red. masses --      1.4512                 1.4878                 2.3776
 Frc consts  --      0.1221                 0.1459                 0.2664
 IR Inten    --     11.8763                37.9832                 7.6086

                     13                     14                     15
                      A                      A                      A
 Frequencies --    465.8827               506.8927               549.9447
 Red. masses --      1.7996                 1.7651                 3.2689
 Frc consts  --      0.2301                 0.2672                 0.5825
 IR Inten    --     91.6088                57.9850                15.1950

                     16                     17                     18
                      A                      A                      A
 Frequencies --    559.3684               592.3228               710.5676
 Red. masses --      3.0130                 2.4361                 3.3620
 Frc consts  --      0.5555                 0.5036                 1.0001
 IR Inten    --      6.1930                51.8079                20.1794

                     19                     20                     21
                      A                      A                      A
 Frequencies --    866.4805               873.1036               891.0354
 Red. masses --      2.5328                 1.5758                 1.5428
 Frc consts  --      1.1204                 0.7078                 0.7217
 IR Inten    --     36.4074               136.8548               162.4889

                     22                     23                     24
                      A                      A                      A
 Frequencies --    909.0448               948.7542               988.3228
 Red. masses --      1.8938                 1.4546                 1.4562
 Frc consts  --      0.9220                 0.7714                 0.8380
 IR Inten    --    103.6137                68.5947                27.5609

                     25                     26                     27
                      A                      A                      A
 Frequencies --   1005.0883              1030.2483              1061.3039
 Red. masses --      1.9183                 1.7742                 1.8130
 Frc consts  --      1.1418                 1.1095                 1.2032
 IR Inten    --     98.2064                46.4824                72.9924

                     28                     29                     30
                      A                      A                      A
 Frequencies --   1077.8503              1116.8377              1199.6529
 Red. masses --      1.7582                 1.4494                 2.8473
 Frc consts  --      1.2035                 1.0652                 2.4143
 IR Inten    --     39.1094                16.2973                80.9918

                     31                     32                     33
                      A                      A                      A
 Frequencies --   1276.1563              1312.7491              1353.7583
 Red. masses --      1.7517                 1.6741                 1.9020
 Frc consts  --      1.6808                 1.6998                 2.0538
 IR Inten    --     27.3214                54.4623                66.5577

                     34                     35                     36
                      A                      A                      A
 Frequencies --   1373.5060              1401.5428              1425.7529
 Red. masses --      1.7192                 2.1218                 1.4317
 Frc consts  --      1.9109                 2.4557                 1.7148
 IR Inten    --     27.9346                 5.6300                18.4397

                     37                     38                     39
                      A                      A                      A
 Frequencies --   1502.7856              1516.8349              1637.0607
 Red. masses --      1.0555                 1.0540                 1.1150
 Frc consts  --      1.4044                 1.4288                 1.7606
 IR Inten    --      2.0162                 1.7022                59.3739

                     40                     41                     42
                      A                      A                      A
 Frequencies --   1647.2586              1657.2184              1670.3045
 Red. masses --      1.0976                 1.1002                 1.1051
 Frc consts  --      1.7547                 1.7802                 1.8165
 IR Inten    --     40.3853                63.4226                 7.6940

                     43                     44                     45
                      A                      A                      A
 Frequencies --   3060.7909              3126.8544              3161.9582
 Red. masses --      1.0368                 1.1013                 1.1024
 Frc consts  --      5.7229                 6.3443                 6.4940
 IR Inten    --     17.8184                24.6752                13.3030

                     46                     47                     48
                      A                      A                      A
 Frequencies --   3468.6793              3481.1636              3484.8317
 Red. masses --      1.0484                 1.0489                 1.0502
 Frc consts  --      7.4322                 7.4894                 7.5140
 IR Inten    --      1.3446                 1.3144                 0.8399

                     49                     50                     51
                      A                      A                      A
 Frequencies --   3490.3521              3561.4911              3564.9551
 Red. masses --      1.0485                 1.0915                 1.0921
 Frc consts  --      7.5258                 8.1573                 8.1774
 IR Inten    --     13.3531                 0.2426                 0.5198

                     52                     53                     54
                      A                      A                      A
 Frequencies --   3572.6438              3588.2357              3799.0884
 Red. masses --      1.0927                 1.0943                 1.0650
 Frc consts  --      8.2175                 8.3015                 9.0562
 IR Inten    --      1.9424                 9.9356                19.4279

 - Thermochemistry -
 -------------------
 Temperature   298.150 Kelvin.  Pressure   1.00000 Atm.
 Atom     1 has atomic number  6 and mass  12.00000

 Molecular mass:   120.10111 amu.
 Principal axes and moments of inertia in atomic units:
                           1         2         3
     Eigenvalues --   721.067201001.296701012.73325
           X            0.99878   0.03745  -0.03221
           Y           -0.04004   0.99565  -0.08411
           Z            0.02892   0.08530   0.99594
 This molecule is an asymmetric top.
 Rotational symmetry number  1.
 Warning -- assumption of classical behavior for rotation
           may cause significant error
 Rotational temperatures (Kelvin)      0.12012     0.08650     0.08552
 Rotational constants (GHZ):           2.50288     1.80240     1.78205
 Zero-point vibrational energy     467715.4 (Joules/Mol)
                                  111.78667 (Kcal/Mol)
 Warning -- explicit consideration of  17 degrees of freedom as
           vibrations may cause significant error
 Vibrational temperatures:    167.93   320.03   349.92   370.79   397.17
          (Kelvin)            434.93   486.21   511.08   537.77   543.67
                              586.92   627.47   670.30   729.30   791.25
                              804.81   852.22  1022.35  1246.67  1256.20
                             1282.00  1307.91  1365.04  1421.97  1446.10
                             1482.30  1526.98  1550.78  1606.88  1726.03
                             1836.10  1888.75  1947.75  1976.17  2016.50
                             2051.34  2162.17  2182.38  2355.36  2370.03
                             2384.36  2403.19  4403.79  4498.84  4549.35
                             4990.65  5008.61  5013.89  5021.83  5124.18
                             5129.17  5140.23  5162.66  5466.03

 Zero-point correction=                           0.178143 (Hartree/Particle)
 Thermal correction to Energy=                    0.187688
 Thermal correction to Enthalpy=                  0.188633
 Thermal correction to Gibbs Free Energy=         0.145526
 Sum of electronic and zero-point Energies=           -415.613488
 Sum of electronic and thermal Energies=              -415.603943
 Sum of electronic and thermal Enthalpies=            -415.602999
 Sum of electronic and thermal Free Energies=         -415.646106

                     E (Thermal)             CV                S
                      KCal/Mol        Cal/Mol-Kelvin    Cal/Mol-Kelvin
 Total                  117.776             38.121             90.726
 Electronic               0.000              0.000              0.000
 Translational            0.889              2.981             40.264
 Rotational               0.889              2.981             28.083
 Vibrational            115.999             32.160             22.380
 Vibration     1          0.608              1.935              3.154
 Vibration     2          0.648              1.807              1.939
 Vibration     3          0.659              1.774              1.779
 Vibration     4          0.667              1.750              1.677
 Vibration     5          0.678              1.718              1.558
 Vibration     6          0.694              1.669              1.404
 Vibration     7          0.718              1.600              1.222
 Vibration     8          0.731              1.565              1.143
 Vibration     9          0.745              1.526              1.064
 Vibration    10          0.748              1.517              1.048
 Vibration    11          0.772              1.453              0.934
 Vibration    12          0.797              1.391              0.839
 Vibration    13          0.823              1.326              0.749
 Vibration    14          0.862              1.235              0.641
 Vibration    15          0.905              1.140              0.544
 Vibration    16          0.915              1.119              0.525
 Vibration    17          0.950              1.048              0.463

 Optimization completed.
    -- Stationary point found.
 Normal termination of Gaussian 09 at Thu Sep  8 14:47:40 2022.
