 Gaussian 09, Revision E.01,
 Gaussian 09:  ES64L-G09RevE.01 30-Nov-2015

 ----------------------------
 #P OPT Freq B3LYP/6-31G(d,p)
 ----------------------------

 --------
 Frag_456
 --------
 Symbolic Z-matrix:
 Charge =  0 Multiplicity = 1

 SCF Done:  E(RB3LYP) =  -323.750181876     A.U. after   13 cycles
 SCF Done:  E(RB3LYP) =  -323.750295767     A.U. after   10 cycles
 SCF Done:  E(RB3LYP) =  -323.750301242     A.U. after    9 cycles
 SCF Done:  E(RB3LYP) =  -323.750301698     A.U. after    8 cycles
 SCF Done:  E(RB3LYP) =  -323.750305042     A.U. after    8 cycles
 SCF Done:  E(RB3LYP) =  -323.750306640     A.U. after    8 cycles
 SCF Done:  E(RB3LYP) =  -323.750308195     A.U. after    8 cycles
 SCF Done:  E(RB3LYP) =  -323.750308987     A.U. after    7 cycles
 SCF Done:  E(RB3LYP) =  -323.750309541     A.U. after    8 cycles
 SCF Done:  E(RB3LYP) =  -323.750309694     A.U. after    7 cycles
 SCF Done:  E(RB3LYP) =  -323.750309743     A.U. after    6 cycles
 Optimization completed.
    -- Stationary point found.
 Normal termination of Gaussian 09 at Thu Sep  8 15:19:08 2022.

 ----------------------------------------------------------------------
 #P Geom=AllCheck Guess=TCheck SCRF=Check GenChk RB3LYP/6-31G(d,p) Freq
 ----------------------------------------------------------------------

 Structure from the checkpoint file:  "B3LYP6-31Gdp.Frag_456.chk"
 --------
 Frag_456
 --------
 Charge =  0 Multiplicity = 1

                         Standard orientation:
 ---------------------------------------------------------------------
 Center     Atomic      Atomic             Coordinates (Angstroms)
 Number     Number       Type             X           Y           Z
 ---------------------------------------------------------------------
      1          6           0        1.419842   -1.169329    0.051483
      2          7           0        0.570315    0.009265   -0.063465
      3          6           0        1.218235    1.309801   -0.023449
      4          6           0       -0.798447   -0.167753   -0.013672
      5          8           0       -1.348377   -1.248421   -0.033186
      6          8           0       -1.546687    0.973146    0.037164
      7          1           0        2.165918   -1.179685   -0.751079
      8          1           0        0.787684   -2.051181   -0.031454
      9          1           0        1.944178   -1.192439    1.016026
     10          1           0        1.266772    1.741179    0.988173
     11          1           0        2.243767    1.203866   -0.384735
     12          1           0        0.725624    2.021905   -0.695289
     13          1           0       -1.003413    1.757385    0.184621
 ---------------------------------------------------------------------

 SCF Done:  E(RB3LYP) =  -323.750309743     A.U. after    1 cycles

 The electronic state is 1-A.
 Alpha  occ. eigenvalues --  -19.18642 -19.10682 -14.37242 -10.32880 -10.24503
 Alpha  occ. eigenvalues --  -10.21983  -1.09498  -1.00360  -0.94023  -0.73978
 Alpha  occ. eigenvalues --   -0.70236  -0.60363  -0.55355  -0.49030  -0.48853
 Alpha  occ. eigenvalues --   -0.42992  -0.42448  -0.41794  -0.41524  -0.39610
 Alpha  occ. eigenvalues --   -0.37559  -0.30775  -0.26590  -0.24498
 Alpha virt. eigenvalues --    0.04967   0.05615   0.10649   0.11660   0.13300
 Alpha virt. eigenvalues --    0.15085   0.15630   0.17279   0.17521   0.20848
 Alpha virt. eigenvalues --    0.27029   0.34235   0.40593   0.48200   0.49137

 Mulliken charges:
               1
     1  C   -0.178219
     2  N   -0.450094
     3  C   -0.206180
     4  C    0.746248
     5  O   -0.494378
     6  O   -0.507028
     7  H    0.111981
     8  H    0.166919
     9  H    0.112923
    10  H    0.125030
    11  H    0.133806
    12  H    0.124401
    13  H    0.314590
 Sum of Mulliken charges =  -0.00000

 Dipole moment (field-independent basis, Debye):
    X=              4.2481    Y=              3.1017    Z=              0.3052  Tot=              5.2688
 Quadrupole moment (field-independent basis, Debye-Ang):
   XX=            -39.6940   YY=            -33.2607   ZZ=            -35.7251
   XY=             -2.8862   XZ=             -0.3117   YZ=              0.2322

  Exact polarizability:  51.552   1.735  50.982   0.359   0.608  31.751
 Approx polarizability:  71.362   6.723  73.501   0.361   1.110  44.151

                      1                      2                      3
                      A                      A                      A
 Frequencies --     44.5262               108.4162               147.7939
 Red. masses --      1.9723                 1.3101                 1.4894
 Frc consts  --      0.0023                 0.0091                 0.0192
 IR Inten    --     11.3016                 3.4388                 0.7888

                      4                      5                      6
                      A                      A                      A
 Frequencies --    184.9666               304.4150               361.2460
 Red. masses --      1.8497                 2.2326                 1.7440
 Frc consts  --      0.0373                 0.1219                 0.1341
 IR Inten    --      0.3969                41.1026                54.6878

                      7                      8                      9
                      A                      A                      A
 Frequencies --    414.7697               550.4402               598.1007
 Red. masses --      2.0506                 4.0317                 6.1187
 Frc consts  --      0.2078                 0.7197                 1.2896
 IR Inten    --     11.7776                 0.9293                 4.6878

                     10                     11                     12
                      A                      A                      A
 Frequencies --    748.1624               794.6219              1030.0637
 Red. masses --     10.6719                 5.7234                 2.4309
 Frc consts  --      3.5195                 2.1293                 1.5196
 IR Inten    --     18.9266                11.5397                16.1419

                     13                     14                     15
                      A                      A                      A
 Frequencies --   1087.2845              1129.6802              1152.6053
 Red. masses --      1.3970                 1.2438                 1.6333
 Frc consts  --      0.9731                 0.9352                 1.2784
 IR Inten    --     14.3868                 5.1380                35.5552

                     16                     17                     18
                      A                      A                      A
 Frequencies --   1177.0429              1270.2059              1302.0999
 Red. masses --      1.4170                 1.7730                 5.4449
 Frc consts  --      1.1567                 1.6854                 5.4391
 IR Inten    --      2.6001               213.8542                52.4315

                     19                     20                     21
                      A                      A                      A
 Frequencies --   1410.8027              1444.0973              1485.6534
 Red. masses --      2.8605                 1.1444                 1.2207
 Frc consts  --      3.3544                 1.4062                 1.5874
 IR Inten    --    272.9911                 8.1243                45.6904

                     22                     23                     24
                      A                      A                      A
 Frequencies --   1513.4498              1515.2095              1522.3504
 Red. masses --      1.0449                 1.0571                 1.0526
 Frc consts  --      1.4102                 1.4299                 1.4372
 IR Inten    --     15.1445                 7.0064                10.8511

                     25                     26                     27
                      A                      A                      A
 Frequencies --   1541.3149              1847.8551              2997.3082
 Red. masses --      1.1656                 9.7179                 1.0479
 Frc consts  --      1.6315                19.5505                 5.5465
 IR Inten    --     43.8305               431.8492                55.2168

                     28                     29                     30
                      A                      A                      A
 Frequencies --   3023.9629              3071.2686              3080.4891
 Red. masses --      1.0428                 1.0934                 1.1014
 Frc consts  --      5.6184                 6.0765                 6.1581
 IR Inten    --     56.1236                32.2277                33.7242

                     31                     32                     33
                      A                      A                      A
 Frequencies --   3126.9231              3187.6822              3831.3569
 Red. masses --      1.0974                 1.0965                 1.0652
 Frc consts  --      6.3222                 6.5646                 9.2123
 IR Inten    --     13.1679                 0.4786                25.7646

 - Thermochemistry -
 -------------------
 Temperature   298.150 Kelvin.  Pressure   1.00000 Atm.
 Atom     1 has atomic number  6 and mass  12.00000

 Molecular mass:    89.04768 amu.
 Principal axes and moments of inertia in atomic units:
                           1         2         3
     Eigenvalues --   355.36188 505.97194 837.04858
           X            0.99923  -0.03931   0.00039
           Y            0.03931   0.99923  -0.00082
           Z           -0.00036   0.00084   1.00000
 This molecule is an asymmetric top.
 Rotational symmetry number  1.
 Rotational temperatures (Kelvin)      0.24373     0.17118     0.10348
 Rotational constants (GHZ):           5.07860     3.56688     2.15608
 Zero-point vibrational energy     281159.3 (Joules/Mol)
                                   67.19869 (Kcal/Mol)
 Warning -- explicit consideration of   9 degrees of freedom as
           vibrations may cause significant error
 Vibrational temperatures:     64.06   155.99   212.64   266.13   437.98
          (Kelvin)            519.75   596.76   791.96   860.53  1076.44
                             1143.28  1482.03  1564.36  1625.36  1658.34
                             1693.50  1827.54  1873.43  2029.83  2077.73
                             2137.52  2177.51  2180.05  2190.32  2217.61
                             2658.65  4312.45  4350.80  4418.87  4432.13
                             4498.94  4586.36  5512.46

 Zero-point correction=                           0.107088 (Hartree/Particle)
 Thermal correction to Energy=                    0.114482
 Thermal correction to Enthalpy=                  0.115427
 Thermal correction to Gibbs Free Energy=         0.075261
 Sum of electronic and zero-point Energies=           -323.643222
 Sum of electronic and thermal Energies=              -323.635827
 Sum of electronic and thermal Enthalpies=            -323.634883
 Sum of electronic and thermal Free Energies=         -323.675048

                     E (Thermal)             CV                S
                      KCal/Mol        Cal/Mol-Kelvin    Cal/Mol-Kelvin
 Total                   71.839             24.110             84.535
 Electronic               0.000              0.000              0.000
 Translational            0.889              2.981             39.372
 Rotational               0.889              2.981             26.512
 Vibrational             70.061             18.148             18.650
 Vibration     1          0.595              1.980              5.047
 Vibration     2          0.606              1.942              3.297
 Vibration     3          0.617              1.905              2.700
 Vibration     4          0.631              1.860              2.278
 Vibration     5          0.695              1.665              1.393
 Vibration     6          0.735              1.552              1.117
 Vibration     7          0.778              1.438              0.910
 Vibration     8          0.906              1.139              0.543
 Vibration     9          0.956              1.036              0.453

 Normal termination of Gaussian 09 at Thu Sep  8 15:19:18 2022.
