 Gaussian 09, Revision D.01,
 Gaussian 09:  ES64L-G09RevD.01 24-Apr-2013

 -------------------------
 #P OPT Freq B3LYP/6-31G**
 -------------------------

 -------
 Frag_49
 -------
 Symbolic Z-matrix:
 Charge =  0 Multiplicity = 1

 SCF Done:  E(RB3LYP) =  -272.998153144     A.U. after   13 cycles
 Optimization completed.
    -- Stationary point found.

 1\1\GINC-FN1\FOpt\RB3LYP\6-31G(d,p)\C5H12O1\LIUJ201281\22-Jul-2021\0\\
 #P OPT Freq B3LYP/6-31G**\\Frag_49\\0,1\C,1.6066,-0.5964,-0.7463\C,0.4
 087,0.005,0.0091\C,0.4204,1.5381,-0.1399\C,0.4751,-0.374,1.4986\C,-0.8
 85,-0.5709,-0.6103\O,-2.0838,-0.1163,0.0074\H,2.5526,-0.2285,-0.3347\H
 ,1.5831,-0.3346,-1.8107\H,1.6151,-1.6899,-0.6702\H,1.3459,1.9638,0.262
 \H,-0.4093,1.9994,0.408\H,0.3473,1.8393,-1.1922\H,0.5357,-1.4611,1.624
 1\H,-0.4192,-0.0268,2.0233\H,1.3547,0.0681,1.9794\H,-0.8959,-0.361,-1.
 6926\H,-0.8895,-1.6603,-0.4913\H,-2.2044,0.8113,-0.2314\\Version=ES64L

 Normal termination of Gaussian 09 at Thu Jul 22 21:42:55 2021.

 ----------------------------------------------------------------------
 #P Geom=AllCheck Guess=TCheck SCRF=Check GenChk RB3LYP/6-31G(d,p) Freq
 ----------------------------------------------------------------------

 Structure from the checkpoint file:  "/vol2/users/liuj201281/HOFBenchmark/IsodesmicSplit/Sample60/Ring26/Running/Gau-420736.chk"
 -------
 Frag_49
 -------
 Charge =  0 Multiplicity = 1

                         Standard orientation:
 ---------------------------------------------------------------------
 Center     Atomic      Atomic             Coordinates (Angstroms)
 Number     Number       Type             X           Y           Z
 ---------------------------------------------------------------------
      1          6           0        1.606582   -0.595896   -0.746722
      2          6           0        0.408690    0.004983    0.009104
      3          6           0        0.420421    1.538190   -0.138792
      4          6           0        0.475075   -0.375090    1.498331
      5          6           0       -0.885018   -0.570445   -0.610718
      6          8           0       -2.083812   -0.116266    0.007303
      7          1           0        2.552587   -0.228311   -0.334853
      8          1           0        1.583093   -0.333329   -1.810934
      9          1           0        1.615061   -1.689451   -0.671410
     10          1           0        1.345927    1.963583    0.263419
     11          1           0       -0.409273    1.999112    0.409435
     12          1           0        0.347332    1.840149   -1.190876
     13          1           0        0.535653   -1.462281    1.623049
     14          1           0       -0.419221   -0.028250    2.023276
     15          1           0        1.354681    0.066647    1.979454
     16          1           0       -0.895908   -0.359766   -1.692866
     17          1           0       -0.889540   -1.659930   -0.492502
     18          1           0       -2.204393    0.811508   -0.230830
 ---------------------------------------------------------------------

 SCF Done:  E(RB3LYP) =  -272.998153144     A.U. after    1 cycles

 The electronic state is 1-A.
 Alpha  occ. eigenvalues --  -19.14088 -10.22307 -10.19392 -10.17666 -10.17419
 Alpha  occ. eigenvalues --  -10.16603  -1.01219  -0.81223  -0.68770  -0.68022
 Alpha  occ. eigenvalues --   -0.66764  -0.54246  -0.49590  -0.45688  -0.44941
 Alpha  occ. eigenvalues --   -0.42789  -0.40794  -0.38256  -0.37495  -0.36264
 Alpha  occ. eigenvalues --   -0.35418  -0.33069  -0.32365  -0.31060  -0.26060
 Alpha virt. eigenvalues --    0.06579   0.09563   0.13319   0.13583   0.13973
 Alpha virt. eigenvalues --    0.15958   0.16180   0.17396   0.18909   0.19876
 Alpha virt. eigenvalues --    0.21785   0.21913   0.22565   0.23380   0.25580

 Mulliken charges:
               1
     1  C   -0.304531
     2  C    0.022235
     3  C   -0.317641
     4  C   -0.297563
     5  C    0.076248
     6  O   -0.543209
     7  H    0.100590
     8  H    0.095666
     9  H    0.099035
    10  H    0.104932
    11  H    0.092047
    12  H    0.094052
    13  H    0.094268
    14  H    0.115146
    15  H    0.091746
    16  H    0.072882
    17  H    0.098771
    18  H    0.305327
 Sum of Mulliken charges =   0.00000

 Dipole moment (field-independent basis, Debye):
    X=              0.9405    Y=              0.9826    Z=             -0.7874  Tot=              1.5716
 Quadrupole moment (field-independent basis, Debye-Ang):
   XX=            -42.6034   YY=            -38.1009   ZZ=            -39.8232
   XY=             -2.9374   XZ=              1.4877   YZ=             -0.0774

  Exact polarizability:  58.772  -1.278  58.193  -0.358  -0.191  56.608
 Approx polarizability:  79.320  -1.213  80.013  -1.102  -0.545  77.146

                      1                      2                      3
                      A                      A                      A
 Frequencies --    128.0049               220.3560               246.1692
 Red. masses --      2.3024                 1.0573                 2.8010
 Frc consts  --      0.0222                 0.0302                 0.1000
 IR Inten    --      3.1191                 1.9463                 4.0406

                      4                      5                      6
                      A                      A                      A
 Frequencies --    257.2645               272.8838               317.4134
 Red. masses --      1.0438                 1.1071                 1.2642
 Frc consts  --      0.0407                 0.0486                 0.0750
 IR Inten    --     14.6323                 3.6471                87.0187

                      7                      8                      9
                      A                      A                      A
 Frequencies --    333.3721               350.7850               403.1597
 Red. masses --      1.8336                 2.2829                 2.2540
 Frc consts  --      0.1201                 0.1655                 0.2159
 IR Inten    --     19.2798                 2.6272                 0.5833

                     10                     11                     12
                      A                      A                      A
 Frequencies --    419.5629               531.0830               742.9350
 Red. masses --      1.9134                 3.1081                 3.4334
 Frc consts  --      0.1984                 0.5165                 1.1166
 IR Inten    --      7.5145                 4.9845                 2.3949

                     13                     14                     15
                      A                      A                      A
 Frequencies --    901.9820               912.9320               944.6862
 Red. masses --      2.1479                 1.7732                 1.5842
 Frc consts  --      1.0296                 0.8707                 0.8330
 IR Inten    --      5.4931                 7.9302                 2.1677

                     16                     17                     18
                      A                      A                      A
 Frequencies --    951.3029               964.3037              1044.8165
 Red. masses --      1.3635                 1.2115                 1.5945
 Frc consts  --      0.7270                 0.6638                 1.0256
 IR Inten    --      1.8457                 0.8117                11.2028

                     19                     20                     21
                      A                      A                      A
 Frequencies --   1057.3521              1089.5596              1176.8969
 Red. masses --      1.4770                 3.1873                 1.2623
 Frc consts  --      0.9729                 2.2293                 1.0301
 IR Inten    --     45.4074                57.9797                17.4770

                     22                     23                     24
                      A                      A                      A
 Frequencies --   1247.2047              1286.1046              1302.5160
 Red. masses --      2.5068                 2.7599                 2.0396
 Frc consts  --      2.2974                 2.6897                 2.0387
 IR Inten    --      4.9317                 1.5644                10.4880

                     25                     26                     27
                      A                      A                      A
 Frequencies --   1390.9711              1409.9828              1414.2335
 Red. masses --      1.2352                 1.2658                 1.2318
 Frc consts  --      1.4081                 1.4826                 1.4515
 IR Inten    --      2.7368                 7.2972                17.3519

                     28                     29                     30
                      A                      A                      A
 Frequencies --   1415.5827              1447.9105              1494.8026
 Red. masses --      1.2486                 1.2398                 1.0481
 Frc consts  --      1.4742                 1.5314                 1.3798
 IR Inten    --     13.3623                11.1661                 0.1059

                     31                     32                     33
                      A                      A                      A
 Frequencies --   1500.8750              1505.1894              1508.7741
 Red. masses --      1.0541                 1.0465                 1.0657
 Frc consts  --      1.3990                 1.3969                 1.4294
 IR Inten    --      0.3934                 0.0516                 3.1830

                     34                     35                     36
                      A                      A                      A
 Frequencies --   1521.0528              1527.5090              1536.0617
 Red. masses --      1.0609                 1.0609                 1.0628
 Frc consts  --      1.4461                 1.4585                 1.4774
 IR Inten    --      2.7362                 4.7136                12.3516

                     37                     38                     39
                      A                      A                      A
 Frequencies --   2982.2737              3027.8195              3031.8687
 Red. masses --      1.0694                 1.0355                 1.0357
 Frc consts  --      5.6040                 5.5934                 5.6091
 IR Inten    --     62.9005                35.7889                30.1427

                     40                     41                     42
                      A                      A                      A
 Frequencies --   3040.9441              3079.1038              3095.6653
 Red. masses --      1.0373                 1.0945                 1.1024
 Frc consts  --      5.6516                 6.1136                 6.2246
 IR Inten    --     10.6300                23.5120                17.9235

                     43                     44                     45
                      A                      A                      A
 Frequencies --   3099.3264              3103.4319              3104.4622
 Red. masses --      1.1017                 1.1021                 1.1017
 Frc consts  --      6.2352                 6.2541                 6.2557
 IR Inten    --     36.3477                16.9935                25.1262

                     46                     47                     48
                      A                      A                      A
 Frequencies --   3109.3257              3128.9117              3825.4001
 Red. masses --      1.1007                 1.1010                 1.0662
 Frc consts  --      6.2698                 6.3506                 9.1923
 IR Inten    --     73.8614                23.8919                13.1725

 - Thermochemistry -
 -------------------
 Temperature   298.150 Kelvin.  Pressure   1.00000 Atm.
 Atom     1 has atomic number  6 and mass  12.00000

 Molecular mass:    88.08882 amu.
 Principal axes and moments of inertia in atomic units:
                           1         2         3
     Eigenvalues --   415.31303 703.21562 705.84995
           X            0.99970  -0.02413   0.00501
           Y            0.02460   0.98948  -0.14259
           Z           -0.00152   0.14267   0.98977
 This molecule is an asymmetric top.
 Rotational symmetry number  1.
 Rotational temperatures (Kelvin)      0.20855     0.12317     0.12271
 Rotational constants (GHZ):           4.34550     2.56641     2.55683
 Zero-point vibrational energy     433072.8 (Joules/Mol)
                                  103.50689 (Kcal/Mol)
 Warning -- explicit consideration of  11 degrees of freedom as
           vibrations may cause significant error
 Vibrational temperatures:    184.17   317.04   354.18   370.15   392.62
          (Kelvin)            456.69   479.65   504.70   580.06   603.66
                              764.11  1068.92  1297.75  1313.50  1359.19
                             1368.71  1387.42  1503.26  1521.29  1567.63
                             1693.29  1794.45  1850.42  1874.03  2001.29
                             2028.65  2034.76  2036.71  2083.22  2150.68
                             2159.42  2165.63  2170.79  2188.45  2197.74
                             2210.05  4290.82  4356.35  4362.18  4375.23
                             4430.14  4453.97  4459.23  4465.14  4466.62
                             4473.62  4501.80  5503.89

 Zero-point correction=                           0.164949 (Hartree/Particle)
 Thermal correction to Energy=                    0.172898
 Thermal correction to Enthalpy=                  0.173842
 Thermal correction to Gibbs Free Energy=         0.134095
 Sum of electronic and zero-point Energies=           -272.833204
 Sum of electronic and thermal Energies=              -272.825255
 Sum of electronic and thermal Enthalpies=            -272.824311
 Sum of electronic and thermal Free Energies=         -272.864058

                     E (Thermal)             CV                S
                      KCal/Mol        Cal/Mol-Kelvin    Cal/Mol-Kelvin
 Total                  108.495             29.499             83.656
 Electronic               0.000              0.000              0.000
 Translational            0.889              2.981             39.340
 Rotational               0.889              2.981             26.825
 Vibrational            106.718             23.537             17.491
 Vibration     1          0.611              1.925              2.976
 Vibration     2          0.647              1.810              1.956
 Vibration     3          0.661              1.769              1.758
 Vibration     4          0.667              1.751              1.680
 Vibration     5          0.676              1.723              1.578
 Vibration     6          0.704              1.640              1.323
 Vibration     7          0.715              1.609              1.244
 Vibration     8          0.728              1.574              1.163
 Vibration     9          0.769              1.463              0.951
 Vibration    10          0.782              1.428              0.893
 Vibration    11          0.886              1.181              0.585

 Optimization completed.
    -- Stationary point found.

 1\1\GINC-FN1\Freq\RB3LYP\6-31G(d,p)\C5H12O1\LIUJ201281\22-Jul-2021\0\\
 #P Geom=AllCheck Guess=TCheck SCRF=Check GenChk RB3LYP/6-31G(d,p) Freq
 \\Frag_49\\0,1\C,1.6066,-0.5964,-0.7463\C,0.4087,0.005,0.0091\C,0.4204
 ,1.5381,-0.1399\C,0.4751,-0.374,1.4986\C,-0.885,-0.5709,-0.6103\O,-2.0
 838,-0.1163,0.0074\H,2.5526,-0.2285,-0.3347\H,1.5831,-0.3346,-1.8107\H
 ,1.6151,-1.6899,-0.6702\H,1.3459,1.9638,0.262\H,-0.4093,1.9994,0.408\H
 ,0.3473,1.8393,-1.1922\H,0.5357,-1.4611,1.6241\H,-0.4192,-0.0268,2.023
 3\H,1.3547,0.0681,1.9794\H,-0.8959,-0.361,-1.6926\H,-0.8895,-1.6603,-0

 Normal termination of Gaussian 09 at Thu Jul 22 21:43:11 2021.
